 Gaussian 16, Revision A.03,

 -----------------------------------------------------------
 # opt freq B3LYP/6-31G(d) empiricaldispersion=gd3bj scf=xqc
 -----------------------------------------------------------

 -------------------------------
 CID_116247542_JID_3454_neutraal
 -------------------------------
 Symbolic Z-matrix:
 Charge =  0 Multiplicity = 1

 SCF Done:  E(RB3LYP) =  -579.029925867     A.U. after   13 cycles
 SCF Done:  E(RB3LYP) =  -579.035060943     A.U. after   11 cycles
 SCF Done:  E(RB3LYP) =  -579.035869694     A.U. after   12 cycles
 SCF Done:  E(RB3LYP) =  -579.037514528     A.U. after   11 cycles
 SCF Done:  E(RB3LYP) =  -579.038098828     A.U. after   12 cycles
 SCF Done:  E(RB3LYP) =  -579.038418631     A.U. after   11 cycles
 SCF Done:  E(RB3LYP) =  -579.038562047     A.U. after   11 cycles
 SCF Done:  E(RB3LYP) =  -579.038616074     A.U. after   10 cycles
 SCF Done:  E(RB3LYP) =  -579.038645745     A.U. after    9 cycles
 SCF Done:  E(RB3LYP) =  -579.038703610     A.U. after   11 cycles
 SCF Done:  E(RB3LYP) =  -579.040962969     A.U. after    9 cycles
 SCF Done:  E(RB3LYP) =  -579.040965977     A.U. after    9 cycles
 SCF Done:  E(RB3LYP) =  -579.040966316     A.U. after    8 cycles
 SCF Done:  E(RB3LYP) =  -579.040966473     A.U. after    8 cycles
 SCF Done:  E(RB3LYP) =  -579.040966512     A.U. after    6 cycles
 Optimization completed.
    -- Stationary point found.
 Normal termination of Gaussian 16 at Sun Dec 13 20:14:16 2020.

 --------------------------------------------------------------------
 #N Geom=AllCheck Guess=TCheck SCRF=Check GenChk RB3LYP/6-31G(d) Freq
 --------------------------------------------------------------------

 Structure from the checkpoint file:  "JID_3454.chk"
 -------------------------------
 CID_116247542_JID_3454_neutraal
 -------------------------------
 Charge =  0 Multiplicity = 1

 SCF Done:  E(RB3LYP) =  -579.040966512     A.U. after    1 cycles

  Exact polarizability: 146.944   1.625 121.342   3.827   6.985 104.592
 Approx polarizability: 192.093   2.955 160.566   8.356   7.769 152.288

                      1                      2                      3
                      A                      A                      A
 Frequencies --     24.8985                45.5700                74.6645
 Red. masses --      3.0500                 3.2478                 2.7168
 Frc consts  --      0.0011                 0.0040                 0.0089
 IR Inten    --      0.1968                 0.0459                 0.1227

                      4                      5                      6
                      A                      A                      A
 Frequencies --     77.2812                81.6613               115.0614
 Red. masses --      2.9121                 2.7358                 2.9262
 Frc consts  --      0.0102                 0.0107                 0.0228
 IR Inten    --      0.3705                 0.0690                 0.9879

                      7                      8                      9
                      A                      A                      A
 Frequencies --    139.6271               166.4697               188.3775
 Red. masses --      3.4397                 2.0109                 2.8099
 Frc consts  --      0.0395                 0.0328                 0.0587
 IR Inten    --      0.6381                 2.9387                 3.0234

                     10                     11                     12
                      A                      A                      A
 Frequencies --    206.6546               233.1276               250.9600
 Red. masses --      2.4394                 1.5712                 1.1224
 Frc consts  --      0.0614                 0.0503                 0.0416
 IR Inten    --      0.4042                 1.9526                 0.3885

                     13                     14                     15
                      A                      A                      A
 Frequencies --    258.8443               284.1788               328.3166
 Red. masses --      1.9430                 2.4515                 1.9797
 Frc consts  --      0.0767                 0.1166                 0.1257
 IR Inten    --      2.5747                 4.1296                 3.3947

                     16                     17                     18
                      A                      A                      A
 Frequencies --    349.5303               364.4936               380.5941
 Red. masses --      1.7452                 1.6869                 2.0287
 Frc consts  --      0.1256                 0.1320                 0.1731
 IR Inten    --     11.6488                 8.3766                21.9509

                     19                     20                     21
                      A                      A                      A
 Frequencies --    425.3731               434.1521               440.6290
 Red. masses --      2.3572                 1.9234                 2.2365
 Frc consts  --      0.2513                 0.2136                 0.2558
 IR Inten    --      0.5133                 6.5394                 9.3578

                     22                     23                     24
                      A                      A                      A
 Frequencies --    502.8761               509.8274               595.5583
 Red. masses --      2.1234                 2.6653                 2.7228
 Frc consts  --      0.3164                 0.4082                 0.5690
 IR Inten    --      2.4398                 6.4986                21.7632

                     25                     26                     27
                      A                      A                      A
 Frequencies --    670.0665               709.9109               765.9297
 Red. masses --      1.7266                 2.0664                 1.7367
 Frc consts  --      0.4567                 0.6136                 0.6003
 IR Inten    --      3.2991                83.0522                11.3043

                     28                     29                     30
                      A                      A                      A
 Frequencies --    811.0197               839.9782               868.2790
 Red. masses --      1.1198                 1.9083                 2.1724
 Frc consts  --      0.4340                 0.7933                 0.9650
 IR Inten    --      2.7687                 7.8372                20.7039

                     31                     32                     33
                      A                      A                      A
 Frequencies --    875.1009               902.5859               910.2952
 Red. masses --      1.7889                 2.1290                 1.6001
 Frc consts  --      0.8072                 1.0219                 0.7812
 IR Inten    --     16.4811                 3.7926                18.1801

                     34                     35                     36
                      A                      A                      A
 Frequencies --    937.4558               960.7152               974.9472
 Red. masses --      1.3541                 1.6564                 1.7292
 Frc consts  --      0.7011                 0.9008                 0.9684
 IR Inten    --     33.1764               302.9861                 8.9163

                     37                     38                     39
                      A                      A                      A
 Frequencies --    981.3335               990.9136              1026.7215
 Red. masses --      1.4680                 1.7414                 3.1415
 Frc consts  --      0.8329                 1.0074                 1.9512
 IR Inten    --     13.8304                 0.8353                 9.4736

                     40                     41                     42
                      A                      A                      A
 Frequencies --   1041.5484              1065.2237              1099.5741
 Red. masses --      1.1043                 1.7290                 2.5706
 Frc consts  --      0.7058                 1.1559                 1.8312
 IR Inten    --      4.7074                 6.8538                26.0012

                     43                     44                     45
                      A                      A                      A
 Frequencies --   1119.7817              1130.1397              1148.1304
 Red. masses --      2.7533                 1.8977                 1.8282
 Frc consts  --      2.0341                 1.4281                 1.4199
 IR Inten    --     21.5535                18.5735                 8.5208

                     46                     47                     48
                      A                      A                      A
 Frequencies --   1161.2277              1177.3818              1190.7341
 Red. masses --      3.0220                 2.1838                 2.7053
 Frc consts  --      2.4009                 1.7836                 2.2599
 IR Inten    --    107.5480                16.7923                78.3249

                     49                     50                     51
                      A                      A                      A
 Frequencies --   1213.1434              1221.6862              1251.9058
 Red. masses --      2.1009                 1.9051                 1.5175
 Frc consts  --      1.8217                 1.6753                 1.4013
 IR Inten    --     20.6297                13.1040                 3.6230

                     52                     53                     54
                      A                      A                      A
 Frequencies --   1279.6009              1314.1225              1329.7920
 Red. masses --      1.3295                 1.3057                 1.3973
 Frc consts  --      1.2826                 1.3286                 1.4558
 IR Inten    --     10.5699                 7.1504                18.1631

                     55                     56                     57
                      A                      A                      A
 Frequencies --   1339.1406              1344.3272              1374.0637
 Red. masses --      1.2573                 1.2204                 1.2652
 Frc consts  --      1.3285                 1.2995                 1.4074
 IR Inten    --      2.7937                15.8629                 0.8790

                     58                     59                     60
                      A                      A                      A
 Frequencies --   1395.9802              1407.5431              1415.3783
 Red. masses --      1.2844                 1.2304                 1.2494
 Frc consts  --      1.4747                 1.4363                 1.4746
 IR Inten    --     12.5005                28.3623                 7.5325

                     61                     62                     63
                      A                      A                      A
 Frequencies --   1418.0510              1428.3275              1441.2220
 Red. masses --      1.2246                 1.2555                 1.2793
 Frc consts  --      1.4509                 1.5092                 1.5656
 IR Inten    --      2.5064                 5.7109                38.3814

                     64                     65                     66
                      A                      A                      A
 Frequencies --   1450.0099              1476.9956              1506.6593
 Red. masses --      1.3469                 1.1833                 1.1227
 Frc consts  --      1.6685                 1.5209                 1.5015
 IR Inten    --      2.3120                 2.7066                 7.2524

                     67                     68                     69
                      A                      A                      A
 Frequencies --   1510.7223              1512.2338              1519.1097
 Red. masses --      1.0900                 1.0756                 1.0614
 Frc consts  --      1.4656                 1.4492                 1.4432
 IR Inten    --      3.0251                 1.5590                 0.3644

                     70                     71                     72
                      A                      A                      A
 Frequencies --   1520.3056              1521.7184              1532.2688
 Red. masses --      1.0482                 1.0668                 1.1134
 Frc consts  --      1.4275                 1.4555                 1.5402
 IR Inten    --      7.3658                 2.5138                18.2864

                     73                     74                     75
                      A                      A                      A
 Frequencies --   1535.3857              1549.8844              1551.8273
 Red. masses --      1.0702                 1.1434                 1.1259
 Frc consts  --      1.4864                 1.6183                 1.5975
 IR Inten    --      0.1723                 5.1374                19.6521

                     76                     77                     78
                      A                      A                      A
 Frequencies --   1703.6425              1732.3227              2980.1908
 Red. masses --      1.0853                 4.4634                 1.0655
 Frc consts  --      1.8559                 7.8917                 5.5756
 IR Inten    --     15.9259                 5.8718                32.7068

                     79                     80                     81
                      A                      A                      A
 Frequencies --   2996.5522              3026.6178              3041.1953
 Red. masses --      1.0708                 1.0644                 1.0682
 Frc consts  --      5.6648                 5.7447                 5.8208
 IR Inten    --     83.3398                32.2176                17.3986

                     82                     83                     84
                      A                      A                      A
 Frequencies --   3043.0973              3045.5730              3048.4238
 Red. masses --      1.0885                 1.0437                 1.0670
 Frc consts  --      5.9387                 5.7039                 5.8420
 IR Inten    --     20.9252                51.1351                30.5559

                     85                     86                     87
                      A                      A                      A
 Frequencies --   3057.2179              3081.7269              3092.7848
 Red. masses --      1.0407                 1.0989                 1.0939
 Frc consts  --      5.7310                 6.1490                 6.1650
 IR Inten    --     25.5433                22.4166                17.1616

                     88                     89                     90
                      A                      A                      A
 Frequencies --   3100.9713              3103.6505              3122.5990
 Red. masses --      1.1013                 1.0945                 1.0975
 Frc consts  --      6.2393                 6.2116                 6.3053
 IR Inten    --     62.7084                17.0008                71.2466

                     91                     92                     93
                      A                      A                      A
 Frequencies --   3124.0591              3133.1127              3147.0613
 Red. masses --      1.0993                 1.1035                 1.0693
 Frc consts  --      6.3213                 6.3822                 6.2397
 IR Inten    --     11.2715                36.7880                27.6293

                     94                     95                     96
                      A                      A                      A
 Frequencies --   3156.1612              3170.8614              3231.8618
 Red. masses --      1.0794                 1.0954                 1.1155
 Frc consts  --      6.3351                 6.4889                 6.8649
 IR Inten    --      5.6693                16.0621                22.5637

                     97                     98                     99
                      A                      A                      A
 Frequencies --   3448.7040              3499.2850              3538.4748
 Red. masses --      1.0493                 1.0733                 1.0912
 Frc consts  --      7.3530                 7.7434                 8.0498
 IR Inten    --      6.7948                 0.5903                 2.8260

 - Thermochemistry -
 -------------------
 Temperature   298.150 Kelvin.  Pressure   1.00000 Atm.
 Atom     1 has atomic number  6 and mass  12.00000

 Molecular mass:   186.17321 amu.
 Principal axes and moments of inertia in atomic units:
                           1         2         3
     Eigenvalues --  2305.227453256.090384561.57768
           X            0.99958  -0.02875  -0.00383
           Y            0.02884   0.99924   0.02623
           Z            0.00308  -0.02633   0.99965
 This molecule is an asymmetric top.
 Rotational symmetry number  1.
 Warning -- assumption of classical behavior for rotation
           may cause significant error
 Rotational temperatures (Kelvin)      0.03757     0.02660     0.01899
 Rotational constants (GHZ):           0.78289     0.55427     0.39564
 Zero-point vibrational energy     842322.2 (Joules/Mol)
                                  201.31984 (Kcal/Mol)
 Warning -- explicit consideration of  24 degrees of freedom as
           vibrations may cause significant error
 Vibrational temperatures:     35.82    65.57   107.43   111.19   117.49
          (Kelvin)            165.55   200.89   239.51   271.03   297.33
                              335.42   361.08   372.42   408.87   472.37
                              502.90   524.43   547.59   612.02   624.65
                              633.97   723.53   733.53   856.88   964.08
                             1021.40  1102.00  1166.88  1208.54  1249.26
                             1259.08  1298.62  1309.71  1348.79  1382.25
                             1402.73  1411.92  1425.70  1477.22  1498.56
                             1532.62  1582.04  1611.12  1626.02  1651.90
                             1670.75  1693.99  1713.20  1745.44  1757.73
                             1801.21  1841.06  1890.73  1913.27  1926.72
                             1934.19  1976.97  2008.50  2025.14  2036.41
                             2040.26  2055.04  2073.60  2086.24  2125.07
                             2167.75  2173.59  2175.77  2185.66  2187.38
                             2189.41  2204.59  2209.08  2229.94  2232.73
                             2451.16  2492.43  4287.83  4311.37  4354.63
                             4375.60  4378.34  4381.90  4386.00  4398.65
                             4433.92  4449.83  4461.61  4465.46  4492.72
                             4494.82  4507.85  4527.92  4541.01  4562.16
                             4649.93  4961.92  5034.69  5091.08

 Zero-point correction=                           0.320824 (Hartree/Particle)
 Thermal correction to Energy=                    0.336948
 Thermal correction to Enthalpy=                  0.337892
 Thermal correction to Gibbs Free Energy=         0.276897
 Sum of electronic and zero-point Energies=           -578.720143
 Sum of electronic and thermal Energies=              -578.704019
 Sum of electronic and thermal Enthalpies=            -578.703074
 Sum of electronic and thermal Free Energies=         -578.764070

                     E (Thermal)             CV                S
                      KCal/Mol        Cal/Mol-Kelvin    Cal/Mol-Kelvin
 Total                  211.438             59.540            128.375
 Electronic               0.000              0.000              0.000
 Translational            0.889              2.981             41.571
 Rotational               0.889              2.981             31.904
 Vibrational            209.661             53.578             54.900
 Vibration     1          0.593              1.985              6.199
 Vibration     2          0.595              1.979              5.001
 Vibration     3          0.599              1.966              4.026
 Vibration     4          0.599              1.964              3.959
 Vibration     5          0.600              1.962              3.851
 Vibration     6          0.608              1.937              3.182
 Vibration     7          0.615              1.914              2.809
 Vibration     8          0.624              1.884              2.475
 Vibration     9          0.633              1.856              2.244
 Vibration    10          0.641              1.830              2.073
 Vibration    11          0.654              1.790              1.855
 Vibration    12          0.663              1.761              1.724
 Vibration    13          0.668              1.748              1.670
 Vibration    14          0.683              1.703              1.508
 Vibration    15          0.712              1.619              1.268
 Vibration    16          0.727              1.576              1.168
 Vibration    17          0.738              1.545              1.103
 Vibration    18          0.750              1.512              1.037
 Vibration    19          0.787              1.415              0.874
 Vibration    20          0.795              1.396              0.845
 Vibration    21          0.801              1.382              0.825
 Vibration    22          0.858              1.244              0.651
 Vibration    23          0.865              1.228              0.634
 Vibration    24          0.953              1.041              0.457

 Optimization completed.
    -- Stationary point found.
 Normal termination of Gaussian 16 at Sun Dec 13 20:23:51 2020.

 ----------------------------------------------------------------------
 # B3LYP/6-311++G(d,p) empiricaldispersion=gd3bj scf=xqc pop=npa geom=c
 heck
 ----------------------------------------------------------------------

 ---------------------------------------
 CID_116247542_JID_3454_Energie_neutraal
 ---------------------------------------
 Structure from the checkpoint file:  "JID_3454.chk"
 Charge =  0 Multiplicity = 1

 SCF Done:  E(RB3LYP) =  -579.219328948     A.U. after   14 cycles
 Normal termination of Gaussian 16 at Sun Dec 13 20:28:33 2020.

 ----------------------------------------------------------------------
 # B3LYP/6-311++G(d,p) empiricaldispersion=gd3bj scf=xqc pop=npa geom=c
 heck
 ----------------------------------------------------------------------

 -------------------------------------
 CID_116247542_JID_3454_Energie_kation
 -------------------------------------
 Structure from the checkpoint file:  "JID_3454.chk"
 Charge =  1 Multiplicity = 2

 SCF Done:  E(UB3LYP) =  -578.928368937     A.U. after   25 cycles
 Normal termination of Gaussian 16 at Sun Dec 13 20:40:40 2020.
 Gaussian 16:  ES64L-G16RevA.03 25-Dec-2016

 ----------------------------------------------------------------------
 # B3LYP/6-311++G(d,p) empiricaldispersion=gd3bj scf=xqc pop=npa geom=c
 heck
 ----------------------------------------------------------------------

 ------------------------------------
 CID_116247542_JID_3454_Energie_anion
 ------------------------------------
 Structure from the checkpoint file:  "JID_3454.chk"
 Charge = -1 Multiplicity = 2

                         Standard orientation:
 ---------------------------------------------------------------------
 Center     Atomic      Atomic             Coordinates (Angstroms)
 Number     Number       Type             X           Y           Z
 ---------------------------------------------------------------------
      1          6           0        2.428424   -2.704252   -0.760764
      2          6           0        2.169499   -2.156110    0.640527
      3          8           0        1.151730   -1.166463    0.680821
      4          6           0        1.561380    0.108517    0.215827
      5          6           0        0.430740    1.131643    0.367098
      6          6           0       -0.170286    1.057413    1.782324
      7          6           0        1.036453    2.553831    0.172591
      8          7           0        1.652450    2.826623   -1.121522
      9          7           0       -0.552878    0.986445   -0.723716
     10          6           0       -1.049562   -0.315791   -1.163651
     11          6           0       -1.947747   -1.131316   -0.201547
     12          6           0       -3.148254   -0.367708    0.278513
     13          6           0       -4.408253   -0.611343   -0.084969
     14          1           0        1.505025   -3.111160   -1.185981
     15          1           0        3.173550   -3.507065   -0.721453
     16          1           0        2.806891   -1.931711   -1.438111
     17          1           0        1.818739   -2.958470    1.297773
     18          1           0        3.099216   -1.752507    1.074119
     19          1           0        2.428648    0.448671    0.806900
     20          1           0        1.870839    0.065735   -0.837324
     21          1           0        0.593451    1.269130    2.540896
     22          1           0       -0.963073    1.807476    1.892285
     23          1           0       -0.586855    0.073012    1.996570
     24          1           0        0.220320    3.275779    0.318563
     25          1           0        1.769176    2.751166    0.964409
     26          1           0        2.527751    2.312335   -1.205980
     27          1           0        1.026930    2.442951   -1.831811
     28          1           0       -1.337389    1.608709   -0.541557
     29          1           0       -1.620759   -0.127179   -2.081607
     30          1           0       -0.193667   -0.934887   -1.443647
     31          1           0       -2.277053   -2.031533   -0.737827
     32          1           0       -1.337732   -1.466053    0.643937
     33          1           0       -2.952473    0.457192    0.964086
     34          1           0       -5.238835   -0.013785    0.281431
     35          1           0       -4.657907   -1.426877   -0.761260
 ---------------------------------------------------------------------

 SCF Done:  E(UB3LYP) =  -579.204951885     A.U. after   33 cycles
 SCF Done:  E(UB3LYP) =  -579.204951885     a.u. after    1 cycles

 The electronic state is 2-A.
 Alpha  occ. eigenvalues --  -19.02517 -14.20030 -14.18847 -10.11604 -10.11519
 Alpha  occ. eigenvalues --  -10.11100 -10.09557 -10.09238 -10.08417 -10.07385
 Alpha  occ. eigenvalues --  -10.06977 -10.06159 -10.05900  -0.93979  -0.81919
 Alpha  occ. eigenvalues --   -0.77459  -0.70550  -0.67960  -0.65012  -0.61549
 Alpha  occ. eigenvalues --   -0.59161  -0.56226  -0.52946  -0.50915  -0.47457
 Alpha  occ. eigenvalues --   -0.45018  -0.40421  -0.40249  -0.39798  -0.37907
 Alpha  occ. eigenvalues --   -0.37298  -0.35489  -0.34461  -0.33676  -0.32744
 Alpha  occ. eigenvalues --   -0.32404  -0.30235  -0.30167  -0.29553  -0.28873
 Alpha  occ. eigenvalues --   -0.27986  -0.27536  -0.27010  -0.26451  -0.24746
 Alpha  occ. eigenvalues --   -0.23894  -0.23507  -0.21281  -0.17627  -0.16472
 Alpha  occ. eigenvalues --   -0.14252  -0.12730   0.04416
 Alpha virt. eigenvalues --    0.06158   0.06838   0.07503   0.08132   0.08229
 Alpha virt. eigenvalues --    0.08523   0.09427   0.09668   0.10105   0.10546
 Alpha virt. eigenvalues --    0.10861   0.11930   0.12277   0.12689   0.12738

  Beta  occ. eigenvalues --  -19.02508 -14.20018 -14.18828 -10.11576 -10.11489
  Beta  occ. eigenvalues --  -10.11098 -10.09548 -10.09224 -10.08408 -10.07361
  Beta  occ. eigenvalues --  -10.06971 -10.06143 -10.05854  -0.93961  -0.81898
  Beta  occ. eigenvalues --   -0.77425  -0.70525  -0.67928  -0.64965  -0.61516
  Beta  occ. eigenvalues --   -0.59105  -0.56178  -0.52906  -0.50815  -0.47410
  Beta  occ. eigenvalues --   -0.44971  -0.40395  -0.40209  -0.39764  -0.37877
  Beta  occ. eigenvalues --   -0.37265  -0.35454  -0.34423  -0.33646  -0.32705
  Beta  occ. eigenvalues --   -0.32363  -0.30201  -0.30122  -0.29526  -0.28841
  Beta  occ. eigenvalues --   -0.27936  -0.27499  -0.26987  -0.26410  -0.24721
  Beta  occ. eigenvalues --   -0.23872  -0.23482  -0.21238  -0.17574  -0.16430
  Beta  occ. eigenvalues --   -0.14229  -0.12714
  Beta virt. eigenvalues --    0.06379   0.07164   0.07326   0.08015   0.08388
  Beta virt. eigenvalues --    0.08686   0.08872   0.09754   0.09941   0.10341
  Beta virt. eigenvalues --    0.10959   0.11278   0.12230   0.12542   0.12866

 Mulliken charges and spin densities:
               1          2
     1  C    1.122635  -1.565316
     2  C   -0.264102   0.192871
     3  O   -0.095405   0.049601
     4  C   -0.412246  -0.302716
     5  C   -0.624680   0.431448
     6  C    0.076151  -0.495029
     7  C    0.655514  -1.185119
     8  N   -0.347764   0.076131
     9  N   -0.057990   0.044303
    10  C    0.273938  -0.425441
    11  C   -0.093418  -0.249407
    12  C   -0.865388   1.198805
    13  C    0.762611  -1.498860
    14  H    0.037560   0.096944
    15  H   -0.559659   0.710219
    16  H   -0.735823   0.883205
    17  H   -0.388749   0.551382
    18  H   -0.056552   0.158470
    19  H   -0.280655   0.453609
    20  H    0.628713  -0.454036
    21  H   -0.072352   0.222328
    22  H   -0.025837   0.179023
    23  H    0.125799   0.033136
    24  H    0.032586   0.112824
    25  H   -0.055720   0.217755
    26  H   -0.074369   0.308019
    27  H    0.101249   0.155534
    28  H    0.132602   0.107721
    29  H    0.018823   0.154560
    30  H    0.374358  -0.195926
    31  H   -0.258951   0.423465
    32  H    0.247331  -0.087240
    33  H   -0.197390   0.353165
    34  H   -0.125534   0.243329
    35  H    0.002716   0.101245
 Sum of Mulliken charges =  -1.00000   1.00000

 Dipole moment (field-independent basis, Debye):
    X=             -4.5217    Y=              1.5175    Z=              0.8130  Tot=              4.8384
 Quadrupole moment (field-independent basis, Debye-Ang):
   XX=           -158.1624   YY=           -144.6427   ZZ=           -117.3311
   XY=              7.4797   XZ=              5.9393   YZ=              1.3325

 Summary of Natural Population Analysis:

                                       Natural Population
                Natural  -----------------------------------------------
    Atom  No    Charge         Core      Valence    Rydberg      Total
 -----------------------------------------------------------------------
      C    1   -0.30021      0.99967     2.29546    0.00508     3.30021
      C    2   -0.00553      0.99959     1.99371    0.01222     3.00553
      O    3   -0.30779      0.99988     3.29745    0.01046     4.30779
      C    4   -0.01847      0.99949     2.00392    0.01506     3.01847
      C    5    0.04414      0.99955     1.94125    0.01505     2.95586
      C    6   -0.29655      0.99961     2.28861    0.00833     3.29655
      C    7   -0.08523      0.99958     2.07301    0.01264     3.08523
      N    8   -0.42147      0.99978     2.91201    0.00968     3.92147
      N    9   -0.35256      0.99972     2.84061    0.01223     3.85256
      C   10   -0.08160      0.99961     2.07004    0.01195     3.08160
      C   11   -0.22228      0.99960     2.21314    0.00954     3.22228
      C   12   -0.08190      0.99956     2.07260    0.00973     3.08190
      C   13   -0.19479      0.99956     2.18845    0.00678     3.19479
      H   14    0.09805      0.00000     0.40058    0.00138     0.40195
      H   15    0.10331      0.00000     0.39464    0.00205     0.39669
      H   16    0.09946      0.00000     0.39871    0.00183     0.40054
      H   17    0.08744      0.00000     0.41122    0.00135     0.41256
      H   18    0.07892      0.00000     0.41924    0.00183     0.42108
      H   19    0.08587      0.00000     0.41221    0.00192     0.41413
      H   20    0.08896      0.00000     0.40895    0.00208     0.41104
      H   21    0.10170      0.00000     0.39739    0.00091     0.39830
      H   22    0.09611      0.00000     0.40269    0.00119     0.40389
      H   23    0.10758      0.00000     0.39089    0.00153     0.39242
      H   24    0.08758      0.00000     0.41118    0.00123     0.41242
      H   25    0.09304      0.00000     0.40584    0.00113     0.40696
      H   26    0.17139      0.00000     0.32618    0.00243     0.32861
      H   27    0.18026      0.00000     0.31713    0.00261     0.31974
      H   28    0.17426      0.00000     0.32308    0.00266     0.32574
      H   29    0.08956      0.00000     0.40938    0.00106     0.41044
      H   30    0.09937      0.00000     0.39878    0.00184     0.40063
      H   31    0.09797      0.00000     0.40077    0.00125     0.40203
      H   32    0.11087      0.00000     0.38721    0.00192     0.38913
      H   33    0.09251      0.00000     0.40610    0.00140     0.40749
      H   34    0.09187      0.00000     0.40695    0.00118     0.40813
      H   35    0.08812      0.00000     0.41060    0.00128     0.41188
 =======================================================================
   * Total *    0.00000     12.99520    38.83001    0.17479    52.00000

 Normal termination of Gaussian 16 at Sun Dec 13 20:56:37 2020.
