 Gaussian 16, Revision A.03,

 -----------------------------------------------------------
 # opt freq B3LYP/6-31G(d) empiricaldispersion=gd3bj scf=xqc
 -----------------------------------------------------------

 -------------------------------
 CID_149703273_JID_6619_neutraal
 -------------------------------
 Symbolic Z-matrix:
 Charge =  0 Multiplicity = 1

 SCF Done:  E(RB3LYP) =  -1106.80662295     A.U. after   14 cycles
 SCF Done:  E(RB3LYP) =  -1106.81023050     A.U. after   13 cycles
 SCF Done:  E(RB3LYP) =  -1106.80438996     A.U. after   13 cycles
 SCF Done:  E(RB3LYP) =  -1106.81195673     A.U. after   12 cycles
 SCF Done:  E(RB3LYP) =  -1106.81292261     A.U. after   12 cycles
 SCF Done:  E(RB3LYP) =  -1106.81353380     A.U. after   12 cycles
 SCF Done:  E(RB3LYP) =  -1106.81372546     A.U. after   12 cycles
 SCF Done:  E(RB3LYP) =  -1106.81390648     A.U. after   11 cycles
 SCF Done:  E(RB3LYP) =  -1106.81399412     A.U. after   11 cycles
 SCF Done:  E(RB3LYP) =  -1106.81403459     A.U. after   11 cycles
 SCF Done:  E(RB3LYP) =  -1106.81404828     A.U. after   10 cycles
 SCF Done:  E(RB3LYP) =  -1106.81405024     A.U. after    8 cycles
 SCF Done:  E(RB3LYP) =  -1106.81405068     A.U. after    8 cycles
 Optimization completed.
    -- Stationary point found.
 Normal termination of Gaussian 16 at Fri Dec 11 00:00:12 2020.

 --------------------------------------------------------------------
 #N Geom=AllCheck Guess=TCheck SCRF=Check GenChk RB3LYP/6-31G(d) Freq
 --------------------------------------------------------------------

 Structure from the checkpoint file:  "JID_6619.chk"
 -------------------------------
 CID_149703273_JID_6619_neutraal
 -------------------------------
 Charge =  0 Multiplicity = 1

 SCF Done:  E(RB3LYP) =  -1106.81405068     A.U. after    1 cycles

  Exact polarizability: 144.923  16.553 139.066  15.542  -6.332 119.302
 Approx polarizability: 206.698  23.724 225.504  28.776 -19.424 204.977

                      1                      2                      3
                      A                      A                      A
 Frequencies --     48.3338                78.9378                92.4983
 Red. masses --      5.4565                 4.6389                 6.2107
 Frc consts  --      0.0075                 0.0170                 0.0313
 IR Inten    --      0.4459                 0.9526                 2.7675

                      4                      5                      6
                      A                      A                      A
 Frequencies --    128.4093               161.7068               192.1328
 Red. masses --      4.1195                 6.4625                 4.3711
 Frc consts  --      0.0400                 0.0996                 0.0951
 IR Inten    --      0.7752                 1.1345                 1.2272

                      7                      8                      9
                      A                      A                      A
 Frequencies --    219.0629               230.6724               276.4608
 Red. masses --      4.6682                 3.6970                 2.8574
 Frc consts  --      0.1320                 0.1159                 0.1287
 IR Inten    --      2.1884                 2.2692                20.2198

                     10                     11                     12
                      A                      A                      A
 Frequencies --    292.7780               304.0157               355.6509
 Red. masses --      3.1023                 1.7494                 2.4209
 Frc consts  --      0.1567                 0.0953                 0.1804
 IR Inten    --      2.9195                38.2267                 1.4178

                     13                     14                     15
                      A                      A                      A
 Frequencies --    359.8747               421.0196               423.5904
 Red. masses --      2.4753                 3.2750                 3.4208
 Frc consts  --      0.1889                 0.3420                 0.3616
 IR Inten    --      8.4789                 3.5654                 1.6375

                     16                     17                     18
                      A                      A                      A
 Frequencies --    434.2913               454.5028               480.2623
 Red. masses --      4.2239                 4.5416                 3.9327
 Frc consts  --      0.4694                 0.5528                 0.5344
 IR Inten    --      2.6058                29.5201                 8.2970

                     19                     20                     21
                      A                      A                      A
 Frequencies --    486.5204               519.7286               531.2534
 Red. masses --      4.9030                 2.7063                 4.2751
 Frc consts  --      0.6838                 0.4307                 0.7109
 IR Inten    --     13.0940                 1.6710                 4.6780

                     22                     23                     24
                      A                      A                      A
 Frequencies --    614.1312               636.0885               651.5903
 Red. masses --      4.3235                 6.3705                 5.3189
 Frc consts  --      0.9607                 1.5187                 1.3305
 IR Inten    --     20.8252                 0.0974                17.8502

                     25                     26                     27
                      A                      A                      A
 Frequencies --    694.5798               716.2524               743.1041
 Red. masses --      2.7263                 2.4635                 2.0820
 Frc consts  --      0.7749                 0.7446                 0.6774
 IR Inten    --    129.7165                16.6459                28.3192

                     28                     29                     30
                      A                      A                      A
 Frequencies --    765.1856               806.8628               846.0927
 Red. masses --      2.2192                 1.8528                 3.6084
 Frc consts  --      0.7656                 0.7107                 1.5219
 IR Inten    --     55.5966                 6.3138                 2.1916

                     31                     32                     33
                      A                      A                      A
 Frequencies --    869.4571               888.3482               910.4454
 Red. masses --      1.2838                 2.1678                 2.4924
 Frc consts  --      0.5718                 1.0079                 1.2172
 IR Inten    --      5.8900                29.9139                62.0835

                     34                     35                     36
                      A                      A                      A
 Frequencies --    916.6129               923.6900               962.7470
 Red. masses --      2.4143                 1.6696                 2.0678
 Frc consts  --      1.1951                 0.8393                 1.1292
 IR Inten    --      1.2455                 9.8356                 2.9575

                     37                     38                     39
                      A                      A                      A
 Frequencies --    982.3693              1006.9728              1023.4667
 Red. masses --      1.3432                 1.2828                 5.8466
 Frc consts  --      0.7637                 0.7664                 3.6083
 IR Inten    --      0.2425                 1.3502                 1.4838

                     40                     41                     42
                      A                      A                      A
 Frequencies --   1029.6496              1062.4130              1062.8908
 Red. masses --      2.2037                 2.4304                 2.1847
 Frc consts  --      1.3765                 1.6163                 1.4542
 IR Inten    --      7.6635                19.6677                 8.8414

                     43                     44                     45
                      A                      A                      A
 Frequencies --   1089.8632              1097.7111              1104.5317
 Red. masses --      1.6835                 2.5437                 2.6606
 Frc consts  --      1.1782                 1.8059                 1.9124
 IR Inten    --     17.3140                54.8329                67.2173

                     46                     47                     48
                      A                      A                      A
 Frequencies --   1124.5937              1130.8053              1149.3877
 Red. masses --      1.5794                 1.9647                 2.7314
 Frc consts  --      1.1769                 1.4802                 2.1260
 IR Inten    --      4.7392                91.5278                16.5290

                     49                     50                     51
                      A                      A                      A
 Frequencies --   1193.7024              1203.7092              1221.7998
 Red. masses --      1.1307                 1.8017                 1.1560
 Frc consts  --      0.9492                 1.5380                 1.0167
 IR Inten    --      0.6062                 7.1380                 1.7115

                     52                     53                     54
                      A                      A                      A
 Frequencies --   1254.6611              1268.5787              1283.4836
 Red. masses --      1.9299                 1.2913                 1.1927
 Frc consts  --      1.7899                 1.2243                 1.1576
 IR Inten    --     38.1669                 6.7069                 1.9859

                     55                     56                     57
                      A                      A                      A
 Frequencies --   1326.8739              1335.7000              1338.7093
 Red. masses --      4.5753                 1.9403                 1.3662
 Frc consts  --      4.7460                 2.0395                 1.4426
 IR Inten    --    159.1856                 0.8397                 9.4244

                     58                     59                     60
                      A                      A                      A
 Frequencies --   1350.7495              1367.9231              1374.2918
 Red. masses --      1.7689                 1.8767                 1.4484
 Frc consts  --      1.9015                 2.0691                 1.6117
 IR Inten    --     15.6770                 7.2164                17.7643

                     61                     62                     63
                      A                      A                      A
 Frequencies --   1381.1974              1393.2052              1410.6373
 Red. masses --      1.3744                 1.3522                 1.4189
 Frc consts  --      1.5448                 1.5465                 1.6635
 IR Inten    --      2.8059                19.5964                 0.3937

                     64                     65                     66
                      A                      A                      A
 Frequencies --   1436.8657              1495.4617              1503.3926
 Red. masses --      1.3064                 2.1788                 1.0947
 Frc consts  --      1.5891                 2.8709                 1.4577
 IR Inten    --      3.8822                 7.9895                 5.9715

                     67                     68                     69
                      A                      A                      A
 Frequencies --   1514.9993              1537.0245              1547.4233
 Red. masses --      1.1012                 1.0875                 2.1014
 Frc consts  --      1.4892                 1.5138                 2.9646
 IR Inten    --     18.0489                 1.3938                 9.2487

                     70                     71                     72
                      A                      A                      A
 Frequencies --   1611.1282              1642.9606              1664.9448
 Red. masses --      1.1031                 5.3320                 5.4573
 Frc consts  --      1.6870                 8.4799                 8.9131
 IR Inten    --     23.9046                 0.5893                 2.5429

                     73                     74                     75
                      A                      A                      A
 Frequencies --   3046.7843              3057.7230              3066.8504
 Red. masses --      1.0834                 1.0685                 1.0757
 Frc consts  --      5.9252                 5.8860                 5.9609
 IR Inten    --     18.2941                16.1946                18.0795

                     76                     77                     78
                      A                      A                      A
 Frequencies --   3078.7402              3080.0939              3115.7994
 Red. masses --      1.0778                 1.0599                 1.0976
 Frc consts  --      6.0190                 5.9245                 6.2780
 IR Inten    --     28.0124                18.5563                11.8268

                     79                     80                     81
                      A                      A                      A
 Frequencies --   3130.6143              3143.3826              3186.4654
 Red. masses --      1.1094                 1.0929                 1.0856
 Frc consts  --      6.4059                 6.3627                 6.4942
 IR Inten    --     30.0997                 6.2622                 0.7414

                     82                     83                     84
                      A                      A                      A
 Frequencies --   3196.9151              3209.7385              3225.2137
 Red. masses --      1.0898                 1.0951                 1.0925
 Frc consts  --      6.5626                 6.6471                 6.6953
 IR Inten    --     14.2365                26.5623                 6.6219

                     85                     86                     87
                      A                      A                      A
 Frequencies --   3235.7348              3481.1021              3594.8580
 Red. masses --      1.0914                 1.0469                 1.0983
 Frc consts  --      6.7323                 7.4749                 8.3623
 IR Inten    --      3.3104                46.5152                75.5024

 - Thermochemistry -
 -------------------
 Temperature   298.150 Kelvin.  Pressure   1.00000 Atm.
 Atom     1 has atomic number  6 and mass  12.00000

 Molecular mass:   241.07727 amu.
 Principal axes and moments of inertia in atomic units:
                           1         2         3
     Eigenvalues --  2500.518883965.968735086.88959
           X            0.99847   0.05451   0.00930
           Y           -0.05447   0.99851  -0.00455
           Z           -0.00954   0.00404   0.99995
 This molecule is an asymmetric top.
 Rotational symmetry number  1.
 Warning -- assumption of classical behavior for rotation
           may cause significant error
 Rotational temperatures (Kelvin)      0.03464     0.02184     0.01703
 Rotational constants (GHZ):           0.72175     0.45506     0.35478
 Zero-point vibrational energy     674759.5 (Joules/Mol)
                                  161.27140 (Kcal/Mol)
 Warning -- explicit consideration of  22 degrees of freedom as
           vibrations may cause significant error
 Vibrational temperatures:     69.54   113.57   133.08   184.75   232.66
          (Kelvin)            276.44   315.18   331.89   397.77   421.24
                              437.41   511.70   517.78   605.75   609.45
                              624.85   653.93   690.99   699.99   747.77
                              764.36   883.60   915.19   937.49   999.35
                             1030.53  1069.16  1100.93  1160.90  1217.34
                             1250.95  1278.13  1309.93  1318.80  1328.98
                             1385.18  1413.41  1448.81  1472.54  1481.44
                             1528.58  1529.26  1568.07  1579.36  1589.17
                             1618.04  1626.98  1653.71  1717.47  1731.87
                             1757.90  1805.18  1825.20  1846.65  1909.08
                             1921.77  1926.10  1943.43  1968.14  1977.30
                             1987.24  2004.51  2029.59  2067.33  2151.64
                             2163.05  2179.75  2211.44  2226.40  2318.05
                             2363.85  2395.48  4383.64  4399.38  4412.51
                             4429.62  4431.57  4482.94  4504.26  4522.63
                             4584.61  4599.65  4618.10  4640.36  4655.50
                             5008.53  5172.20

 Zero-point correction=                           0.257002 (Hartree/Particle)
 Thermal correction to Energy=                    0.270952
 Thermal correction to Enthalpy=                  0.271896
 Thermal correction to Gibbs Free Energy=         0.216753
 Sum of electronic and zero-point Energies=          -1106.557048
 Sum of electronic and thermal Energies=             -1106.543098
 Sum of electronic and thermal Enthalpies=           -1106.542154
 Sum of electronic and thermal Free Energies=        -1106.597298

                     E (Thermal)             CV                S
                      KCal/Mol        Cal/Mol-Kelvin    Cal/Mol-Kelvin
 Total                  170.025             56.426            116.060
 Electronic               0.000              0.000              0.000
 Translational            0.889              2.981             42.341
 Rotational               0.889              2.981             32.289
 Vibrational            168.248             50.464             41.430
 Vibration     1          0.595              1.978              4.884
 Vibration     2          0.600              1.963              3.917
 Vibration     3          0.602              1.955              3.607
 Vibration     4          0.611              1.925              2.970
 Vibration     5          0.622              1.889              2.530
 Vibration     6          0.634              1.851              2.207
 Vibration     7          0.647              1.812              1.967
 Vibration     8          0.652              1.794              1.874
 Vibration     9          0.678              1.717              1.555
 Vibration    10          0.688              1.687              1.458
 Vibration    11          0.695              1.666              1.395
 Vibration    12          0.731              1.564              1.141
 Vibration    13          0.734              1.555              1.123
 Vibration    14          0.784              1.425              0.889
 Vibration    15          0.786              1.419              0.880
 Vibration    16          0.795              1.395              0.845
 Vibration    17          0.813              1.351              0.782
 Vibration    18          0.837              1.294              0.709
 Vibration    19          0.843              1.280              0.693
 Vibration    20          0.875              1.206              0.611
 Vibration    21          0.886              1.181              0.584
 Vibration    22          0.974              1.002              0.426

 Optimization completed.
    -- Stationary point found.
 Normal termination of Gaussian 16 at Fri Dec 11 00:13:32 2020.

 ----------------------------------------------------------------------
 # B3LYP/6-311++G(d,p) empiricaldispersion=gd3bj scf=xqc pop=npa geom=c
 heck
 ----------------------------------------------------------------------

 ---------------------------------------
 CID_149703273_JID_6619_Energie_neutraal
 ---------------------------------------
 Structure from the checkpoint file:  "JID_6619.chk"
 Charge =  0 Multiplicity = 1

 SCF Done:  E(RB3LYP) =  -1107.04480263     A.U. after   16 cycles
 Normal termination of Gaussian 16 at Fri Dec 11 00:20:01 2020.

 ----------------------------------------------------------------------
 # B3LYP/6-311++G(d,p) empiricaldispersion=gd3bj scf=xqc pop=npa geom=c
 heck
 ----------------------------------------------------------------------

 -------------------------------------
 CID_149703273_JID_6619_Energie_kation
 -------------------------------------
 Structure from the checkpoint file:  "JID_6619.chk"
 Charge =  1 Multiplicity = 2

 SCF Done:  E(UB3LYP) =  -1106.71787956     A.U. after   27 cycles
 Normal termination of Gaussian 16 at Fri Dec 11 00:35:29 2020.
 Gaussian 16:  ES64L-G16RevA.03 25-Dec-2016

 ----------------------------------------------------------------------
 # B3LYP/6-311++G(d,p) empiricaldispersion=gd3bj scf=xqc pop=npa geom=c
 heck
 ----------------------------------------------------------------------

 ------------------------------------
 CID_149703273_JID_6619_Energie_anion
 ------------------------------------
 Structure from the checkpoint file:  "JID_6619.chk"
 Charge = -1 Multiplicity = 2

                         Standard orientation:
 ---------------------------------------------------------------------
 Center     Atomic      Atomic             Coordinates (Angstroms)
 Number     Number       Type             X           Y           Z
 ---------------------------------------------------------------------
      1          6           0        1.979382    1.586304   -0.602967
      2          6           0        0.608254    2.105579   -1.028977
      3          8           0       -0.153965    2.565922    0.091317
      4          6           0       -0.445536    1.546491    1.048855
      5          6           0        0.863528    0.940799    1.587220
      6          6           0        1.876517    0.533843    0.508515
      7         16           0        1.704132   -1.175936   -0.128968
      8          8           0        2.935556   -1.462084   -0.876295
      9          8           0        1.294120   -2.022425    1.000324
     10          7           0        0.489904   -1.121633   -1.307520
     11          6           0       -1.483350    0.551211    0.534107
     12          6           0       -2.341706    0.932220   -0.504928
     13          6           0       -3.300730    0.050948   -1.000106
     14          6           0       -3.429255   -1.227642   -0.453816
     15          6           0       -2.601697   -1.605968    0.604015
     16          6           0       -1.640831   -0.720412    1.099382
     17          1           0        2.565188    2.421306   -0.200001
     18          1           0        2.527597    1.187844   -1.462431
     19          1           0        0.717166    2.977870   -1.679121
     20          1           0        0.063488    1.327937   -1.573072
     21          1           0       -0.906694    2.097955    1.877522
     22          1           0        0.681102    0.108332    2.269222
     23          1           0        1.352010    1.728161    2.172716
     24          1           0        2.855721    0.416868    0.987215
     25          1           0        0.789159   -1.712783   -2.080774
     26          1           0       -0.407080   -1.420975   -0.926764
     27          1           0       -2.238616    1.925045   -0.928646
     28          1           0       -3.946885    0.361930   -1.816340
     29          1           0       -4.171200   -1.918897   -0.843200
     30          1           0       -2.694910   -2.593778    1.046180
     31          1           0       -0.994639   -1.051953    1.903059
 ---------------------------------------------------------------------

 SCF Done:  E(UB3LYP) =  -1107.03670083     A.U. after   33 cycles
 SCF Done:  E(UB3LYP) =  -1107.03670083     a.u. after    1 cycles

 The electronic state is 2-A.
 Alpha  occ. eigenvalues --  -88.96325 -19.02527 -19.02086 -19.01934 -14.24441
 Alpha  occ. eigenvalues --  -10.12910 -10.12200 -10.11494 -10.08438 -10.08179
 Alpha  occ. eigenvalues --  -10.07732 -10.07683 -10.07670 -10.07313 -10.07305
 Alpha  occ. eigenvalues --  -10.07001  -8.02574  -5.98881  -5.98819  -5.98608
 Alpha  occ. eigenvalues --   -1.02098  -0.93893  -0.91198  -0.81382  -0.75995
 Alpha  occ. eigenvalues --   -0.73049  -0.68866  -0.64847  -0.64311  -0.59565
 Alpha  occ. eigenvalues --   -0.55683  -0.53688  -0.50739  -0.49863  -0.46150
 Alpha  occ. eigenvalues --   -0.43737  -0.42504  -0.41722  -0.40192  -0.39002
 Alpha  occ. eigenvalues --   -0.38228  -0.36235  -0.35919  -0.34866  -0.34302
 Alpha  occ. eigenvalues --   -0.33491  -0.32313  -0.31716  -0.30576  -0.28736
 Alpha  occ. eigenvalues --   -0.27882  -0.27030  -0.26261  -0.25653  -0.24979
 Alpha  occ. eigenvalues --   -0.24104  -0.22739  -0.22113  -0.21005  -0.20141
 Alpha  occ. eigenvalues --   -0.19620  -0.16434  -0.15933  -0.15152   0.04150
 Alpha virt. eigenvalues --    0.06189   0.07013   0.07693   0.07897   0.08063
 Alpha virt. eigenvalues --    0.08612   0.08851   0.09682   0.10744   0.10971
 Alpha virt. eigenvalues --    0.11326   0.12172   0.13102   0.13522   0.14237

  Beta  occ. eigenvalues --  -88.96322 -19.02520 -19.02083 -19.01927 -14.24415
  Beta  occ. eigenvalues --  -10.12912 -10.12191 -10.11485 -10.08418 -10.08143
  Beta  occ. eigenvalues --  -10.07666 -10.07663 -10.07633 -10.07297 -10.07226
  Beta  occ. eigenvalues --  -10.06973  -8.02572  -5.98875  -5.98816  -5.98603
  Beta  occ. eigenvalues --   -1.02084  -0.93871  -0.91189  -0.81339  -0.75880
  Beta  occ. eigenvalues --   -0.73003  -0.68774  -0.64759  -0.64190  -0.59511
  Beta  occ. eigenvalues --   -0.55621  -0.53622  -0.50692  -0.49737  -0.46089
  Beta  occ. eigenvalues --   -0.43688  -0.42435  -0.41656  -0.40165  -0.38944
  Beta  occ. eigenvalues --   -0.38175  -0.36181  -0.35870  -0.34817  -0.34242
  Beta  occ. eigenvalues --   -0.33445  -0.32282  -0.31645  -0.30506  -0.28687
  Beta  occ. eigenvalues --   -0.27825  -0.26887  -0.26187  -0.25573  -0.24932
  Beta  occ. eigenvalues --   -0.24056  -0.22716  -0.22086  -0.20974  -0.20089
  Beta  occ. eigenvalues --   -0.19597  -0.16368  -0.15750  -0.14716
  Beta virt. eigenvalues --    0.06359   0.07100   0.07665   0.08044   0.08102
  Beta virt. eigenvalues --    0.08636   0.09110   0.09321   0.10209   0.11025
  Beta virt. eigenvalues --    0.11303   0.11690   0.12454   0.13073   0.13821

 Mulliken charges and spin densities:
               1          2
     1  C    0.139361  -0.640181
     2  C   -0.034167  -0.206596
     3  O   -0.032641   0.018826
     4  C    0.937544  -1.608845
     5  C    0.775989  -1.112446
     6  C   -0.775961   0.517108
     7  S    1.328040  -0.932043
     8  O   -0.220446   0.027661
     9  O   -0.145588   0.010161
    10  N   -0.549285   0.066147
    11  C    0.257725   0.485177
    12  C    0.276690  -0.076890
    13  C   -0.869934   0.429269
    14  C    0.860559  -1.005590
    15  C   -0.322024  -0.066029
    16  C   -1.461780   0.775587
    17  H   -0.272836   0.455138
    18  H    0.028108   0.152223
    19  H   -0.170781   0.359773
    20  H    0.235876  -0.056452
    21  H   -0.355760   0.607219
    22  H    0.115975   0.073975
    23  H   -0.515187   0.736889
    24  H   -0.099027   0.404827
    25  H    0.129956   0.205866
    26  H    0.286834   0.012589
    27  H    0.063048   0.125573
    28  H   -0.356182   0.519737
    29  H   -0.237392   0.387958
    30  H   -0.082354   0.255079
    31  H    0.065640   0.078292
 Sum of Mulliken charges =  -1.00000   1.00000

 Dipole moment (field-independent basis, Debye):
    X=             -0.4353    Y=             -1.5422    Z=             -2.1739  Tot=              2.7007
 Quadrupole moment (field-independent basis, Debye-Ang):
   XX=           -163.5000   YY=           -151.6803   ZZ=           -135.9976
   XY=             -0.6900   XZ=             -5.1900   YZ=             -6.9905

 Summary of Natural Population Analysis:

                                       Natural Population
                Natural  -----------------------------------------------
    Atom  No    Charge         Core      Valence    Rydberg      Total
 -----------------------------------------------------------------------
      C    1   -0.21227      0.99959     2.20275    0.00993     3.21227
      C    2   -0.01657      0.99955     2.00499    0.01203     3.01657
      O    3   -0.30263      0.99989     3.29374    0.00900     4.30263
      C    4    0.06040      0.99950     1.92250    0.01761     2.93960
      C    5   -0.21116      0.99958     2.19970    0.01188     3.21116
      C    6   -0.19577      0.99952     2.17946    0.01678     3.19577
      S    7    1.08833      4.99927     1.81401    0.09839     6.91167
      O    8   -0.47300      0.99991     3.46784    0.00525     4.47300
      O    9   -0.46546      0.99991     3.46024    0.00531     4.46546
      N   10   -0.51976      0.99978     3.00966    0.01033     4.01976
      C   11   -0.01971      0.99948     2.00814    0.01208     3.01971
      C   12   -0.09586      0.99950     2.08667    0.00969     3.09586
      C   13   -0.10195      0.99956     2.09168    0.01072     3.10195
      C   14   -0.09648      0.99956     2.08656    0.01036     3.09648
      C   15   -0.10437      0.99956     2.09486    0.00995     3.10437
      C   16   -0.11270      0.99951     2.10344    0.00976     3.11270
      H   17    0.10759      0.00000     0.39071    0.00170     0.39241
      H   18    0.11116      0.00000     0.38769    0.00115     0.38884
      H   19    0.09112      0.00000     0.40777    0.00111     0.40888
      H   20    0.09314      0.00000     0.40468    0.00218     0.40686
      H   21    0.10564      0.00000     0.39187    0.00249     0.39436
      H   22    0.11486      0.00000     0.38359    0.00155     0.38514
      H   23    0.11382      0.00000     0.38304    0.00314     0.38618
      H   24    0.12275      0.00000     0.37570    0.00155     0.37725
      H   25    0.19664      0.00000     0.30137    0.00200     0.30336
      H   26    0.20520      0.00000     0.29237    0.00242     0.29480
      H   27    0.10791      0.00000     0.39049    0.00160     0.39209
      H   28    0.09945      0.00000     0.39965    0.00090     0.40055
      H   29    0.09959      0.00000     0.39943    0.00098     0.40041
      H   30    0.10079      0.00000     0.39837    0.00084     0.39921
      H   31    0.10929      0.00000     0.38942    0.00129     0.39071
 =======================================================================
   * Total *    0.00000     19.99368    43.72238    0.28395    64.00000

 Normal termination of Gaussian 16 at Fri Dec 11 00:54:32 2020.
