 Gaussian 16, Revision A.03,

 -----------------------------------------------------------
 # opt freq B3LYP/6-31G(d) empiricaldispersion=gd3bj scf=xqc
 -----------------------------------------------------------

 ------------------------------
 CID_83153952_JID_1777_neutraal
 ------------------------------
 Symbolic Z-matrix:
 Charge =  0 Multiplicity = 1

 SCF Done:  E(RB3LYP) =  -855.663961725     A.U. after   14 cycles
 SCF Done:  E(RB3LYP) =  -855.670172999     A.U. after   12 cycles
 SCF Done:  E(RB3LYP) =  -855.671301088     A.U. after   11 cycles
 SCF Done:  E(RB3LYP) =  -855.671371984     A.U. after   10 cycles
 SCF Done:  E(RB3LYP) =  -855.671391680     A.U. after   10 cycles
 SCF Done:  E(RB3LYP) =  -855.671396053     A.U. after   10 cycles
 SCF Done:  E(RB3LYP) =  -855.671398243     A.U. after    9 cycles
 SCF Done:  E(RB3LYP) =  -855.671398940     A.U. after    8 cycles
 SCF Done:  E(RB3LYP) =  -855.671399136     A.U. after    8 cycles
 SCF Done:  E(RB3LYP) =  -855.671399216     A.U. after    8 cycles
 SCF Done:  E(RB3LYP) =  -855.671399219     A.U. after    8 cycles
 SCF Done:  E(RB3LYP) =  -855.671399207     A.U. after    7 cycles
 Optimization completed.
    -- Stationary point found.
 Normal termination of Gaussian 16 at Tue Dec  8 21:09:09 2020.

 --------------------------------------------------------------------
 #N Geom=AllCheck Guess=TCheck SCRF=Check GenChk RB3LYP/6-31G(d) Freq
 --------------------------------------------------------------------

 Structure from the checkpoint file:  "JID_1777.chk"
 ------------------------------
 CID_83153952_JID_1777_neutraal
 ------------------------------
 Charge =  0 Multiplicity = 1

 SCF Done:  E(RB3LYP) =  -855.671399207     A.U. after    1 cycles

  Exact polarizability: 134.046 -12.247  82.252   7.897  -6.465  90.117
 Approx polarizability: 187.962 -26.893 118.855  18.803 -20.744 153.236

                      1                      2                      3
                      A                      A                      A
 Frequencies --     30.9094                79.2723                86.3634
 Red. masses --      4.7812                 5.2805                 2.6476
 Frc consts  --      0.0027                 0.0196                 0.0116
 IR Inten    --      0.8973                 0.1849                 0.4481

                      4                      5                      6
                      A                      A                      A
 Frequencies --    143.3882               184.7634               229.1365
 Red. masses --      4.8008                 6.4088                 1.2551
 Frc consts  --      0.0582                 0.1289                 0.0388
 IR Inten    --      0.5295                 0.5088                 0.1055

                      7                      8                      9
                      A                      A                      A
 Frequencies --    242.5188               284.7381               341.4451
 Red. masses --      1.9774                 3.8249                 5.1658
 Frc consts  --      0.0685                 0.1827                 0.3548
 IR Inten    --      0.1468                 0.0980                 0.6433

                     10                     11                     12
                      A                      A                      A
 Frequencies --    400.9521               448.2032               491.0176
 Red. masses --      4.0582                 3.1637                 2.8401
 Frc consts  --      0.3844                 0.3745                 0.4034
 IR Inten    --      1.5428                 8.0803                27.2762

                     13                     14                     15
                      A                      A                      A
 Frequencies --    505.8792               565.7128               669.4870
 Red. masses --      1.7383                 4.7753                 4.7725
 Frc consts  --      0.2621                 0.9004                 1.2603
 IR Inten    --     70.1049                 2.9419                 6.3016

                     16                     17                     18
                      A                      A                      A
 Frequencies --    686.8750               754.9348               778.6407
 Red. masses --      3.7020                 5.0496                 1.4935
 Frc consts  --      1.0291                 1.6956                 0.5335
 IR Inten    --      2.5836                 4.2297                 3.4314

                     19                     20                     21
                      A                      A                      A
 Frequencies --    827.4104               841.3368               927.3705
 Red. masses --      1.4992                 1.2132                 2.3751
 Frc consts  --      0.6047                 0.5059                 1.2035
 IR Inten    --      2.6852                 7.4587                 3.6747

                     22                     23                     24
                      A                      A                      A
 Frequencies --    947.7939               961.5479               979.8337
 Red. masses --      3.4110                 9.4000                 7.5489
 Frc consts  --      1.8053                 5.1206                 4.2701
 IR Inten    --      4.3495                93.8409                 4.1817

                     25                     26                     27
                      A                      A                      A
 Frequencies --   1013.0666              1066.1676              1073.2474
 Red. masses --      1.8260                 2.9706                 1.5844
 Frc consts  --      1.1042                 1.9895                 1.0753
 IR Inten    --     23.2034                41.1368                16.5724

                     28                     29                     30
                      A                      A                      A
 Frequencies --   1091.5886              1095.3367              1121.6183
 Red. masses --      1.4568                 1.4786                 2.4575
 Frc consts  --      1.0228                 1.0452                 1.8215
 IR Inten    --      3.4315                 8.2852                10.4227

                     31                     32                     33
                      A                      A                      A
 Frequencies --   1140.5525              1156.6506              1176.9920
 Red. masses --      1.2075                 1.4923                 5.5993
 Frc consts  --      0.9255                 1.1763                 4.5702
 IR Inten    --      3.9629                 6.1944               126.2848

                     34                     35                     36
                      A                      A                      A
 Frequencies --   1212.6933              1251.4042              1282.0678
 Red. masses --      1.3968                 1.9253                 2.1051
 Frc consts  --      1.2103                 1.7764                 2.0386
 IR Inten    --      1.3941                 2.5220                61.2832

                     37                     38                     39
                      A                      A                      A
 Frequencies --   1336.3544              1346.0015              1358.1195
 Red. masses --      1.3751                 3.4187                 1.7503
 Frc consts  --      1.4469                 3.6492                 1.9021
 IR Inten    --      6.6429                78.2143                 4.9000

                     40                     41                     42
                      A                      A                      A
 Frequencies --   1418.8195              1442.5654              1501.5388
 Red. masses --      1.5680                 1.2535                 1.0910
 Frc consts  --      1.8597                 1.5369                 1.4493
 IR Inten    --      9.2125                 2.2574                 2.8833

                     43                     44                     45
                      A                      A                      A
 Frequencies --   1511.2620              1526.0780              1530.2004
 Red. masses --      2.8079                 1.0435                 1.0720
 Frc consts  --      3.7784                 1.4319                 1.4789
 IR Inten    --    438.1594                 4.0577                 0.9670

                     46                     47                     48
                      A                      A                      A
 Frequencies --   1542.1491              1673.2414              3064.2818
 Red. masses --      1.3538                 8.8988                 1.0359
 Frc consts  --      1.8970                14.6791                 5.7312
 IR Inten    --      6.1974                34.7819                19.3244

                     49                     50                     51
                      A                      A                      A
 Frequencies --   3064.8804              3133.6165              3146.9685
 Red. masses --      1.0827                 1.1034                 1.1019
 Frc consts  --      5.9923                 6.3837                 6.4297
 IR Inten    --      9.3634                22.3126                 9.3847

                     52                     53                     54
                      A                      A                      A
 Frequencies --   3150.2878              3152.8984              3161.2624
 Red. masses --      1.0620                 1.0772                 1.0606
 Frc consts  --      6.2095                 6.3093                 6.2451
 IR Inten    --     19.2164                20.1591                 9.8683

                     55                     56                     57
                      A                      A                      A
 Frequencies --   3226.7262              3244.1526              3683.7463
 Red. masses --      1.1187                 1.1158                 1.0823
 Frc consts  --      6.8626                 6.9188                 8.6528
 IR Inten    --      6.0094                14.4645               112.8109

 - Thermochemistry -
 -------------------
 Temperature   298.150 Kelvin.  Pressure   1.00000 Atm.
 Atom     1 has atomic number  6 and mass  12.00000

 Molecular mass:   170.05138 amu.
 Principal axes and moments of inertia in atomic units:
                           1         2         3
     Eigenvalues --  1063.682663039.556733177.13942
           X            0.99981   0.01063  -0.01603
           Y           -0.00776   0.98549   0.16956
           Z            0.01760  -0.16941   0.98539
 This molecule is an asymmetric top.
 Rotational symmetry number  1.
 Warning -- assumption of classical behavior for rotation
           may cause significant error
 Rotational temperatures (Kelvin)      0.08143     0.02850     0.02726
 Rotational constants (GHZ):           1.69669     0.59375     0.56804
 Zero-point vibrational energy     444449.0 (Joules/Mol)
                                  106.22586 (Kcal/Mol)
 Warning -- explicit consideration of  14 degrees of freedom as
           vibrations may cause significant error
 Vibrational temperatures:     44.47   114.06   124.26   206.30   265.83
          (Kelvin)            329.68   348.93   409.67   491.26   576.88
                              644.86   706.46   727.85   813.93   963.24
                              988.26  1086.18  1120.29  1190.46  1210.50
                             1334.28  1363.66  1383.45  1409.76  1457.58
                             1533.98  1544.16  1570.55  1575.95  1613.76
                             1641.00  1664.16  1693.43  1744.80  1800.49
                             1844.61  1922.72  1936.60  1954.03  2041.36
                             2075.53  2160.38  2174.37  2195.69  2201.62
                             2218.81  2407.42  4408.82  4409.68  4508.58
                             4527.79  4532.56  4536.32  4548.35  4642.54
                             4667.61  5300.09

 Zero-point correction=                           0.169282 (Hartree/Particle)
 Thermal correction to Energy=                    0.179861
 Thermal correction to Enthalpy=                  0.180806
 Thermal correction to Gibbs Free Energy=         0.131762
 Sum of electronic and zero-point Energies=           -855.502118
 Sum of electronic and thermal Energies=              -855.491538
 Sum of electronic and thermal Enthalpies=            -855.490594
 Sum of electronic and thermal Free Energies=         -855.539637

                     E (Thermal)             CV                S
                      KCal/Mol        Cal/Mol-Kelvin    Cal/Mol-Kelvin
 Total                  112.865             39.020            103.220
 Electronic               0.000              0.000              0.000
 Translational            0.889              2.981             41.301
 Rotational               0.889              2.981             30.708
 Vibrational            111.087             33.059             31.211
 Vibration     1          0.594              1.984              5.770
 Vibration     2          0.600              1.963              3.909
 Vibration     3          0.601              1.959              3.741
 Vibration     4          0.616              1.910              2.758
 Vibration     5          0.631              1.861              2.280
 Vibration     6          0.652              1.797              1.886
 Vibration     7          0.659              1.775              1.784
 Vibration     8          0.683              1.702              1.505
 Vibration     9          0.721              1.593              1.205
 Vibration    10          0.767              1.468              0.959
 Vibration    11          0.807              1.365              0.801
 Vibration    12          0.847              1.270              0.681
 Vibration    13          0.861              1.237              0.644
 Vibration    14          0.922              1.105              0.513

 Optimization completed.
    -- Stationary point found.
 Normal termination of Gaussian 16 at Tue Dec  8 21:14:11 2020.

 ----------------------------------------------------------------------
 # B3LYP/6-311++G(d,p) empiricaldispersion=gd3bj scf=xqc pop=npa geom=c
 heck
 ----------------------------------------------------------------------

 --------------------------------------
 CID_83153952_JID_1777_Energie_neutraal
 --------------------------------------
 Structure from the checkpoint file:  "JID_1777.chk"
 Charge =  0 Multiplicity = 1

 SCF Done:  E(RB3LYP) =  -855.823310302     A.U. after   14 cycles
 Normal termination of Gaussian 16 at Tue Dec  8 21:16:44 2020.

 ----------------------------------------------------------------------
 # B3LYP/6-311++G(d,p) empiricaldispersion=gd3bj scf=xqc pop=npa geom=c
 heck
 ----------------------------------------------------------------------

 ------------------------------------
 CID_83153952_JID_1777_Energie_kation
 ------------------------------------
 Structure from the checkpoint file:  "JID_1777.chk"
 Charge =  1 Multiplicity = 2

 SCF Done:  E(UB3LYP) =  -855.511957206     A.U. after   27 cycles
 Normal termination of Gaussian 16 at Tue Dec  8 21:23:08 2020.
 Gaussian 16:  ES64L-G16RevA.03 25-Dec-2016

 ----------------------------------------------------------------------
 # B3LYP/6-311++G(d,p) empiricaldispersion=gd3bj scf=xqc pop=npa geom=c
 heck
 ----------------------------------------------------------------------

 -----------------------------------
 CID_83153952_JID_1777_Energie_anion
 -----------------------------------
 Structure from the checkpoint file:  "JID_1777.chk"
 Charge = -1 Multiplicity = 2

                         Standard orientation:
 ---------------------------------------------------------------------
 Center     Atomic      Atomic             Coordinates (Angstroms)
 Number     Number       Type             X           Y           Z
 ---------------------------------------------------------------------
      1          6           0        1.787831   -1.720408   -1.250668
      2          6           0        1.683680   -0.923653    0.062825
      3          6           0        2.530703    0.349957   -0.000120
      4          6           0        2.040001    1.625586   -0.637977
      5          6           0        2.248470    1.555268    0.857006
      6          6           0        0.256373   -0.662409    0.408476
      7          7           0       -0.330971   -0.866413    1.540516
      8          7           0       -1.625719   -0.454740    1.304853
      9          6           0       -1.832942   -0.004549    0.043716
     10         16           0       -3.180982    0.581651   -0.689706
     11          8           0       -0.587409   -0.146331   -0.543439
     12          1           0        1.389609   -1.137812   -2.086032
     13          1           0        1.236814   -2.664450   -1.190782
     14          1           0        2.837537   -1.947699   -1.460663
     15          1           0        2.061295   -1.536002    0.890619
     16          1           0        3.581150    0.114819   -0.161612
     17          1           0        2.746485    2.198543   -1.231320
     18          1           0        1.020351    1.659567   -1.008300
     19          1           0        1.366582    1.533025    1.491632
     20          1           0        3.091813    2.083442    1.291985
     21          1           0       -2.324531   -0.509892    2.030149
 ---------------------------------------------------------------------

 SCF Done:  E(UB3LYP) =  -855.812397056     A.U. after   33 cycles
 SCF Done:  E(UB3LYP) =  -855.812397056     a.u. after    1 cycles

 The electronic state is 2-A.
 Alpha  occ. eigenvalues --  -88.70986 -19.11651 -14.30782 -14.27093 -10.21944
 Alpha  occ. eigenvalues --  -10.18557 -10.10739 -10.08591 -10.07356 -10.07297
 Alpha  occ. eigenvalues --  -10.07247  -7.79760  -5.76189  -5.75577  -5.75280
 Alpha  occ. eigenvalues --   -1.07432  -0.92230  -0.79774  -0.76490  -0.69051
 Alpha  occ. eigenvalues --   -0.65221  -0.58259  -0.55913  -0.54105  -0.50499
 Alpha  occ. eigenvalues --   -0.48878  -0.44928  -0.42572  -0.39986  -0.37902
 Alpha  occ. eigenvalues --   -0.36355  -0.34517  -0.31458  -0.30491  -0.30090
 Alpha  occ. eigenvalues --   -0.28830  -0.27570  -0.26588  -0.26086  -0.24700
 Alpha  occ. eigenvalues --   -0.22741  -0.20026  -0.19231  -0.13503  -0.13095
 Alpha  occ. eigenvalues --    0.04331
 Alpha virt. eigenvalues --    0.06222   0.06579   0.07518   0.08403   0.08856
 Alpha virt. eigenvalues --    0.09430   0.10656   0.11015   0.11298   0.12492
 Alpha virt. eigenvalues --    0.12666   0.13769   0.14697   0.15094   0.15871

  Beta  occ. eigenvalues --  -88.70984 -19.11595 -14.30737 -14.27097 -10.21885
  Beta  occ. eigenvalues --  -10.18515 -10.10734 -10.08563 -10.07337 -10.07284
  Beta  occ. eigenvalues --  -10.07217  -7.79757  -5.76189  -5.75572  -5.75279
  Beta  occ. eigenvalues --   -1.07342  -0.92161  -0.79693  -0.76451  -0.69009
  Beta  occ. eigenvalues --   -0.65144  -0.58178  -0.55831  -0.54035  -0.50439
  Beta  occ. eigenvalues --   -0.48805  -0.44851  -0.42427  -0.39904  -0.37841
  Beta  occ. eigenvalues --   -0.36292  -0.34453  -0.31411  -0.30431  -0.30021
  Beta  occ. eigenvalues --   -0.28724  -0.27522  -0.26541  -0.26015  -0.24665
  Beta  occ. eigenvalues --   -0.22589  -0.19992  -0.19193  -0.13492  -0.13026
  Beta virt. eigenvalues --    0.06945   0.07048   0.07926   0.08110   0.08797
  Beta virt. eigenvalues --    0.09189   0.10200   0.11041   0.11356   0.11532
  Beta virt. eigenvalues --    0.12615   0.13108   0.13759   0.14870   0.15130

 Mulliken charges and spin densities:
               1          2
     1  C    0.527829  -1.189897
     2  C   -0.265351   1.039395
     3  C    0.088106  -0.258409
     4  C    0.128651  -0.639805
     5  C    0.617768  -0.825981
     6  C    0.705635  -1.586119
     7  N   -0.028902   0.113463
     8  N    0.011664  -0.151379
     9  C    0.404240   0.040593
    10  S   -0.843803   0.000136
    11  O    0.107886   0.046997
    12  H    0.164282  -0.002099
    13  H   -0.070969   0.212146
    14  H   -0.475687   0.649721
    15  H   -0.335493   0.571219
    16  H   -0.912452   1.158981
    17  H   -0.077277   0.239526
    18  H    0.045454   0.101951
    19  H    0.171200  -0.033657
    20  H   -0.516692   0.691189
    21  H   -0.446091   0.822028
 Sum of Mulliken charges =  -1.00000   1.00000

 Dipole moment (field-independent basis, Debye):
    X=             -3.2870    Y=              0.7263    Z=             -1.3602  Tot=              3.6307
 Quadrupole moment (field-independent basis, Debye-Ang):
   XX=           -157.0838   YY=           -104.8195   ZZ=           -105.5354
   XY=              1.0811   XZ=              2.6801   YZ=              2.8234

 Summary of Natural Population Analysis:

                                       Natural Population
                Natural  -----------------------------------------------
    Atom  No    Charge         Core      Valence    Rydberg      Total
 -----------------------------------------------------------------------
      C    1   -0.27854      0.99965     2.27259    0.00631     3.27854
      C    2   -0.14092      0.99954     2.12919    0.01220     3.14092
      C    3   -0.10984      0.99958     2.09641    0.01384     3.10984
      C    4   -0.20205      0.99961     2.19352    0.00892     3.20205
      C    5   -0.19823      0.99962     2.18922    0.00939     3.19823
      C    6    0.28319      0.99956     1.69518    0.02208     2.71681
      N    7   -0.14972      0.99965     2.63840    0.01166     3.64972
      N    8   -0.20290      0.99962     2.68919    0.01409     3.70290
      C    9    0.17486      0.99965     1.80144    0.02405     2.82514
      S   10   -0.10307      4.99954     3.08920    0.01433     8.10307
      O   11   -0.24604      0.99984     3.23691    0.00929     4.24604
      H   12    0.10303      0.00000     0.39564    0.00133     0.39697
      H   13    0.10060      0.00000     0.39847    0.00094     0.39940
      H   14    0.10591      0.00000     0.39270    0.00139     0.39409
      H   15    0.11793      0.00000     0.37934    0.00273     0.38207
      H   16    0.11250      0.00000     0.38143    0.00607     0.38750
      H   17    0.10365      0.00000     0.39542    0.00094     0.39635
      H   18    0.10673      0.00000     0.39197    0.00130     0.39327
      H   19    0.10255      0.00000     0.39627    0.00118     0.39745
      H   20    0.10527      0.00000     0.39349    0.00123     0.39473
      H   21    0.21510      0.00000     0.27186    0.01304     0.28490
 =======================================================================
   * Total *   -0.00000     14.99586    29.82784    0.17630    45.00000

 Normal termination of Gaussian 16 at Tue Dec  8 21:30:40 2020.
