 Gaussian 16, Revision A.03,

 -----------------------------------------------------------
 # opt freq B3LYP/6-31G(d) empiricaldispersion=gd3bj scf=xqc
 -----------------------------------------------------------

 -----------------------------
 CID_96634655_JID_345_neutraal
 -----------------------------
 Symbolic Z-matrix:
 Charge =  0 Multiplicity = 1

 SCF Done:  E(RB3LYP) =  -836.268148849     A.U. after   15 cycles
 SCF Done:  E(RB3LYP) =  -836.273391547     A.U. after   12 cycles
 SCF Done:  E(RB3LYP) =  -836.274515864     A.U. after   12 cycles
 SCF Done:  E(RB3LYP) =  -836.275110641     A.U. after   12 cycles
 SCF Done:  E(RB3LYP) =  -836.275296421     A.U. after   11 cycles
 SCF Done:  E(RB3LYP) =  -836.275351792     A.U. after   12 cycles
 SCF Done:  E(RB3LYP) =  -836.275533792     A.U. after   11 cycles
 SCF Done:  E(RB3LYP) =  -836.275623291     A.U. after   11 cycles
 SCF Done:  E(RB3LYP) =  -836.275675821     A.U. after   11 cycles
 SCF Done:  E(RB3LYP) =  -836.275767477     A.U. after   11 cycles
 SCF Done:  E(RB3LYP) =  -836.275873620     A.U. after    7 cycles
 SCF Done:  E(RB3LYP) =  -836.275874320     A.U. after    8 cycles
 SCF Done:  E(RB3LYP) =  -836.275876121     A.U. after    9 cycles
 SCF Done:  E(RB3LYP) =  -836.275876738     A.U. after    8 cycles
 SCF Done:  E(RB3LYP) =  -836.275877323     A.U. after    8 cycles
 SCF Done:  E(RB3LYP) =  -836.275877555     A.U. after    8 cycles
 Optimization completed.
    -- Stationary point found.
 Normal termination of Gaussian 16 at Tue Dec  8 10:27:06 2020.

 --------------------------------------------------------------------
 #N Geom=AllCheck Guess=TCheck SCRF=Check GenChk RB3LYP/6-31G(d) Freq
 --------------------------------------------------------------------

 Structure from the checkpoint file:  "JID_345.chk"
 -----------------------------
 CID_96634655_JID_345_neutraal
 -----------------------------
 Charge =  0 Multiplicity = 1

 SCF Done:  E(RB3LYP) =  -836.275877555     A.U. after    1 cycles

  Exact polarizability: 123.250  -1.742 104.666  -1.070  -0.246  43.141
 Approx polarizability: 195.532  -0.457 174.660  -0.529  -0.795  67.213

                      1                      2                      3
                      A                      A                      A
 Frequencies --     60.1185                94.0872               143.3913
 Red. masses --      2.5628                 1.4514                 5.7175
 Frc consts  --      0.0055                 0.0076                 0.0693
 IR Inten    --      0.3400                 0.5433                 1.6291

                      4                      5                      6
                      A                      A                      A
 Frequencies --    156.2847               179.9025               197.9829
 Red. masses --      3.7165                 4.3234                 1.1271
 Frc consts  --      0.0535                 0.0824                 0.0260
 IR Inten    --      4.7066                 1.2359                41.6627

                      7                      8                      9
                      A                      A                      A
 Frequencies --    274.9646               314.8869               362.1540
 Red. masses --      3.1459                 4.2914                 4.9416
 Frc consts  --      0.1401                 0.2507                 0.3819
 IR Inten    --      1.3872                 4.4064                 4.0965

                     10                     11                     12
                      A                      A                      A
 Frequencies --    383.4434               491.8194               510.8362
 Red. masses --     10.6803                 6.7531                 6.7175
 Frc consts  --      0.9252                 0.9624                 1.0328
 IR Inten    --      3.2521                 1.3420                 6.2346

                     13                     14                     15
                      A                      A                      A
 Frequencies --    520.9034               548.7789               642.2710
 Red. masses --      3.9996                 2.1193                 1.5687
 Frc consts  --      0.6394                 0.3760                 0.3813
 IR Inten    --     21.4956                38.1099                79.1044

                     16                     17                     18
                      A                      A                      A
 Frequencies --    663.0269               686.8082               716.3262
 Red. masses --      4.3560                 3.4118                 3.6348
 Frc consts  --      1.1282                 0.9482                 1.0989
 IR Inten    --     81.6361                66.5754                37.7671

                     19                     20                     21
                      A                      A                      A
 Frequencies --    742.5736               782.9751               823.1940
 Red. masses --      1.7805                 3.9784                 1.7588
 Frc consts  --      0.5785                 1.4370                 0.7022
 IR Inten    --    132.7725               100.5318                28.9590

                     22                     23                     24
                      A                      A                      A
 Frequencies --    877.3245              1055.0508              1064.4688
 Red. masses --      3.4610                 1.3858                 2.2638
 Frc consts  --      1.5696                 0.9088                 1.5113
 IR Inten    --     10.9293                 1.2719                26.3477

                     25                     26                     27
                      A                      A                      A
 Frequencies --   1117.3728              1183.1630              1195.1678
 Red. masses --      1.5658                 2.8576                 1.6176
 Frc consts  --      1.1518                 2.3569                 1.3613
 IR Inten    --      5.0534               164.1654                55.3911

                     28                     29                     30
                      A                      A                      A
 Frequencies --   1208.6324              1298.1516              1370.8143
 Red. masses --      3.2829                 2.8605                 2.1638
 Frc consts  --      2.8255                 2.8402                 2.3956
 IR Inten    --    193.5239                38.1172                41.6401

                     31                     32                     33
                      A                      A                      A
 Frequencies --   1441.3366              1446.1734              1500.7254
 Red. masses --      4.0126                 1.2394                 1.0437
 Frc consts  --      4.9114                 1.5272                 1.3850
 IR Inten    --     74.0623                 4.6001                 5.9147

                     34                     35                     36
                      A                      A                      A
 Frequencies --   1510.6283              1569.7640              1622.9422
 Red. masses --      1.0795                 8.1261                 4.8311
 Frc consts  --      1.4514                11.7978                 7.4973
 IR Inten    --      9.6552               165.1909                34.3471

                     37                     38                     39
                      A                      A                      A
 Frequencies --   1687.8975              1805.9308              3061.3148
 Red. masses --      1.2043                 9.1833                 1.0346
 Frc consts  --      2.0215                17.6461                 5.7126
 IR Inten    --     63.9139               299.6485                17.1788

                     40                     41                     42
                      A                      A                      A
 Frequencies --   3123.9142              3136.0390              3241.1220
 Red. masses --      1.1011                 1.1041                 1.0930
 Frc consts  --      6.3310                 6.3975                 6.7649
 IR Inten    --      6.1037                13.1600                 4.6788

                     43                     44                     45
                      A                      A                      A
 Frequencies --   3514.4984              3610.8737              3699.6067
 Red. masses --      1.0487                 1.0959                 1.0641
 Frc consts  --      7.6315                 8.4185                 8.5809
 IR Inten    --      8.4775                10.5589                68.0917

 - Thermochemistry -
 -------------------
 Temperature   298.150 Kelvin.  Pressure   1.00000 Atm.
 Atom     1 has atomic number  6 and mass  12.00000

 Molecular mass:   157.01975 amu.
 Principal axes and moments of inertia in atomic units:
                           1         2         3
     Eigenvalues --   949.474352017.437322952.62140
           X            0.99914  -0.04123  -0.00388
           Y            0.04124   0.99915   0.00197
           Z            0.00380  -0.00213   0.99999
 This molecule is an asymmetric top.
 Rotational symmetry number  1.
 Warning -- assumption of classical behavior for rotation
           may cause significant error
 Rotational temperatures (Kelvin)      0.09122     0.04293     0.02933
 Rotational constants (GHZ):           1.90078     0.89457     0.61123
 Zero-point vibrational energy     332799.0 (Joules/Mol)
                                   79.54086 (Kcal/Mol)
 Warning -- explicit consideration of  14 degrees of freedom as
           vibrations may cause significant error
 Vibrational temperatures:     86.50   135.37   206.31   224.86   258.84
          (Kelvin)            284.85   395.61   453.05   521.06   551.69
                              707.62   734.98   749.46   789.57   924.08
                              953.95   988.16  1030.63  1068.40  1126.53
                             1184.39  1262.27  1517.98  1531.53  1607.65
                             1702.31  1719.58  1738.95  1867.75  1972.30
                             2073.76  2080.72  2159.21  2173.46  2258.54
                             2335.05  2428.51  2598.33  4404.55  4494.62
                             4512.06  4663.25  5056.58  5195.24  5322.91

 Zero-point correction=                           0.126756 (Hartree/Particle)
 Thermal correction to Energy=                    0.136954
 Thermal correction to Enthalpy=                  0.137898
 Thermal correction to Gibbs Free Energy=         0.090780
 Sum of electronic and zero-point Energies=           -836.149121
 Sum of electronic and thermal Energies=              -836.138924
 Sum of electronic and thermal Enthalpies=            -836.137980
 Sum of electronic and thermal Free Energies=         -836.185097

                     E (Thermal)             CV                S
                      KCal/Mol        Cal/Mol-Kelvin    Cal/Mol-Kelvin
 Total                   85.940             37.023             99.167
 Electronic               0.000              0.000              0.000
 Translational            0.889              2.981             41.063
 Rotational               0.889              2.981             30.115
 Vibrational             84.162             31.062             27.989
 Vibration     1          0.597              1.973              4.453
 Vibration     2          0.603              1.953              3.573
 Vibration     3          0.616              1.910              2.758
 Vibration     4          0.620              1.896              2.594
 Vibration     5          0.629              1.867              2.329
 Vibration     6          0.637              1.843              2.152
 Vibration     7          0.677              1.720              1.565
 Vibration     8          0.702              1.645              1.337
 Vibration     9          0.736              1.550              1.113
 Vibration    10          0.753              1.506              1.026
 Vibration    11          0.848              1.268              0.679
 Vibration    12          0.866              1.226              0.632
 Vibration    13          0.876              1.204              0.608
 Vibration    14          0.904              1.142              0.547

 Optimization completed.
    -- Stationary point found.
 Normal termination of Gaussian 16 at Tue Dec  8 10:29:37 2020.

 ----------------------------------------------------------------------
 # B3LYP/6-311++G(d,p) empiricaldispersion=gd3bj scf=xqc pop=npa geom=c
 heck
 ----------------------------------------------------------------------

 -------------------------------------
 CID_96634655_JID_345_Energie_neutraal
 -------------------------------------
 Structure from the checkpoint file:  "JID_345.chk"
 Charge =  0 Multiplicity = 1

 SCF Done:  E(RB3LYP) =  -836.442711671     A.U. after   15 cycles
 Normal termination of Gaussian 16 at Tue Dec  8 10:30:25 2020.

 ----------------------------------------------------------------------
 # B3LYP/6-311++G(d,p) empiricaldispersion=gd3bj scf=xqc pop=npa geom=c
 heck
 ----------------------------------------------------------------------

 -----------------------------------
 CID_96634655_JID_345_Energie_kation
 -----------------------------------
 Structure from the checkpoint file:  "JID_345.chk"
 Charge =  1 Multiplicity = 2

 SCF Done:  E(UB3LYP) =  -836.156837867     A.U. after   24 cycles
 Normal termination of Gaussian 16 at Tue Dec  8 10:33:04 2020.
 Gaussian 16:  ES64L-G16RevA.03 25-Dec-2016

 ----------------------------------------------------------------------
 # B3LYP/6-311++G(d,p) empiricaldispersion=gd3bj scf=xqc pop=npa geom=c
 heck
 ----------------------------------------------------------------------

 ----------------------------------
 CID_96634655_JID_345_Energie_anion
 ----------------------------------
 Structure from the checkpoint file:  "JID_345.chk"
 Charge = -1 Multiplicity = 2

                         Standard orientation:
 ---------------------------------------------------------------------
 Center     Atomic      Atomic             Coordinates (Angstroms)
 Number     Number       Type             X           Y           Z
 ---------------------------------------------------------------------
      1          6           0       -0.848169    2.350730   -0.018024
      2          6           0       -0.082721    1.063456    0.004626
      3          6           0       -0.544124   -0.235248    0.008598
      4          6           0        0.498389   -1.226536   -0.005950
      5          6           0        1.749164   -0.680773   -0.011089
      6         16           0        1.662835    1.076903    0.023084
      7          7           0        2.995931   -1.306616    0.071168
      8          6           0       -1.978745   -0.544297    0.000297
      9          8           0       -2.887890    0.266963   -0.008640
     10          8           0       -2.220709   -1.885401    0.003584
     11          1           0       -1.497737    2.401571   -0.897501
     12          1           0       -0.173743    3.212042   -0.027523
     13          1           0       -1.502658    2.426737    0.855958
     14          1           0        0.303482   -2.291638   -0.021014
     15          1           0        3.674327   -0.963695   -0.602151
     16          1           0        2.917257   -2.315470   -0.004585
     17          1           0       -3.191796   -1.970164   -0.001006
 ---------------------------------------------------------------------

 SCF Done:  E(UB3LYP) =  -836.435464883     A.U. after   31 cycles

 The electronic state is 2-A.
 Alpha  occ. eigenvalues --  -88.73886 -19.03728 -18.96769 -14.19307 -10.15644
 Alpha  occ. eigenvalues --  -10.09904 -10.06160 -10.05216 -10.04168 -10.03481
 Alpha  occ. eigenvalues --   -7.82539  -5.78835  -5.78479  -5.78114  -0.97340
 Alpha  occ. eigenvalues --   -0.87972  -0.79720  -0.73189  -0.62822  -0.61654
 Alpha  occ. eigenvalues --   -0.55320  -0.50431  -0.43956  -0.41073  -0.38334
 Alpha  occ. eigenvalues --   -0.36349  -0.35206  -0.32714  -0.32288  -0.30446
 Alpha  occ. eigenvalues --   -0.29635  -0.27636  -0.25906  -0.24507  -0.24187
 Alpha  occ. eigenvalues --   -0.21271  -0.19725  -0.17675  -0.14732  -0.12567
 Alpha  occ. eigenvalues --   -0.07457   0.05252
 Alpha virt. eigenvalues --    0.07524   0.08577   0.09221   0.10265   0.12229
 Alpha virt. eigenvalues --    0.12548   0.12868   0.14049   0.14195   0.15286
 Alpha virt. eigenvalues --    0.16123   0.16686   0.17242   0.17609   0.18258

  Beta  occ. eigenvalues --  -88.73869 -19.03674 -18.96610 -14.19227 -10.15459
  Beta  occ. eigenvalues --  -10.09867 -10.05759 -10.05244 -10.04180 -10.03494
  Beta  occ. eigenvalues --   -7.82522  -5.78831  -5.78476  -5.78049  -0.97140
  Beta  occ. eigenvalues --   -0.87728  -0.79604  -0.72903  -0.62597  -0.61445
  Beta  occ. eigenvalues --   -0.55175  -0.50144  -0.43826  -0.40786  -0.38202
  Beta  occ. eigenvalues --   -0.36118  -0.35015  -0.32571  -0.31590  -0.30357
  Beta  occ. eigenvalues --   -0.29160  -0.27464  -0.25775  -0.24351  -0.24048
  Beta  occ. eigenvalues --   -0.21086  -0.19077  -0.17191  -0.14584  -0.12211
  Beta  occ. eigenvalues --   -0.06616
  Beta virt. eigenvalues --    0.08339   0.09138   0.09235   0.10094   0.11368
  Beta virt. eigenvalues --    0.12184   0.12647   0.13342   0.14127   0.14321
  Beta virt. eigenvalues --    0.15921   0.16076   0.16612   0.17302   0.17656

 Mulliken charges and spin densities:
               1          2
     1  C   -0.041418  -0.147564
     2  C    1.339504   0.309287
     3  C   -1.937172   0.238430
     4  C    2.920242  -1.279821
     5  C   -0.834630  -0.183750
     6  S   -0.914726   0.380690
     7  N   -0.265768  -0.015660
     8  C   -0.351185  -0.098168
     9  O   -0.385112   0.050475
    10  O   -0.211012   0.010187
    11  H    0.155119   0.029859
    12  H    0.081455   0.015506
    13  H    0.176043   0.005467
    14  H   -0.074308   0.268279
    15  H   -0.596181   0.853008
    16  H   -0.303152   0.550116
    17  H    0.242304   0.013659
 Sum of Mulliken charges =  -1.00000   1.00000

 Dipole moment (field-independent basis, Debye):
    X=             -5.8467    Y=              2.5630    Z=              1.3181  Tot=              6.5185
 Quadrupole moment (field-independent basis, Debye-Ang):
   XX=           -123.8374   YY=            -87.8207   ZZ=            -80.5860
   XY=             16.4423   XZ=              5.5352   YZ=             -0.9818

 Summary of Natural Population Analysis:

                                       Natural Population
                Natural  -----------------------------------------------
    Atom  No    Charge         Core      Valence    Rydberg      Total
 -----------------------------------------------------------------------
      C    1   -0.30178      0.99962     2.29672    0.00543     3.30178
      C    2    0.00386      0.99949     1.98550    0.01115     2.99614
      C    3   -0.11852      0.99937     2.10832    0.01084     3.11852
      C    4   -0.15501      0.99944     2.14401    0.01156     3.15501
      C    5    0.00908      0.99948     1.97547    0.01597     2.99092
      S    6    0.18870      4.99938     2.79135    0.02057     7.81130
      N    7   -0.40845      0.99970     2.89536    0.01338     3.90845
      C    8    0.41687      0.99963     1.55858    0.02492     2.58313
      O    9   -0.31936      0.99987     3.31346    0.00603     4.31936
      O   10   -0.35175      0.99988     3.34514    0.00673     4.35175
      H   11    0.11169      0.00000     0.38674    0.00157     0.38831
      H   12    0.09466      0.00000     0.40456    0.00078     0.40534
      H   13    0.11141      0.00000     0.38750    0.00109     0.38859
      H   14    0.10914      0.00000     0.38945    0.00141     0.39086
      H   15    0.19102      0.00000     0.29394    0.01504     0.30898
      H   16    0.18782      0.00000     0.30711    0.00507     0.31218
      H   17    0.23062      0.00000     0.26535    0.00403     0.26938
 =======================================================================
   * Total *    0.00000     13.99588    26.84856    0.15557    41.00000

 Normal termination of Gaussian 16 at Tue Dec  8 10:42:33 2020.
