 Gaussian 16, Revision A.03,

 -----------------------------------------------------------
 # opt freq B3LYP/6-31G(d) empiricaldispersion=gd3bj scf=xqc
 -----------------------------------------------------------

 -------------------------------
 CID_112371143_JID_7694_neutraal
 -------------------------------
 Symbolic Z-matrix:
 Charge =  0 Multiplicity = 1

 SCF Done:  E(RB3LYP) =  -1092.81163648     A.U. after   15 cycles
 SCF Done:  E(RB3LYP) =  -1092.81768288     A.U. after   12 cycles
 SCF Done:  E(RB3LYP) =  -1092.81913420     A.U. after   12 cycles
 SCF Done:  E(RB3LYP) =  -1092.82004310     A.U. after   12 cycles
 SCF Done:  E(RB3LYP) =  -1092.82054720     A.U. after   12 cycles
 SCF Done:  E(RB3LYP) =  -1092.82071664     A.U. after   12 cycles
 SCF Done:  E(RB3LYP) =  -1092.82081826     A.U. after   11 cycles
 SCF Done:  E(RB3LYP) =  -1092.82086068     A.U. after   10 cycles
 SCF Done:  E(RB3LYP) =  -1092.82088474     A.U. after   11 cycles
 SCF Done:  E(RB3LYP) =  -1092.82089768     A.U. after   11 cycles
 SCF Done:  E(RB3LYP) =  -1092.82090304     A.U. after    7 cycles
 SCF Done:  E(RB3LYP) =  -1092.82090300     A.U. after    6 cycles
 SCF Done:  E(RB3LYP) =  -1092.82090296     A.U. after    7 cycles
 SCF Done:  E(RB3LYP) =  -1092.82090321     A.U. after    9 cycles
 SCF Done:  E(RB3LYP) =  -1092.82090300     A.U. after    9 cycles
 Optimization completed.
    -- Stationary point found.
 Normal termination of Gaussian 16 at Sun Dec 13 16:14:03 2020.

 --------------------------------------------------------------------
 #N Geom=AllCheck Guess=TCheck SCRF=Check GenChk RB3LYP/6-31G(d) Freq
 --------------------------------------------------------------------

 Structure from the checkpoint file:  "JID_7694.chk"
 -------------------------------
 CID_112371143_JID_7694_neutraal
 -------------------------------
 Charge =  0 Multiplicity = 1

 SCF Done:  E(RB3LYP) =  -1092.82090300     A.U. after    1 cycles

  Exact polarizability: 209.212  16.936 155.978   6.817  -7.441 145.758
 Approx polarizability: 261.838  28.005 228.096  24.391 -21.181 253.350

                      1                      2                      3
                      A                      A                      A
 Frequencies --     16.2718                16.8641                26.8467
 Red. masses --      3.7566                 3.7212                 4.1579
 Frc consts  --      0.0006                 0.0006                 0.0018
 IR Inten    --      0.3706                 0.0958                 0.2135

                      4                      5                      6
                      A                      A                      A
 Frequencies --     46.8241                49.2490                57.9407
 Red. masses --      4.3030                 4.8622                 2.9968
 Frc consts  --      0.0056                 0.0069                 0.0059
 IR Inten    --      1.0424                 0.4777                 0.3744

                      7                      8                      9
                      A                      A                      A
 Frequencies --     90.3473                97.8108               134.8341
 Red. masses --      2.4393                 4.0740                 3.6123
 Frc consts  --      0.0117                 0.0230                 0.0387
 IR Inten    --      0.5817                 0.5780                 0.8105

                     10                     11                     12
                      A                      A                      A
 Frequencies --    165.2785               179.7365               210.4517
 Red. masses --      2.8593                 4.2062                 2.3701
 Frc consts  --      0.0460                 0.0801                 0.0618
 IR Inten    --      2.2842                 2.3357                 1.2548

                     13                     14                     15
                      A                      A                      A
 Frequencies --    229.1080               232.1197               254.4458
 Red. masses --      1.4422                 1.2067                 1.3294
 Frc consts  --      0.0446                 0.0383                 0.0507
 IR Inten    --      0.9497                 0.0528                 0.1237

                     16                     17                     18
                      A                      A                      A
 Frequencies --    264.8530               290.0958               301.3445
 Red. masses --      2.2722                 1.8288                 2.9877
 Frc consts  --      0.0939                 0.0907                 0.1599
 IR Inten    --      1.7227                 0.1777                 0.2312

                     19                     20                     21
                      A                      A                      A
 Frequencies --    340.5691               352.6737               363.3489
 Red. masses --      2.4686                 2.7270                 2.6512
 Frc consts  --      0.1687                 0.1998                 0.2062
 IR Inten    --      1.3238                 1.9499                 0.3668

                     22                     23                     24
                      A                      A                      A
 Frequencies --    405.6503               417.8540               419.8557
 Red. masses --      2.4540                 2.1306                 2.2426
 Frc consts  --      0.2379                 0.2192                 0.2329
 IR Inten    --      0.1847                 0.4525                 1.2766

                     25                     26                     27
                      A                      A                      A
 Frequencies --    452.0971               501.9999               538.7440
 Red. masses --      3.1257                 2.7172                 1.5441
 Frc consts  --      0.3764                 0.4034                 0.2641
 IR Inten    --      2.2043                 1.9166                74.8662

                     28                     29                     30
                      A                      A                      A
 Frequencies --    548.3599               602.6422               626.6497
 Red. masses --      2.2177                 4.7859                 4.0742
 Frc consts  --      0.3929                 1.0241                 0.9426
 IR Inten    --     19.8151                 2.2252                10.4350

                     31                     32                     33
                      A                      A                      A
 Frequencies --    652.3509               680.0810               716.7521
 Red. masses --      3.0335                 4.3484                 6.5798
 Frc consts  --      0.7606                 1.1850                 1.9916
 IR Inten    --     22.4156                18.8308                 5.6970

                     34                     35                     36
                      A                      A                      A
 Frequencies --    756.2357               782.0493               821.0666
 Red. masses --      1.4167                 3.9214                 1.9179
 Frc consts  --      0.4774                 1.4130                 0.7618
 IR Inten    --      4.2984                17.0472                91.0404

                     37                     38                     39
                      A                      A                      A
 Frequencies --    825.7331               851.1662               874.8351
 Red. masses --      2.7190                 1.6602                 1.4264
 Frc consts  --      1.0923                 0.7086                 0.6432
 IR Inten    --      8.0907                11.0657                 8.6616

                     40                     41                     42
                      A                      A                      A
 Frequencies --    890.5687               892.8788               908.5948
 Red. masses --      2.5617                 1.5297                 1.5104
 Frc consts  --      1.1970                 0.7185                 0.7347
 IR Inten    --      7.1923                 1.9907                 7.6847

                     43                     44                     45
                      A                      A                      A
 Frequencies --    945.8065               950.4256               956.8794
 Red. masses --      1.1899                 1.9045                 1.8257
 Frc consts  --      0.6272                 1.0136                 0.9849
 IR Inten    --      2.6738                27.1324                 3.2434

                     46                     47                     48
                      A                      A                      A
 Frequencies --    965.5070               979.9411              1034.1629
 Red. masses --      1.9838                 1.4694                 1.9220
 Frc consts  --      1.0896                 0.8314                 1.2111
 IR Inten    --      1.1008                 0.6706                 7.1626

                     49                     50                     51
                      A                      A                      A
 Frequencies --   1046.7529              1070.9979              1086.5054
 Red. masses --      1.6596                 2.0140                 2.5146
 Frc consts  --      1.0714                 1.3611                 1.7490
 IR Inten    --     49.0705                28.2810                 5.0535

                     52                     53                     54
                      A                      A                      A
 Frequencies --   1093.5175              1127.6899              1146.2790
 Red. masses --      2.1576                 2.6935                 2.1772
 Frc consts  --      1.5201                 2.0181                 1.6855
 IR Inten    --     52.8285                63.7253                 5.0299

                     55                     56                     57
                      A                      A                      A
 Frequencies --   1149.1548              1165.3727              1182.8996
 Red. masses --      2.2340                 2.3502                 2.1657
 Frc consts  --      1.7382                 1.8805                 1.7854
 IR Inten    --      5.0765                10.8514                68.7348

                     58                     59                     60
                      A                      A                      A
 Frequencies --   1191.7672              1208.0143              1227.2388
 Red. masses --      2.9188                 1.8204                 2.1610
 Frc consts  --      2.4425                 1.5651                 1.9176
 IR Inten    --      8.9980                 2.9391                 4.1533

                     61                     62                     63
                      A                      A                      A
 Frequencies --   1241.2478              1267.5596              1277.6949
 Red. masses --      1.4224                 1.3773                 1.2927
 Frc consts  --      1.2912                 1.3038                 1.2434
 IR Inten    --     13.7022                15.8463                22.4188

                     64                     65                     66
                      A                      A                      A
 Frequencies --   1283.0801              1311.7306              1326.0806
 Red. masses --      1.2543                 1.3704                 1.5155
 Frc consts  --      1.2167                 1.3893                 1.5702
 IR Inten    --      5.0035                 3.5413                 7.9968

                     67                     68                     69
                      A                      A                      A
 Frequencies --   1334.1151              1360.0693              1371.1844
 Red. masses --      1.4186                 1.3368                 1.2635
 Frc consts  --      1.4876                 1.4569                 1.3996
 IR Inten    --      0.8649                 8.7680                13.1421

                     70                     71                     72
                      A                      A                      A
 Frequencies --   1383.2873              1389.5324              1392.9163
 Red. masses --      1.2811                 1.3809                 1.4279
 Frc consts  --      1.4443                 1.5710                 1.6323
 IR Inten    --     25.8864                 1.2669                 4.8424

                     73                     74                     75
                      A                      A                      A
 Frequencies --   1395.7840              1410.7006              1422.0825
 Red. masses --      1.4538                 1.3891                 1.3885
 Frc consts  --      1.6687                 1.6288                 1.6544
 IR Inten    --      2.4550                 4.1336                 4.4617

                     76                     77                     78
                      A                      A                      A
 Frequencies --   1431.8422              1444.3123              1450.2302
 Red. masses --      1.2792                 1.2670                 1.2371
 Frc consts  --      1.5452                 1.5573                 1.5329
 IR Inten    --      3.9851                 7.4210                 4.2374

                     79                     80                     81
                      A                      A                      A
 Frequencies --   1464.7140              1498.8102              1504.0290
 Red. masses --      1.2636                 1.0854                 1.1000
 Frc consts  --      1.5972                 1.4366                 1.4661
 IR Inten    --    128.7832                 3.0331                 3.0341

                     82                     83                     84
                      A                      A                      A
 Frequencies --   1508.2185              1518.0987              1519.8520
 Red. masses --      1.1708                 1.0656                 1.0993
 Frc consts  --      1.5691                 1.4469                 1.4961
 IR Inten    --      8.5839                 2.8533                17.2527

                     85                     86                     87
                      A                      A                      A
 Frequencies --   1523.7442              1525.8021              1528.0672
 Red. masses --      1.2220                 1.1166                 3.0268
 Frc consts  --      1.6716                 1.5316                 4.1640
 IR Inten    --      6.0580                 2.9489                12.2554

                     88                     89                     90
                      A                      A                      A
 Frequencies --   1534.2574              1534.7241              1537.3963
 Red. masses --      1.0709                 1.0593                 1.0660
 Frc consts  --      1.4853                 1.4700                 1.4845
 IR Inten    --     17.3493                 4.6373                 5.1691

                     91                     92                     93
                      A                      A                      A
 Frequencies --   1539.4932              1544.1712              1589.0591
 Red. masses --      1.0492                 1.0947                 6.1321
 Frc consts  --      1.4651                 1.5379                 9.1230
 IR Inten    --     10.9500                23.4771                18.0825

                     94                     95                     96
                      A                      A                      A
 Frequencies --   3015.9471              3028.4813              3036.8432
 Red. masses --      1.0661                 1.0641                 1.0652
 Frc consts  --      5.7135                 5.7501                 5.7881
 IR Inten    --     31.3275                28.9194                23.3872

                     97                     98                     99
                      A                      A                      A
 Frequencies --   3037.7523              3041.3673              3045.7062
 Red. masses --      1.0367                 1.0429                 1.0650
 Frc consts  --      5.6367                 5.6835                 5.8208
 IR Inten    --     25.0849                17.4511                13.5286

                    100                    101                    102
                      A                      A                      A
 Frequencies --   3046.4438              3054.2949              3055.5003
 Red. masses --      1.0368                 1.0729                 1.0600
 Frc consts  --      5.6693                 5.8968                 5.8305
 IR Inten    --     14.4207                17.0658                30.6247

                    103                    104                    105
                      A                      A                      A
 Frequencies --   3061.1877              3068.8784              3082.5819
 Red. masses --      1.0961                 1.0886                 1.0973
 Frc consts  --      6.0516                 6.0407                 6.1436
 IR Inten    --     20.4093                30.1737                55.3951

                    106                    107                    108
                      A                      A                      A
 Frequencies --   3087.6567              3089.2449              3098.9761
 Red. masses --      1.0960                 1.1039                 1.1049
 Frc consts  --      6.1563                 6.2070                 6.2516
 IR Inten    --     50.3092                 5.8113                16.7246

                    109                    110                    111
                      A                      A                      A
 Frequencies --   3101.7262              3109.3287              3111.8755
 Red. masses --      1.1003                 1.1001                 1.1021
 Frc consts  --      6.2368                 6.2661                 6.2880
 IR Inten    --     11.9390                57.1006                51.2745

                    112                    113                    114
                      A                      A                      A
 Frequencies --   3114.8805              3116.5450              3124.0706
 Red. masses --      1.1020                 1.1019                 1.1017
 Frc consts  --      6.2993                 6.3055                 6.3353
 IR Inten    --     39.7544                46.4894                41.5640

                    115                    116                    117
                      A                      A                      A
 Frequencies --   3215.0748              3494.4984              3637.2397
 Red. masses --      1.0931                 1.0735                 1.0647
 Frc consts  --      6.6571                 7.7234                 8.2990
 IR Inten    --     12.7611                 0.0337                66.7626

 - Thermochemistry -
 -------------------
 Temperature   298.150 Kelvin.  Pressure   1.00000 Atm.
 Atom     1 has atomic number  6 and mass  12.00000

 Molecular mass:   256.16094 amu.
 Principal axes and moments of inertia in atomic units:
                           1         2         3
     Eigenvalues --  2271.81022********************
           X            0.99996  -0.00457  -0.00703
           Y            0.00457   0.99999  -0.00053
           Z            0.00703   0.00049   0.99998
 This molecule is an asymmetric top.
 Rotational symmetry number  1.
 Warning -- assumption of classical behavior for rotation
           may cause significant error
 Rotational temperatures (Kelvin)      0.03813     0.00791     0.00721
 Rotational constants (GHZ):           0.79441     0.16487     0.15033
 Zero-point vibrational energy     954955.4 (Joules/Mol)
                                  228.23983 (Kcal/Mol)
 Warning -- explicit consideration of  29 degrees of freedom as
           vibrations may cause significant error
 Vibrational temperatures:     23.41    24.26    38.63    67.37    70.86
          (Kelvin)             83.36   129.99   140.73   194.00   237.80
                              258.60   302.79   329.64   333.97   366.09
                              381.06   417.38   433.57   490.00   507.42
                              522.78   583.64   601.20   604.08   650.47
                              722.27   775.13   788.97   867.07   901.61
                              938.59   978.48  1031.25  1088.05  1125.19
                             1181.33  1188.05  1224.64  1258.69  1281.33
                             1284.65  1307.27  1360.80  1367.45  1376.74
                             1389.15  1409.92  1487.93  1506.04  1540.93
                             1563.24  1573.33  1622.49  1649.24  1653.38
                             1676.71  1701.93  1714.69  1738.06  1765.72
                             1785.88  1823.74  1838.32  1846.07  1887.29
                             1907.93  1919.49  1956.84  1972.83  1990.24
                             1999.23  2004.10  2008.22  2029.68  2046.06
                             2060.10  2078.04  2086.56  2107.40  2156.45
                             2163.96  2169.99  2184.21  2186.73  2192.33
                             2195.29  2198.55  2207.45  2208.13  2211.97
                             2214.99  2221.72  2286.30  4339.28  4357.31
                             4369.34  4370.65  4375.85  4382.09  4383.15
                             4394.45  4396.18  4404.37  4415.43  4435.15
                             4442.45  4444.73  4458.74  4462.69  4473.63
                             4477.29  4481.62  4484.01  4494.84  4625.78
                             5027.80  5233.18

 Zero-point correction=                           0.363723 (Hartree/Particle)
 Thermal correction to Energy=                    0.383339
 Thermal correction to Enthalpy=                  0.384283
 Thermal correction to Gibbs Free Energy=         0.312139
 Sum of electronic and zero-point Energies=          -1092.457180
 Sum of electronic and thermal Energies=             -1092.437564
 Sum of electronic and thermal Enthalpies=           -1092.436620
 Sum of electronic and thermal Free Energies=        -1092.508764

                     E (Thermal)             CV                S
                      KCal/Mol        Cal/Mol-Kelvin    Cal/Mol-Kelvin
 Total                  240.549             72.186            151.839
 Electronic               0.000              0.000              0.000
 Translational            0.889              2.981             42.522
 Rotational               0.889              2.981             34.056
 Vibrational            238.771             66.225             75.261
 Vibration     1          0.593              1.986              7.044
 Vibration     2          0.593              1.986              6.973
 Vibration     3          0.593              1.984              6.050
 Vibration     4          0.595              1.979              4.947
 Vibration     5          0.595              1.978              4.847
 Vibration     6          0.596              1.974              4.526
 Vibration     7          0.602              1.956              3.653
 Vibration     8          0.603              1.951              3.497
 Vibration     9          0.613              1.919              2.876
 Vibration    10          0.624              1.885              2.489
 Vibration    11          0.629              1.867              2.331
 Vibration    12          0.643              1.825              2.040
 Vibration    13          0.652              1.797              1.886
 Vibration    14          0.653              1.792              1.862
 Vibration    15          0.665              1.755              1.700
 Vibration    16          0.671              1.737              1.630
 Vibration    17          0.686              1.692              1.473
 Vibration    18          0.693              1.671              1.409
 Vibration    19          0.720              1.594              1.209
 Vibration    20          0.729              1.570              1.154
 Vibration    21          0.737              1.548              1.108
 Vibration    22          0.771              1.458              0.942
 Vibration    23          0.781              1.431              0.899
 Vibration    24          0.783              1.427              0.892
 Vibration    25          0.811              1.356              0.789
 Vibration    26          0.857              1.246              0.653
 Vibration    27          0.894              1.164              0.568
 Vibration    28          0.904              1.143              0.548
 Vibration    29          0.961              1.026              0.445

 Optimization completed.
    -- Stationary point found.
 Normal termination of Gaussian 16 at Sun Dec 13 16:29:34 2020.

 ----------------------------------------------------------------------
 # B3LYP/6-311++G(d,p) empiricaldispersion=gd3bj scf=xqc pop=npa geom=c
 heck
 ----------------------------------------------------------------------

 ---------------------------------------
 CID_112371143_JID_7694_Energie_neutraal
 ---------------------------------------
 Structure from the checkpoint file:  "JID_7694.chk"
 Charge =  0 Multiplicity = 1

 SCF Done:  E(RB3LYP) =  -1093.05266665     A.U. after   15 cycles
 Normal termination of Gaussian 16 at Sun Dec 13 16:37:58 2020.

 ----------------------------------------------------------------------
 # B3LYP/6-311++G(d,p) empiricaldispersion=gd3bj scf=xqc pop=npa geom=c
 heck
 ----------------------------------------------------------------------

 -------------------------------------
 CID_112371143_JID_7694_Energie_kation
 -------------------------------------
 Structure from the checkpoint file:  "JID_7694.chk"
 Charge =  1 Multiplicity = 2

 SCF Done:  E(UB3LYP) =  -1092.75056138     A.U. after   26 cycles
 Normal termination of Gaussian 16 at Sun Dec 13 16:59:09 2020.
 Gaussian 16:  ES64L-G16RevA.03 25-Dec-2016

 ----------------------------------------------------------------------
 # B3LYP/6-311++G(d,p) empiricaldispersion=gd3bj scf=xqc pop=npa geom=c
 heck
 ----------------------------------------------------------------------

 ------------------------------------
 CID_112371143_JID_7694_Energie_anion
 ------------------------------------
 Structure from the checkpoint file:  "JID_7694.chk"
 Charge = -1 Multiplicity = 2

                         Standard orientation:
 ---------------------------------------------------------------------
 Center     Atomic      Atomic             Coordinates (Angstroms)
 Number     Number       Type             X           Y           Z
 ---------------------------------------------------------------------
      1          6           0       -3.624412    3.031478   -0.187167
      2          6           0       -3.550389    1.961203    0.906909
      3          6           0       -4.349846    0.688202    0.591704
      4          6           0       -3.957233   -0.049846   -0.700326
      5          6           0       -2.473375   -0.436288   -0.759529
      6          7           0       -2.201801   -1.438379    0.276892
      7          6           0       -0.946558   -2.181289    0.122587
      8          6           0        0.314581   -1.399139    0.374979
      9          6           0        1.102416   -1.430462    1.494280
     10          7           0        2.186116   -0.584967    1.520687
     11          6           0        2.263807    0.119837    0.427198
     12         16           0        0.981835   -0.222203   -0.732185
     13          6           0        3.355400    1.105453    0.135027
     14          6           0        4.745950    0.440182    0.023336
     15          6           0        4.794182   -0.571403   -1.126249
     16          6           0        5.829156    1.512079   -0.133104
     17          8           0       -4.749071   -1.220717   -0.856856
     18          1           0       -3.152703    2.696072   -1.117599
     19          1           0       -3.117290    3.950924    0.125205
     20          1           0       -4.666361    3.284716   -0.417835
     21          1           0       -2.497893    1.706850    1.095488
     22          1           0       -3.928000    2.382171    1.847564
     23          1           0       -4.264449   -0.016731    1.430482
     24          1           0       -5.417190    0.929445    0.513716
     25          1           0       -4.179070    0.588136   -1.563221
     26          1           0       -2.284562   -0.910065   -1.729739
     27          1           0       -1.829728    0.453850   -0.696824
     28          1           0       -2.198312   -0.986892    1.190111
     29          1           0       -0.960749   -3.017833    0.831211
     30          1           0       -0.943525   -2.617151   -0.882787
     31          1           0        0.920317   -2.080963    2.343866
     32          1           0        3.131686    1.648088   -0.791790
     33          1           0        3.375441    1.844988    0.945074
     34          1           0        4.914446   -0.097871    0.964944
     35          1           0        4.592239   -0.080986   -2.087636
     36          1           0        5.783097   -1.038616   -1.191755
     37          1           0        4.054146   -1.367193   -0.993145
     38          1           0        5.814361    2.222343    0.701774
     39          1           0        6.825831    1.058483   -0.172516
     40          1           0        5.686180    2.081107   -1.060896
     41          1           0       -4.286964   -1.888526   -0.314813
 ---------------------------------------------------------------------

 SCF Done:  E(UB3LYP) =  -1093.04292755     A.U. after   33 cycles
 SCF Done:  E(UB3LYP) =  -1093.04362213     a.u. after    8 cycles

 The electronic state is 2-A.
 Alpha  occ. eigenvalues --  -88.76222 -19.01632 -14.21233 -14.19599 -10.12400
 Alpha  occ. eigenvalues --  -10.11333 -10.10839 -10.09828 -10.08640 -10.08573
 Alpha  occ. eigenvalues --  -10.08492 -10.08305 -10.08020 -10.07510 -10.07505
 Alpha  occ. eigenvalues --  -10.07265 -10.06531  -7.84888  -5.81147  -5.80814
 Alpha  occ. eigenvalues --   -5.80510  -0.92440  -0.84894  -0.81608  -0.72352
 Alpha  occ. eigenvalues --   -0.70892  -0.68971  -0.65584  -0.64090  -0.60742
 Alpha  occ. eigenvalues --   -0.59702  -0.58446  -0.55720  -0.52490  -0.48376
 Alpha  occ. eigenvalues --   -0.47487  -0.46375  -0.43055  -0.41459  -0.39555
 Alpha  occ. eigenvalues --   -0.38892  -0.37614  -0.36861  -0.36377  -0.35395
 Alpha  occ. eigenvalues --   -0.34262  -0.33884  -0.33249  -0.31864  -0.31322
 Alpha  occ. eigenvalues --   -0.31129  -0.29964  -0.29331  -0.28888  -0.28125
 Alpha  occ. eigenvalues --   -0.27399  -0.27355  -0.26814  -0.24943  -0.24578
 Alpha  occ. eigenvalues --   -0.24562  -0.24401  -0.24281  -0.23694  -0.22220
 Alpha  occ. eigenvalues --   -0.17725  -0.17016  -0.16365  -0.15269  -0.12849
 Alpha  occ. eigenvalues --    0.04239
 Alpha virt. eigenvalues --    0.05730   0.05861   0.07075   0.07568   0.08173
 Alpha virt. eigenvalues --    0.08208   0.08489   0.08940   0.09448   0.09563
 Alpha virt. eigenvalues --    0.10018   0.10683   0.11134   0.11343   0.11410

  Beta  occ. eigenvalues --  -88.76197 -19.01621 -14.21201 -14.19604 -10.12399
  Beta  occ. eigenvalues --  -10.11070 -10.10827 -10.09821 -10.08572 -10.08463
  Beta  occ. eigenvalues --  -10.08462 -10.08322 -10.08005 -10.07498 -10.07489
  Beta  occ. eigenvalues --  -10.07251 -10.06520  -7.84863  -5.81139  -5.80805
  Beta  occ. eigenvalues --   -5.80427  -0.92420  -0.84718  -0.81544  -0.72279
  Beta  occ. eigenvalues --   -0.70857  -0.68814  -0.65406  -0.64007  -0.60680
  Beta  occ. eigenvalues --   -0.59676  -0.58377  -0.55646  -0.52438  -0.48295
  Beta  occ. eigenvalues --   -0.47439  -0.46166  -0.42893  -0.41407  -0.39498
  Beta  occ. eigenvalues --   -0.38819  -0.37558  -0.36819  -0.36309  -0.35290
  Beta  occ. eigenvalues --   -0.34174  -0.33804  -0.33218  -0.31718  -0.31269
  Beta  occ. eigenvalues --   -0.31092  -0.29930  -0.29208  -0.28674  -0.27993
  Beta  occ. eigenvalues --   -0.27323  -0.27303  -0.26777  -0.24920  -0.24501
  Beta  occ. eigenvalues --   -0.24456  -0.24352  -0.24235  -0.23635  -0.22195
  Beta  occ. eigenvalues --   -0.17675  -0.16628  -0.16307  -0.15102  -0.12101
  Beta virt. eigenvalues --    0.05916   0.06223   0.07050   0.07478   0.07956
  Beta virt. eigenvalues --    0.08309   0.08523   0.08814   0.09214   0.09698
  Beta virt. eigenvalues --    0.09732   0.10088   0.10688   0.11193   0.11381

 Mulliken charges and spin densities:
               1          2
     1  C    0.090650  -0.676293
     2  C   -0.247764   0.082704
     3  C    0.040338  -0.149442
     4  C   -0.122501  -0.581431
     5  C   -0.279801  -0.028621
     6  N   -0.068718   0.094920
     7  C    0.199068  -0.992418
     8  C    0.009805   0.708935
     9  C   -0.274159  -0.012175
    10  N    0.024226   0.015082
    11  C   -0.154499   0.609537
    12  S    0.046772   0.020611
    13  C   -0.147409  -1.032617
    14  C   -0.293504   0.865239
    15  C   -0.088558  -0.613523
    16  C   -0.056086  -0.616034
    17  O   -0.199660   0.038204
    18  H   -0.023992   0.165757
    19  H   -0.080517   0.211542
    20  H    0.024836   0.111592
    21  H    0.141262  -0.011034
    22  H   -0.329174   0.497844
    23  H   -0.084646   0.234571
    24  H    0.034736   0.131842
    25  H    0.177570   0.022451
    26  H    0.020790   0.189362
    27  H    0.327344  -0.338291
    28  H    0.171113   0.070863
    29  H   -0.149399   0.345268
    30  H   -0.216711   0.410209
    31  H   -0.137897   0.291254
    32  H    0.112893   0.040340
    33  H    0.175579  -0.008471
    34  H    0.143074   0.036722
    35  H    0.005350   0.127699
    36  H   -0.078200   0.206479
    37  H    0.009741   0.147164
    38  H    0.064575   0.056436
    39  H   -0.067676   0.205492
    40  H    0.055775   0.072764
    41  H    0.225375   0.049467
 Sum of Mulliken charges =  -1.00000   1.00000

 Dipole moment (field-independent basis, Debye):
    X=              0.9834    Y=              2.2398    Z=             -0.6552  Tot=              2.5324
 Quadrupole moment (field-independent basis, Debye-Ang):
   XX=           -223.6106   YY=           -155.5468   ZZ=           -145.4126
   XY=              3.8789   XZ=              2.0263   YZ=             -4.6209

 Summary of Natural Population Analysis:

                                       Natural Population
                Natural  -----------------------------------------------
    Atom  No    Charge         Core      Valence    Rydberg      Total
 -----------------------------------------------------------------------
      C    1   -0.28632      0.99967     2.28218    0.00447     3.28632
      C    2   -0.19563      0.99964     2.18752    0.00847     3.19563
      C    3   -0.20336      0.99961     2.19293    0.01082     3.20336
      C    4    0.06103      0.99956     1.92574    0.01368     2.93897
      C    5   -0.10402      0.99960     2.09503    0.00939     3.10402
      N    6   -0.34904      0.99974     2.83603    0.01327     3.84904
      C    7   -0.09988      0.99956     2.08655    0.01377     3.09988
      C    8   -0.10818      0.99949     2.09645    0.01224     3.10818
      C    9   -0.01515      0.99945     2.00069    0.01501     3.01515
      N   10   -0.25731      0.99964     2.74591    0.01177     3.75731
      C   11    0.08366      0.99961     1.89935    0.01738     2.91634
      S   12    0.18449      4.99939     2.79787    0.01826     7.81551
      C   13   -0.21125      0.99956     2.20242    0.00926     3.21125
      C   14   -0.10964      0.99961     2.10000    0.01002     3.10964
      C   15   -0.28824      0.99965     2.28260    0.00598     3.28824
      C   16   -0.28263      0.99965     2.27841    0.00457     3.28263
      O   17   -0.37873      0.99990     3.37208    0.00674     4.37873
      H   18    0.09515      0.00000     0.40368    0.00117     0.40485
      H   19    0.09912      0.00000     0.39991    0.00097     0.40088
      H   20    0.09497      0.00000     0.40390    0.00113     0.40503
      H   21    0.09559      0.00000     0.40308    0.00134     0.40441
      H   22    0.09730      0.00000     0.40142    0.00128     0.40270
      H   23    0.09831      0.00000     0.40043    0.00127     0.40169
      H   24    0.09982      0.00000     0.39907    0.00111     0.40018
      H   25    0.08530      0.00000     0.41337    0.00133     0.41470
      H   26    0.09759      0.00000     0.40111    0.00130     0.40241
      H   27    0.09120      0.00000     0.40722    0.00157     0.40880
      H   28    0.17573      0.00000     0.32077    0.00350     0.32427
      H   29    0.10311      0.00000     0.39543    0.00146     0.39689
      H   30    0.10026      0.00000     0.39799    0.00175     0.39974
      H   31    0.09551      0.00000     0.40312    0.00138     0.40449
      H   32    0.09941      0.00000     0.39958    0.00101     0.40059
      H   33    0.10820      0.00000     0.39053    0.00126     0.39180
      H   34    0.09884      0.00000     0.39897    0.00219     0.40116
      H   35    0.09426      0.00000     0.40487    0.00087     0.40574
      H   36    0.09729      0.00000     0.40191    0.00080     0.40271
      H   37    0.10763      0.00000     0.39151    0.00086     0.39237
      H   38    0.09670      0.00000     0.40243    0.00087     0.40330
      H   39    0.09910      0.00000     0.39990    0.00099     0.40090
      H   40    0.09425      0.00000     0.40488    0.00088     0.40575
      H   41    0.23556      0.00000     0.26104    0.00340     0.26444
 =======================================================================
   * Total *   -0.00000     20.99333    48.78786    0.21881    70.00000

 Normal termination of Gaussian 16 at Sun Dec 13 19:52:03 2020.
