 Gaussian 16, Revision A.03,

 -----------------------------------------------------------
 # opt freq B3LYP/6-31G(d) empiricaldispersion=gd3bj scf=xqc
 -----------------------------------------------------------

 -------------------------------
 CID_131861005_JID_1607_neutraal
 -------------------------------
 Symbolic Z-matrix:
 Charge =  0 Multiplicity = 1

 SCF Done:  E(RB3LYP) =  -536.276900176     A.U. after   16 cycles
 SCF Done:  E(RB3LYP) =  -536.279402814     A.U. after   14 cycles
 SCF Done:  E(RB3LYP) =  -536.265343853     A.U. after   16 cycles
 SCF Done:  E(RB3LYP) =  -536.279676029     A.U. after   13 cycles
 SCF Done:  E(RB3LYP) =  -536.279771945     A.U. after   13 cycles
 SCF Done:  E(RB3LYP) =  -536.279852406     A.U. after   13 cycles
 SCF Done:  E(RB3LYP) =  -536.279965145     A.U. after   13 cycles
 SCF Done:  E(RB3LYP) =  -536.280000039     A.U. after   16 cycles
 SCF Done:  E(RB3LYP) =  -536.280160293     A.U. after   13 cycles
 SCF Done:  E(RB3LYP) =  -536.280227742     A.U. after   13 cycles
 SCF Done:  E(RB3LYP) =  -536.280305617     A.U. after   12 cycles
 SCF Done:  E(RB3LYP) =  -536.280307200     A.U. after    9 cycles
 SCF Done:  E(RB3LYP) =  -536.280307593     A.U. after    9 cycles
 SCF Done:  E(RB3LYP) =  -536.280308230     A.U. after    9 cycles
 SCF Done:  E(RB3LYP) =  -536.280308310     A.U. after    8 cycles
 Optimization completed.
    -- Stationary point found.
 Normal termination of Gaussian 16 at Tue Dec  8 20:37:33 2020.

 --------------------------------------------------------------------
 #N Geom=AllCheck Guess=TCheck SCRF=Check GenChk RB3LYP/6-31G(d) Freq
 --------------------------------------------------------------------

 Structure from the checkpoint file:  "JID_1607.chk"
 -------------------------------
 CID_131861005_JID_1607_neutraal
 -------------------------------
 Charge =  0 Multiplicity = 1

 SCF Done:  E(RB3LYP) =  -536.280308310     A.U. after    1 cycles

  Exact polarizability: 103.682   4.234  96.011  -1.955  -1.005  81.714
 Approx polarizability: 144.166  12.898 149.799  -5.916  -6.032 120.577

                      1                      2                      3
                      A                      A                      A
 Frequencies --     22.0048                62.7648                75.8205
 Red. masses --      9.4651                 3.8854                 2.9645
 Frc consts  --      0.0027                 0.0090                 0.0100
 IR Inten    --      0.5238                 0.7071                 0.3443

                      4                      5                      6
                      A                      A                      A
 Frequencies --    135.3800               147.9472               177.5332
 Red. masses --      2.4297                 2.1830                 2.6163
 Frc consts  --      0.0262                 0.0282                 0.0486
 IR Inten    --      0.3824                 1.8212                 3.8289

                      7                      8                      9
                      A                      A                      A
 Frequencies --    192.6653               234.7340               247.8598
 Red. masses --      2.3782                 2.7449                 1.4693
 Frc consts  --      0.0520                 0.0891                 0.0532
 IR Inten    --      1.7159                 1.4875                 8.7645

                     10                     11                     12
                      A                      A                      A
 Frequencies --    267.5150               275.5843               316.3647
 Red. masses --      1.3954                 1.5221                 1.6246
 Frc consts  --      0.0588                 0.0681                 0.0958
 IR Inten    --     18.5643                 0.8178                 0.4881

                     13                     14                     15
                      A                      A                      A
 Frequencies --    348.0227               350.6324               408.6662
 Red. masses --      2.8993                 2.2113                 3.1435
 Frc consts  --      0.2069                 0.1602                 0.3093
 IR Inten    --      2.1577                 1.8908                 8.9847

                     16                     17                     18
                      A                      A                      A
 Frequencies --    460.8669               506.9414               624.8191
 Red. masses --      4.1398                 2.7024                 2.5366
 Frc consts  --      0.5181                 0.4092                 0.5835
 IR Inten    --      3.7540                 0.9046                 8.6374

                     19                     20                     21
                      A                      A                      A
 Frequencies --    690.8780               724.2639               789.4290
 Red. masses --      4.9093                 2.0648                 1.2730
 Frc consts  --      1.3806                 0.6381                 0.4674
 IR Inten    --      0.3774                 2.7143                15.2921

                     22                     23                     24
                      A                      A                      A
 Frequencies --    808.1576               826.5328               877.1897
 Red. masses --      1.9228                 3.6605                 1.7759
 Frc consts  --      0.7399                 1.4734                 0.8051
 IR Inten    --     17.4202                11.2471               159.7984

                     25                     26                     27
                      A                      A                      A
 Frequencies --    881.8307               903.9270               912.0490
 Red. masses --      2.0157                 1.9075                 3.1122
 Frc consts  --      0.9235                 0.9183                 1.5253
 IR Inten    --     28.3739                48.5010                30.4565

                     28                     29                     30
                      A                      A                      A
 Frequencies --    958.6869               989.8401              1062.7751
 Red. masses --      1.7674                 1.9474                 1.5233
 Frc consts  --      0.9570                 1.1242                 1.0137
 IR Inten    --      9.2845                 9.8079                 6.4037

                     31                     32                     33
                      A                      A                      A
 Frequencies --   1073.6333              1096.2232              1101.4894
 Red. masses --      1.9165                 1.7154                 1.5918
 Frc consts  --      1.3016                 1.2145                 1.1379
 IR Inten    --      1.1063                 1.9558                 0.2633

                     34                     35                     36
                      A                      A                      A
 Frequencies --   1146.1291              1150.9732              1187.9010
 Red. masses --      2.1907                 1.6849                 2.4833
 Frc consts  --      1.6955                 1.3151                 2.0646
 IR Inten    --      1.9110                 8.7907                 8.3235

                     37                     38                     39
                      A                      A                      A
 Frequencies --   1227.0454              1279.6543              1303.2776
 Red. masses --      1.5459                 1.2783                 1.3479
 Frc consts  --      1.3713                 1.2333                 1.3489
 IR Inten    --      2.8379                 1.9747                25.0731

                     40                     41                     42
                      A                      A                      A
 Frequencies --   1329.6595              1344.0689              1355.3437
 Red. masses --      1.2098                 1.2243                 1.2483
 Frc consts  --      1.2602                 1.3032                 1.3511
 IR Inten    --      8.4107                13.2199                 9.5085

                     43                     44                     45
                      A                      A                      A
 Frequencies --   1383.5571              1396.4917              1404.0384
 Red. masses --      1.4203                 1.4732                 1.8275
 Frc consts  --      1.6018                 1.6927                 2.1225
 IR Inten    --      8.3559                 4.8325                34.0977

                     46                     47                     48
                      A                      A                      A
 Frequencies --   1409.1637              1440.5427              1442.0857
 Red. masses --      1.2846                 2.6396                 1.4276
 Frc consts  --      1.5029                 3.2272                 1.7492
 IR Inten    --      4.5189                55.8211                13.2555

                     49                     50                     51
                      A                      A                      A
 Frequencies --   1448.8414              1459.5329              1508.9392
 Red. masses --      1.2652                 1.3222                 1.0851
 Frc consts  --      1.5648                 1.6595                 1.4557
 IR Inten    --     11.4156                 2.8500                 7.2689

                     52                     53                     54
                      A                      A                      A
 Frequencies --   1520.7625              1525.5697              1534.5558
 Red. masses --      1.0763                 1.0538                 1.0525
 Frc consts  --      1.4666                 1.4450                 1.4603
 IR Inten    --      2.3269                 1.5218                 5.0494

                     55                     56                     57
                      A                      A                      A
 Frequencies --   1539.4612              1541.3229              1546.7360
 Red. masses --      1.0503                 1.0724                 1.0531
 Frc consts  --      1.4666                 1.5011                 1.4844
 IR Inten    --     10.6661                 5.0694                 4.7821

                     58                     59                     60
                      A                      A                      A
 Frequencies --   1650.0927              1709.6400              3035.7549
 Red. masses --      8.6208                 1.0981                 1.0639
 Frc consts  --     13.8297                 1.8911                 5.7767
 IR Inten    --    194.6512                28.5233                16.1686

                     61                     62                     63
                      A                      A                      A
 Frequencies --   3043.1085              3049.0110              3054.3347
 Red. masses --      1.0651                 1.0374                 1.0614
 Frc consts  --      5.8114                 5.6823                 5.8339
 IR Inten    --     28.1607                11.0594                17.2854

                     64                     65                     66
                      A                      A                      A
 Frequencies --   3062.3206              3067.6302              3070.5128
 Red. masses --      1.0416                 1.0923                 1.0873
 Frc consts  --      5.7550                 6.0561                 6.0400
 IR Inten    --     17.5794                15.8093                30.2038

                     67                     68                     69
                      A                      A                      A
 Frequencies --   3086.2741              3094.1883              3114.9781
 Red. masses --      1.1010                 1.0991                 1.1020
 Frc consts  --      6.1790                 6.1999                 6.3002
 IR Inten    --     14.5436                44.9590                50.1008

                     70                     71                     72
                      A                      A                      A
 Frequencies --   3116.7814              3119.5057              3124.3507
 Red. masses --      1.1011                 1.1016                 1.0853
 Frc consts  --      6.3024                 6.3161                 6.2418
 IR Inten    --     40.2446                42.3534                 8.4025

                     73                     74                     75
                      A                      A                      A
 Frequencies --   3168.4016              3503.6200              3594.6790
 Red. masses --      1.0998                 1.0509                 1.0907
 Frc consts  --      6.5051                 7.6003                 8.3036
 IR Inten    --     10.0756                 0.2673                 1.8828

 - Thermochemistry -
 -------------------
 Temperature   298.150 Kelvin.  Pressure   1.00000 Atm.
 Atom     1 has atomic number  6 and mass  12.00000

 Molecular mass:   160.12118 amu.
 Principal axes and moments of inertia in atomic units:
                           1         2         3
     Eigenvalues --  1322.327002287.715472736.36416
           X            0.99775   0.06686  -0.00548
           Y           -0.06676   0.99762   0.01718
           Z            0.00661  -0.01678   0.99984
 This molecule is an asymmetric top.
 Rotational symmetry number  1.
 Warning -- assumption of classical behavior for rotation
           may cause significant error
 Rotational temperatures (Kelvin)      0.06550     0.03786     0.03165
 Rotational constants (GHZ):           1.36482     0.78888     0.65954
 Zero-point vibrational energy     631890.6 (Joules/Mol)
                                  151.02549 (Kcal/Mol)
 Warning -- explicit consideration of  17 degrees of freedom as
           vibrations may cause significant error
 Vibrational temperatures:     31.66    90.30   109.09   194.78   212.86
          (Kelvin)            255.43   277.20   337.73   356.61   384.89
                              396.50   455.18   500.73   504.48   587.98
                              663.08   729.38   898.98   994.02  1042.05
                             1135.81  1162.76  1189.20  1262.08  1268.76
                             1300.55  1312.24  1379.34  1424.16  1529.10
                             1544.72  1577.22  1584.80  1649.02  1655.99
                             1709.12  1765.44  1841.14  1875.13  1913.08
                             1933.82  1950.04  1990.63  2009.24  2020.10
                             2027.47  2072.62  2074.84  2084.56  2099.94
                             2171.03  2188.04  2194.95  2207.88  2214.94
                             2217.62  2225.41  2374.12  2459.79  4367.77
                             4378.35  4386.85  4394.51  4406.00  4413.64
                             4417.78  4440.46  4451.85  4481.76  4484.35
                             4488.27  4495.24  4558.62  5040.93  5171.94

 Zero-point correction=                           0.240674 (Hartree/Particle)
 Thermal correction to Energy=                    0.253507
 Thermal correction to Enthalpy=                  0.254451
 Thermal correction to Gibbs Free Energy=         0.201004
 Sum of electronic and zero-point Energies=           -536.039634
 Sum of electronic and thermal Energies=              -536.026801
 Sum of electronic and thermal Enthalpies=            -536.025857
 Sum of electronic and thermal Free Energies=         -536.079305

                     E (Thermal)             CV                S
                      KCal/Mol        Cal/Mol-Kelvin    Cal/Mol-Kelvin
 Total                  159.078             46.712            112.491
 Electronic               0.000              0.000              0.000
 Translational            0.889              2.981             41.121
 Rotational               0.889              2.981             30.494
 Vibrational            157.301             40.750             40.876
 Vibration     1          0.593              1.985              6.445
 Vibration     2          0.597              1.972              4.368
 Vibration     3          0.599              1.965              3.996
 Vibration     4          0.613              1.918              2.868
 Vibration     5          0.617              1.905              2.698
 Vibration     6          0.628              1.870              2.354
 Vibration     7          0.635              1.850              2.202
 Vibration     8          0.655              1.788              1.842
 Vibration     9          0.661              1.766              1.746
 Vibration    10          0.673              1.733              1.612
 Vibration    11          0.677              1.719              1.561
 Vibration    12          0.703              1.642              1.329
 Vibration    13          0.726              1.579              1.175
 Vibration    14          0.728              1.574              1.163
 Vibration    15          0.773              1.451              0.931
 Vibration    16          0.819              1.337              0.764
 Vibration    17          0.862              1.235              0.641

                           ! Non-Optimized Parameters !
 Normal termination of Gaussian 16 at Tue Dec  8 20:45:13 2020.

 ----------------------------------------------------------------------
 # B3LYP/6-311++G(d,p) empiricaldispersion=gd3bj scf=xqc pop=npa geom=c
 heck
 ----------------------------------------------------------------------

 ---------------------------------------
 CID_131861005_JID_1607_Energie_neutraal
 ---------------------------------------
 Structure from the checkpoint file:  "JID_1607.chk"
 Charge =  0 Multiplicity = 1

 SCF Done:  E(RB3LYP) =  -536.447462163     A.U. after   16 cycles
 Normal termination of Gaussian 16 at Tue Dec  8 20:49:44 2020.

 ----------------------------------------------------------------------
 # B3LYP/6-311++G(d,p) empiricaldispersion=gd3bj scf=xqc pop=npa geom=c
 heck
 ----------------------------------------------------------------------

 -------------------------------------
 CID_131861005_JID_1607_Energie_kation
 -------------------------------------
 Structure from the checkpoint file:  "JID_1607.chk"
 Charge =  1 Multiplicity = 2

 SCF Done:  E(UB3LYP) =  -536.103827951     A.U. after   28 cycles
 Normal termination of Gaussian 16 at Tue Dec  8 20:57:13 2020.
 Gaussian 16:  ES64L-G16RevA.03 25-Dec-2016

 ----------------------------------------------------------------------
 # B3LYP/6-311++G(d,p) empiricaldispersion=gd3bj scf=xqc pop=npa geom=c
 heck
 ----------------------------------------------------------------------

 ------------------------------------
 CID_131861005_JID_1607_Energie_anion
 ------------------------------------
 Structure from the checkpoint file:  "JID_1607.chk"
 Charge = -1 Multiplicity = 2

                         Standard orientation:
 ---------------------------------------------------------------------
 Center     Atomic      Atomic             Coordinates (Angstroms)
 Number     Number       Type             X           Y           Z
 ---------------------------------------------------------------------
      1          6           0        3.201108    0.980919   -0.333627
      2          6           0        2.639116   -0.430474   -0.532733
      3          6           0        1.675508   -0.882530    0.574364
      4          6           0        0.450039    0.014704    0.802671
      5          6           0       -0.369427    0.184882   -0.520370
      6          6           0       -0.901116   -1.064426   -1.235020
      7          6           0       -1.600348   -2.160600   -0.422787
      8          7           0       -1.468649    1.166734   -0.199936
      9          8           0       -1.172431    2.358992   -0.230980
     10          8           0       -2.566511    0.725528    0.143767
     11          7           0       -0.281913   -0.454521    1.970609
     12          1           0        2.421846    1.748166   -0.403656
     13          1           0        3.956659    1.211613   -1.092169
     14          1           0        3.673367    1.079033    0.651160
     15          1           0        2.151640   -0.496316   -1.514862
     16          1           0        3.469037   -1.147209   -0.567794
     17          1           0        1.339571   -1.907663    0.367715
     18          1           0        2.208598   -0.921266    1.531393
     19          1           0        0.800724    1.024435    1.044715
     20          1           0        0.254655    0.745558   -1.218507
     21          1           0       -1.579666   -0.720289   -2.024514
     22          1           0       -0.039321   -1.501538   -1.753985
     23          1           0       -2.417504   -1.753686    0.174713
     24          1           0       -2.018707   -2.905338   -1.108429
     25          1           0       -0.905450   -2.693300    0.234802
     26          1           0       -1.099238    0.123464    2.153525
     27          1           0       -0.620019   -1.402169    1.833912
 ---------------------------------------------------------------------

 SCF Done:  E(UB3LYP) =  -536.453676989     A.U. after   33 cycles
 SCF Done:  E(UB3LYP) =  -536.453676989     a.u. after    1 cycles

 The electronic state is 2-A.
 Alpha  occ. eigenvalues --  -18.94709 -18.94619 -14.30334 -14.17039 -10.08033
 Alpha  occ. eigenvalues --  -10.07813 -10.06169 -10.05906 -10.05476 -10.05279
 Alpha  occ. eigenvalues --  -10.04955  -1.02314  -0.85271  -0.77345  -0.68887
 Alpha  occ. eigenvalues --   -0.67383  -0.61731  -0.58940  -0.52110  -0.50721
 Alpha  occ. eigenvalues --   -0.46314  -0.41856  -0.38232  -0.36881  -0.36736
 Alpha  occ. eigenvalues --   -0.33828  -0.33640  -0.33009  -0.31452  -0.30761
 Alpha  occ. eigenvalues --   -0.29985  -0.28827  -0.27600  -0.26322  -0.24527
 Alpha  occ. eigenvalues --   -0.23653  -0.23563  -0.22597  -0.21485  -0.20642
 Alpha  occ. eigenvalues --   -0.13964  -0.12462  -0.11344  -0.10391   0.05085
 Alpha virt. eigenvalues --    0.06711   0.08112   0.09189   0.09368   0.10659
 Alpha virt. eigenvalues --    0.11039   0.11801   0.13018   0.13199   0.13767
 Alpha virt. eigenvalues --    0.14091   0.15087   0.15255   0.16087   0.16988

  Beta  occ. eigenvalues --  -18.94285 -18.94163 -14.29382 -14.17037 -10.07991
  Beta  occ. eigenvalues --  -10.07861 -10.06153 -10.05888 -10.05463 -10.05260
  Beta  occ. eigenvalues --  -10.04950  -1.01048  -0.84411  -0.77297  -0.68815
  Beta  occ. eigenvalues --   -0.67305  -0.61546  -0.58775  -0.52038  -0.50259
  Beta  occ. eigenvalues --   -0.45943  -0.41469  -0.37951  -0.36462  -0.35592
  Beta  occ. eigenvalues --   -0.33646  -0.33502  -0.32146  -0.31143  -0.30287
  Beta  occ. eigenvalues --   -0.29242  -0.28244  -0.27534  -0.26138  -0.24486
  Beta  occ. eigenvalues --   -0.23606  -0.23393  -0.22536  -0.21310  -0.20585
  Beta  occ. eigenvalues --   -0.12682  -0.11251  -0.10417  -0.09952
  Beta virt. eigenvalues --    0.07273   0.08223   0.09294   0.09567   0.10737
  Beta virt. eigenvalues --    0.10989   0.11991   0.12642   0.13318   0.13484
  Beta virt. eigenvalues --    0.13944   0.14749   0.15095   0.15265   0.15995

 Mulliken charges and spin densities:
               1          2
     1  C    0.069292  -0.685484
     2  C   -0.056391  -0.128028
     3  C   -0.165159  -0.109071
     4  C    0.097437  -0.361494
     5  C    0.032511  -0.001795
     6  C   -0.428501  -0.089840
     7  C   -0.482433  -0.130289
     8  N   -0.206732   0.275312
     9  O   -0.180320   0.184479
    10  O   -0.222990   0.178115
    11  N   -0.344924   0.063653
    12  H    0.117491   0.045857
    13  H   -0.080552   0.204068
    14  H    0.063242   0.069751
    15  H    0.112198  -0.006800
    16  H   -0.546415   0.705445
    17  H   -0.004829   0.121875
    18  H   -0.092903   0.280974
    19  H    0.186482   0.085130
    20  H    0.274700  -0.011772
    21  H    0.192814  -0.022269
    22  H   -0.004680   0.116778
    23  H    0.197061   0.003182
    24  H    0.033408   0.081113
    25  H    0.087433   0.029672
    26  H    0.154036   0.081610
    27  H    0.198725   0.019830
 Sum of Mulliken charges =  -1.00000   1.00000

 Dipole moment (field-independent basis, Debye):
    X=              0.8857    Y=             -3.4192    Z=             -1.5492  Tot=              3.8569
 Quadrupole moment (field-independent basis, Debye-Ang):
   XX=           -118.6391   YY=            -99.8969   ZZ=            -86.7092
   XY=             14.7686   XZ=              0.3454   YZ=              0.3010

 Summary of Natural Population Analysis:

                                       Natural Population
                Natural  -----------------------------------------------
    Atom  No    Charge         Core      Valence    Rydberg      Total
 -----------------------------------------------------------------------
      C    1   -0.29019      0.99966     2.28444    0.00609     3.29019
      C    2   -0.19222      0.99964     2.18380    0.00878     3.19222
      C    3   -0.19331      0.99961     2.18297    0.01073     3.19331
      C    4   -0.01505      0.99957     2.00091    0.01457     3.01505
      C    5   -0.04384      0.99953     2.03029    0.01402     3.04384
      C    6   -0.20141      0.99961     2.18994    0.01186     3.20141
      C    7   -0.29085      0.99966     2.28609    0.00510     3.29085
      N    8    0.34141      0.99974     2.12955    0.02929     3.15859
      O    9   -0.20308      0.99990     3.19544    0.00775     4.20308
      O   10   -0.21613      0.99990     3.20854    0.00770     4.21613
      N   11   -0.42414      0.99976     2.91557    0.00881     3.92414
      H   12    0.10158      0.00000     0.39745    0.00097     0.39842
      H   13    0.09590      0.00000     0.40336    0.00074     0.40410
      H   14    0.09581      0.00000     0.40330    0.00089     0.40419
      H   15    0.09157      0.00000     0.40721    0.00122     0.40843
      H   16    0.09579      0.00000     0.40278    0.00143     0.40421
      H   17    0.09389      0.00000     0.40499    0.00112     0.40611
      H   18    0.10233      0.00000     0.39620    0.00147     0.39767
      H   19    0.09895      0.00000     0.39890    0.00215     0.40105
      H   20    0.10546      0.00000     0.39301    0.00154     0.39454
      H   21    0.10285      0.00000     0.39599    0.00116     0.39715
      H   22    0.09377      0.00000     0.40493    0.00130     0.40623
      H   23    0.11386      0.00000     0.38493    0.00121     0.38614
      H   24    0.09269      0.00000     0.40643    0.00088     0.40731
      H   25    0.08764      0.00000     0.41116    0.00120     0.41236
      H   26    0.18565      0.00000     0.31228    0.00207     0.31435
      H   27    0.17109      0.00000     0.32684    0.00207     0.32891
 =======================================================================
   * Total *    0.00000     10.99657    32.85731    0.14612    44.00000

 Normal termination of Gaussian 16 at Tue Dec  8 21:10:14 2020.
