 Gaussian 16, Revision A.03,

 -----------------------------------------------------------
 # opt freq B3LYP/6-31G(d) empiricaldispersion=gd3bj scf=xqc
 -----------------------------------------------------------

 -----------------------------
 CID_17775777_JID_770_neutraal
 -----------------------------
 Symbolic Z-matrix:
 Charge =  0 Multiplicity = 1

 SCF Done:  E(RB3LYP) =  -841.047519977     A.U. after   13 cycles
 SCF Done:  E(RB3LYP) =  -841.051459951     A.U. after   11 cycles
 SCF Done:  E(RB3LYP) =  -841.052360691     A.U. after   11 cycles
 SCF Done:  E(RB3LYP) =  -841.052103298     A.U. after   12 cycles
 SCF Done:  E(RB3LYP) =  -841.052986335     A.U. after   12 cycles
 SCF Done:  E(RB3LYP) =  -841.053429926     A.U. after   10 cycles
 SCF Done:  E(RB3LYP) =  -841.053807535     A.U. after   11 cycles
 SCF Done:  E(RB3LYP) =  -841.054170640     A.U. after   12 cycles
 SCF Done:  E(RB3LYP) =  -841.054921379     A.U. after   10 cycles
 SCF Done:  E(RB3LYP) =  -841.056448989     A.U. after   11 cycles
 SCF Done:  E(RB3LYP) =  -841.064589204     A.U. after    9 cycles
 SCF Done:  E(RB3LYP) =  -841.064590715     A.U. after    9 cycles
 SCF Done:  E(RB3LYP) =  -841.064591665     A.U. after    9 cycles
 SCF Done:  E(RB3LYP) =  -841.064592064     A.U. after    8 cycles
 SCF Done:  E(RB3LYP) =  -841.064592099     A.U. after    7 cycles
 SCF Done:  E(RB3LYP) =  -841.064592051     A.U. after    7 cycles
 Optimization completed.
    -- Stationary point found.
 Normal termination of Gaussian 16 at Tue Dec  8 13:29:14 2020.

 --------------------------------------------------------------------
 #N Geom=AllCheck Guess=TCheck SCRF=Check GenChk RB3LYP/6-31G(d) Freq
 --------------------------------------------------------------------

 Structure from the checkpoint file:  "JID_770.chk"
 -----------------------------
 CID_17775777_JID_770_neutraal
 -----------------------------
 Charge =  0 Multiplicity = 1

 SCF Done:  E(RB3LYP) =  -841.064592051     A.U. after    1 cycles

  Exact polarizability: 105.515   3.510  90.804   0.263   1.923  82.720
 Approx polarizability: 136.741   5.227 128.475   1.538   5.270 125.799

                      1                      2                      3
                      A                      A                      A
 Frequencies --     27.8160                65.5057               101.0277
 Red. masses --      4.4923                 5.7996                 2.8055
 Frc consts  --      0.0020                 0.0147                 0.0169
 IR Inten    --      1.8204                 2.6672                 0.1493

                      4                      5                      6
                      A                      A                      A
 Frequencies --    110.9202               163.3617               196.6346
 Red. masses --      3.4758                 3.0915                 2.1669
 Frc consts  --      0.0252                 0.0486                 0.0494
 IR Inten    --      1.8469                 3.3814                 4.4762

                      7                      8                      9
                      A                      A                      A
 Frequencies --    217.2734               227.2758               310.5141
 Red. masses --      2.5798                 1.7787                 3.1366
 Frc consts  --      0.0718                 0.0541                 0.1782
 IR Inten    --      9.1993                 0.6100                 3.5408

                     10                     11                     12
                      A                      A                      A
 Frequencies --    318.4342               332.4925               342.9703
 Red. masses --      2.0012                 1.6790                 1.1793
 Frc consts  --      0.1196                 0.1094                 0.0817
 IR Inten    --      4.5266                28.4260                55.8195

                     13                     14                     15
                      A                      A                      A
 Frequencies --    358.4397               409.0854               425.0608
 Red. masses --      1.6440                 2.9022                 2.3836
 Frc consts  --      0.1244                 0.2862                 0.2537
 IR Inten    --     24.7518                 3.5984                 5.7731

                     16                     17                     18
                      A                      A                      A
 Frequencies --    489.8221               589.1179               624.4493
 Red. masses --      2.6366                 1.0688                 3.8115
 Frc consts  --      0.3727                 0.2186                 0.8757
 IR Inten    --      6.1715               164.8517                17.2003

                     19                     20                     21
                      A                      A                      A
 Frequencies --    664.1594               707.8849               774.3173
 Red. masses --      4.4674                 2.3988                 2.1233
 Frc consts  --      1.1610                 0.7082                 0.7501
 IR Inten    --     14.7503                11.2078                 0.9540

                     22                     23                     24
                      A                      A                      A
 Frequencies --    801.8070               821.8956               894.4895
 Red. masses --      1.4012                 1.3845                 2.7210
 Frc consts  --      0.5307                 0.5510                 1.2827
 IR Inten    --      8.3313                19.7581                16.0821

                     25                     26                     27
                      A                      A                      A
 Frequencies --    920.0836               969.2723               980.9345
 Red. masses --      1.9896                 2.0128                 1.6859
 Frc consts  --      0.9923                 1.1141                 0.9558
 IR Inten    --     16.9649                35.3161                14.2049

                     28                     29                     30
                      A                      A                      A
 Frequencies --   1011.8715              1036.3801              1062.8935
 Red. masses --      2.2937                 2.2176                 2.7643
 Frc consts  --      1.3837                 1.4033                 1.8400
 IR Inten    --     32.7903                57.2936                45.7186

                     31                     32                     33
                      A                      A                      A
 Frequencies --   1085.6514              1102.5377              1119.6996
 Red. masses --      2.1634                 1.8666                 2.7365
 Frc consts  --      1.5023                 1.3369                 2.0214
 IR Inten    --     79.5751                37.7961                41.6456

                     34                     35                     36
                      A                      A                      A
 Frequencies --   1164.5504              1210.5335              1228.8024
 Red. masses --      1.6451                 1.3132                 1.7484
 Frc consts  --      1.3145                 1.1338                 1.5555
 IR Inten    --     20.7214                17.4556                24.4529

                     37                     38                     39
                      A                      A                      A
 Frequencies --   1264.9838              1270.2358              1297.7069
 Red. masses --      1.3733                 1.3142                 1.6462
 Frc consts  --      1.2948                 1.2493                 1.6334
 IR Inten    --     34.9501                14.8874                25.3542

                     40                     41                     42
                      A                      A                      A
 Frequencies --   1348.5947              1367.1078              1390.7099
 Red. masses --      1.2061                 1.2501                 1.3101
 Frc consts  --      1.2924                 1.3765                 1.4929
 IR Inten    --     27.7263                21.8365                12.2903

                     43                     44                     45
                      A                      A                      A
 Frequencies --   1405.5339              1418.4959              1426.4027
 Red. masses --      1.2295                 1.3233                 1.1850
 Frc consts  --      1.4311                 1.5688                 1.4205
 IR Inten    --      3.3677                34.2067                30.0790

                     46                     47                     48
                      A                      A                      A
 Frequencies --   1439.5373              1449.1888              1467.1365
 Red. masses --      1.2405                 1.1671                 1.4593
 Frc consts  --      1.5146                 1.4442                 1.8507
 IR Inten    --     17.6966                31.1917                42.0036

                     49                     50                     51
                      A                      A                      A
 Frequencies --   1512.2821              1518.8815              1523.5777
 Red. masses --      1.0841                 1.0687                 1.0835
 Frc consts  --      1.4607                 1.4526                 1.4819
 IR Inten    --      8.8452                 7.0680                 4.3555

                     52                     53                     54
                      A                      A                      A
 Frequencies --   1528.3816              1534.9873              1551.2723
 Red. masses --      1.0556                 1.0691                 1.0854
 Frc consts  --      1.4529                 1.4842                 1.5389
 IR Inten    --      5.3454                 5.3302                10.8759

                     55                     56                     57
                      A                      A                      A
 Frequencies --   2627.8113              3011.5603              3041.8723
 Red. masses --      1.0373                 1.0703                 1.0697
 Frc consts  --      4.2201                 5.7190                 5.8315
 IR Inten    --     32.8904                38.7771                46.3037

                     58                     59                     60
                      A                      A                      A
 Frequencies --   3061.5035              3062.5814              3071.3264
 Red. masses --      1.0461                 1.0715                 1.0718
 Frc consts  --      5.7769                 5.9214                 5.9570
 IR Inten    --     31.8132                 8.5124                43.4927

                     61                     62                     63
                      A                      A                      A
 Frequencies --   3077.7665              3089.4810              3102.7791
 Red. masses --      1.0711                 1.0852                 1.0890
 Frc consts  --      5.9777                 6.1029                 6.1773
 IR Inten    --     12.2016                23.5775                24.6337

                     64                     65                     66
                      A                      A                      A
 Frequencies --   3127.6257              3131.9084              3136.3499
 Red. masses --      1.0982                 1.1042                 1.1036
 Frc consts  --      6.3292                 6.3812                 6.3961
 IR Inten    --     26.2473                17.5588                30.5731

                     67                     68                     69
                      A                      A                      A
 Frequencies --   3149.7947              3657.9169              3769.6017
 Red. masses --      1.1016                 1.0650                 1.0660
 Frc consts  --      6.4395                 8.3956                 8.9248
 IR Inten    --     35.6394                62.1408                18.5368

 - Thermochemistry -
 -------------------
 Temperature   298.150 Kelvin.  Pressure   1.00000 Atm.
 Atom     1 has atomic number  6 and mass  12.00000

 Molecular mass:   165.08235 amu.
 Principal axes and moments of inertia in atomic units:
                           1         2         3
     Eigenvalues --  1025.653532955.555013169.01165
           X            0.99985  -0.00770  -0.01526
           Y            0.00735   0.99972  -0.02253
           Z            0.01543   0.02242   0.99963
 This molecule is an asymmetric top.
 Rotational symmetry number  1.
 Warning -- assumption of classical behavior for rotation
           may cause significant error
 Rotational temperatures (Kelvin)      0.08445     0.02931     0.02733
 Rotational constants (GHZ):           1.75960     0.61063     0.56950
 Zero-point vibrational energy     572430.2 (Joules/Mol)
                                  136.81411 (Kcal/Mol)
 Warning -- explicit consideration of  17 degrees of freedom as
           vibrations may cause significant error
 Vibrational temperatures:     40.02    94.25   145.36   159.59   235.04
          (Kelvin)            282.91   312.61   327.00   446.76   458.16
                              478.38   493.46   515.71   588.58   611.57
                              704.74   847.61   898.44   955.58  1018.49
                             1114.07  1153.62  1182.52  1286.97  1323.80
                             1394.57  1411.35  1455.86  1491.12  1529.27
                             1562.01  1586.31  1611.00  1675.53  1741.69
                             1767.97  1820.03  1827.59  1867.11  1940.33
                             1966.96  2000.92  2022.25  2040.90  2052.28
                             2071.17  2085.06  2110.88  2175.84  2185.33
                             2192.09  2199.00  2208.50  2231.93  3780.83
                             4332.96  4376.58  4404.82  4406.37  4418.95
                             4428.22  4445.07  4464.21  4499.96  4506.12
                             4512.51  4531.85  5262.93  5423.62

 Zero-point correction=                           0.218027 (Hartree/Particle)
 Thermal correction to Energy=                    0.230277
 Thermal correction to Enthalpy=                  0.231221
 Thermal correction to Gibbs Free Energy=         0.179150
 Sum of electronic and zero-point Energies=           -840.846565
 Sum of electronic and thermal Energies=              -840.834315
 Sum of electronic and thermal Enthalpies=            -840.833371
 Sum of electronic and thermal Free Energies=         -840.885442

                     E (Thermal)             CV                S
                      KCal/Mol        Cal/Mol-Kelvin    Cal/Mol-Kelvin
 Total                  144.501             45.110            109.593
 Electronic               0.000              0.000              0.000
 Translational            0.889              2.981             41.212
 Rotational               0.889              2.981             30.642
 Vibrational            142.724             39.149             37.740
 Vibration     1          0.593              1.984              5.979
 Vibration     2          0.597              1.971              4.284
 Vibration     3          0.604              1.948              3.434
 Vibration     4          0.607              1.940              3.253
 Vibration     5          0.623              1.887              2.511
 Vibration     6          0.636              1.845              2.164
 Vibration     7          0.646              1.815              1.982
 Vibration     8          0.651              1.799              1.900
 Vibration     9          0.699              1.654              1.360
 Vibration    10          0.705              1.638              1.318
 Vibration    11          0.714              1.611              1.248
 Vibration    12          0.722              1.590              1.198
 Vibration    13          0.733              1.558              1.129
 Vibration    14          0.773              1.450              0.930
 Vibration    15          0.787              1.416              0.875
 Vibration    16          0.846              1.273              0.684
 Vibration    17          0.946              1.055              0.469

 Optimization completed.
    -- Stationary point found.
 Normal termination of Gaussian 16 at Tue Dec  8 13:35:50 2020.

 ----------------------------------------------------------------------
 # B3LYP/6-311++G(d,p) empiricaldispersion=gd3bj scf=xqc pop=npa geom=c
 heck
 ----------------------------------------------------------------------

 -------------------------------------
 CID_17775777_JID_770_Energie_neutraal
 -------------------------------------
 Structure from the checkpoint file:  "JID_770.chk"
 Charge =  0 Multiplicity = 1

 SCF Done:  E(RB3LYP) =  -841.242892046     A.U. after   13 cycles
 Normal termination of Gaussian 16 at Tue Dec  8 13:39:34 2020.

 ----------------------------------------------------------------------
 # B3LYP/6-311++G(d,p) empiricaldispersion=gd3bj scf=xqc pop=npa geom=c
 heck
 ----------------------------------------------------------------------

 -----------------------------------
 CID_17775777_JID_770_Energie_kation
 -----------------------------------
 Structure from the checkpoint file:  "JID_770.chk"
 Charge =  1 Multiplicity = 2

 SCF Done:  E(UB3LYP) =  -840.937892611     A.U. after   21 cycles
 Normal termination of Gaussian 16 at Tue Dec  8 13:45:37 2020.
 Gaussian 16:  ES64L-G16RevA.03 25-Dec-2016

 ----------------------------------------------------------------------
 # B3LYP/6-311++G(d,p) empiricaldispersion=gd3bj scf=xqc pop=npa geom=c
 heck
 ----------------------------------------------------------------------

 ----------------------------------
 CID_17775777_JID_770_Energie_anion
 ----------------------------------
 Structure from the checkpoint file:  "JID_770.chk"
 Charge = -1 Multiplicity = 2

                         Standard orientation:
 ---------------------------------------------------------------------
 Center     Atomic      Atomic             Coordinates (Angstroms)
 Number     Number       Type             X           Y           Z
 ---------------------------------------------------------------------
      1          6           0        1.046926    2.239741   -0.370985
      2          6           0        0.284843    1.019024   -0.910798
      3          7           0       -0.044810   -0.048486    0.036442
      4          6           0       -1.015829    0.334184    1.062042
      5          6           0       -2.403250    0.640538    0.490671
      6         16           0       -3.073197   -0.754376   -0.505615
      7          6           0        1.042680   -0.847421    0.580070
      8          6           0        1.991926   -1.401135   -0.498277
      9          8           0        3.080521   -0.508669   -0.759869
     10          8           0        1.817201   -0.196459    1.580985
     11          1           0        0.511122    2.706911    0.460492
     12          1           0        1.156392    2.990847   -1.162006
     13          1           0        2.042894    1.973701   -0.008671
     14          1           0       -0.656359    1.357784   -1.356602
     15          1           0        0.834220    0.569763   -1.748361
     16          1           0       -1.102171   -0.507695    1.755695
     17          1           0       -0.680259    1.198946    1.654913
     18          1           0       -3.099707    0.802277    1.317702
     19          1           0       -2.398023    1.553379   -0.112339
     20          1           0       -1.850149   -1.117156   -0.959547
     21          1           0        0.556810   -1.695589    1.075775
     22          1           0        2.458434   -2.310466   -0.112501
     23          1           0        1.440164   -1.654287   -1.410926
     24          1           0        2.775565    0.175507   -1.373951
     25          1           0        2.630348    0.096930    1.129798
 ---------------------------------------------------------------------

 SCF Done:  E(UB3LYP) =  -841.232005391     A.U. after   27 cycles

 The electronic state is 2-A.
 Alpha  occ. eigenvalues --  -88.73195 -19.03055 -19.01237 -14.20784 -10.14450
 Alpha  occ. eigenvalues --  -10.12040 -10.09800 -10.09776 -10.08925 -10.04895
 Alpha  occ. eigenvalues --   -7.81899  -5.78248  -5.77931  -5.77308  -0.94360
 Alpha  occ. eigenvalues --   -0.91148  -0.81914  -0.69117  -0.65258  -0.62386
 Alpha  occ. eigenvalues --   -0.58139  -0.54213  -0.51148  -0.46355  -0.42921
 Alpha  occ. eigenvalues --   -0.40321  -0.39065  -0.38586  -0.34930  -0.34492
 Alpha  occ. eigenvalues --   -0.32625  -0.32164  -0.30033  -0.29257  -0.28090
 Alpha  occ. eigenvalues --   -0.27179  -0.25536  -0.24732  -0.24125  -0.23679
 Alpha  occ. eigenvalues --   -0.22142  -0.19608  -0.18061  -0.13570  -0.12506
 Alpha  occ. eigenvalues --    0.04692
 Alpha virt. eigenvalues --    0.07190   0.07650   0.08833   0.09437   0.10099
 Alpha virt. eigenvalues --    0.10689   0.10914   0.11460   0.12317   0.12777
 Alpha virt. eigenvalues --    0.13494   0.14176   0.15148   0.15311   0.15676

  Beta  occ. eigenvalues --  -88.73188 -19.02996 -19.01223 -14.20789 -10.14446
  Beta  occ. eigenvalues --  -10.12010 -10.09774 -10.09750 -10.08869 -10.04843
  Beta  occ. eigenvalues --   -7.81893  -5.78233  -5.77927  -5.77304  -0.94278
  Beta  occ. eigenvalues --   -0.91068  -0.81892  -0.69077  -0.65184  -0.62312
  Beta  occ. eigenvalues --   -0.58077  -0.54115  -0.51065  -0.46264  -0.42850
  Beta  occ. eigenvalues --   -0.40230  -0.39029  -0.38534  -0.34875  -0.34445
  Beta  occ. eigenvalues --   -0.32584  -0.32113  -0.29986  -0.29174  -0.28030
  Beta  occ. eigenvalues --   -0.27130  -0.25483  -0.24667  -0.24080  -0.23632
  Beta  occ. eigenvalues --   -0.22103  -0.19562  -0.18030  -0.13549  -0.12491
  Beta virt. eigenvalues --    0.07198   0.07980   0.08528   0.09184   0.10217
  Beta virt. eigenvalues --    0.10286   0.11019   0.11298   0.11832   0.12568
  Beta virt. eigenvalues --    0.13333   0.14058   0.14375   0.15309   0.15631

 Mulliken charges and spin densities:
               1          2
     1  C    1.909802  -2.300327
     2  C   -1.090079   0.583095
     3  N    0.170034   0.062005
     4  C    0.040442  -0.255600
     5  C    0.323097  -0.598801
     6  S   -0.243222   0.115863
     7  C   -0.942021   0.587216
     8  C    1.352891  -1.809755
     9  O   -0.291189   0.014402
    10  O   -0.145306   0.007025
    11  H   -0.154981   0.295982
    12  H   -0.655621   0.817335
    13  H   -0.009248   0.128231
    14  H   -0.031365   0.172283
    15  H   -0.718988   0.876555
    16  H   -0.027653   0.168732
    17  H    0.016652   0.147857
    18  H   -0.190788   0.383557
    19  H   -0.094748   0.284963
    20  H    0.086513  -0.030105
    21  H    0.089874   0.056402
    22  H    0.066059   0.125571
    23  H   -0.382446   0.551680
    24  H   -0.230816   0.516123
    25  H    0.153108   0.099709
 Sum of Mulliken charges =  -1.00000   1.00000

 Dipole moment (field-independent basis, Debye):
    X=             -2.0730    Y=             -3.4356    Z=              3.7593  Tot=              5.4984
 Quadrupole moment (field-independent basis, Debye-Ang):
   XX=           -126.6912   YY=           -106.5657   ZZ=           -111.4339
   XY=             -2.9963   XZ=              8.2699   YZ=              5.2990

 Summary of Natural Population Analysis:

                                       Natural Population
                Natural  -----------------------------------------------
    Atom  No    Charge         Core      Valence    Rydberg      Total
 -----------------------------------------------------------------------
      C    1   -0.29650      0.99965     2.29094    0.00590     3.29650
      C    2   -0.09334      0.99961     2.07884    0.01489     3.09334
      N    3   -0.29188      0.99971     2.77699    0.01519     3.79188
      C    4   -0.09110      0.99958     2.07852    0.01300     3.09110
      C    5   -0.24695      0.99959     2.23786    0.00950     3.24695
      S    6   -0.04668      4.99966     3.03202    0.01501     8.04668
      C    7    0.14357      0.99958     1.84040    0.01645     2.85643
      C    8   -0.02657      0.99958     2.01381    0.01318     3.02657
      O    9   -0.37887      0.99990     3.37166    0.00731     4.37887
      O   10   -0.38288      0.99989     3.37665    0.00633     4.38288
      H   11    0.09824      0.00000     0.40061    0.00115     0.40176
      H   12    0.10420      0.00000     0.39365    0.00214     0.39580
      H   13    0.09620      0.00000     0.40226    0.00154     0.40380
      H   14    0.09879      0.00000     0.39934    0.00188     0.40121
      H   15    0.09455      0.00000     0.40156    0.00389     0.40545
      H   16    0.09880      0.00000     0.39988    0.00132     0.40120
      H   17    0.09614      0.00000     0.40250    0.00136     0.40386
      H   18    0.10527      0.00000     0.39324    0.00149     0.39473
      H   19    0.10105      0.00000     0.39709    0.00187     0.39895
      H   20    0.07286      0.00000     0.42374    0.00339     0.42714
      H   21    0.08461      0.00000     0.41381    0.00157     0.41539
      H   22    0.09021      0.00000     0.40878    0.00100     0.40979
      H   23    0.09121      0.00000     0.40717    0.00162     0.40879
      H   24    0.24289      0.00000     0.24728    0.00983     0.25711
      H   25    0.23617      0.00000     0.26014    0.00369     0.26383
 =======================================================================
   * Total *   -0.00000     13.99674    30.84877    0.15449    45.00000

 Normal termination of Gaussian 16 at Tue Dec  8 13:52:44 2020.
