 Gaussian 16, Revision A.03,

 -----------------------------------------------------------
 # opt freq B3LYP/6-31G(d) empiricaldispersion=gd3bj scf=xqc
 -----------------------------------------------------------

 -----------------------------
 CID_69162041_JID_275_neutraal
 -----------------------------
 Symbolic Z-matrix:
 Charge =  0 Multiplicity = 1

 SCF Done:  E(RB3LYP) =  -797.693422142     A.U. after   16 cycles
 SCF Done:  E(RB3LYP) =  -797.697141203     A.U. after   12 cycles
 SCF Done:  E(RB3LYP) =  -797.697741625     A.U. after   12 cycles
 SCF Done:  E(RB3LYP) =  -797.697819016     A.U. after   12 cycles
 SCF Done:  E(RB3LYP) =  -797.698029546     A.U. after   12 cycles
 SCF Done:  E(RB3LYP) =  -797.698082785     A.U. after   11 cycles
 SCF Done:  E(RB3LYP) =  -797.698089675     A.U. after   10 cycles
 SCF Done:  E(RB3LYP) =  -797.698091115     A.U. after    9 cycles
 SCF Done:  E(RB3LYP) =  -797.698093211     A.U. after   10 cycles
 SCF Done:  E(RB3LYP) =  -797.698095068     A.U. after   10 cycles
 SCF Done:  E(RB3LYP) =  -797.698112628     A.U. after   10 cycles
 SCF Done:  E(RB3LYP) =  -797.698114259     A.U. after   10 cycles
 SCF Done:  E(RB3LYP) =  -797.698114619     A.U. after    9 cycles
 SCF Done:  E(RB3LYP) =  -797.698115004     A.U. after    9 cycles
 SCF Done:  E(RB3LYP) =  -797.698115120     A.U. after    9 cycles
 SCF Done:  E(RB3LYP) =  -797.698115154     A.U. after    8 cycles
 Optimization completed.
    -- Stationary point found.
 Normal termination of Gaussian 16 at Tue Dec  8 10:25:05 2020.

 --------------------------------------------------------------------
 #N Geom=AllCheck Guess=TCheck SCRF=Check GenChk RB3LYP/6-31G(d) Freq
 --------------------------------------------------------------------

 Structure from the checkpoint file:  "JID_275.chk"
 -----------------------------
 CID_69162041_JID_275_neutraal
 -----------------------------
 Charge =  0 Multiplicity = 1

 SCF Done:  E(RB3LYP) =  -797.698115154     A.U. after    1 cycles

  Exact polarizability: 127.726  -5.780  98.832  -3.329   8.894  66.608
 Approx polarizability: 195.410 -18.775 171.143 -11.405  31.914 106.802

                      1                      2                      3
                      A                      A                      A
 Frequencies --     28.1278                69.7542                77.3011
 Red. masses --      3.6912                 4.0516                 2.6452
 Frc consts  --      0.0017                 0.0116                 0.0093
 IR Inten    --      2.7764                 0.9918                 0.3433

                      4                      5                      6
                      A                      A                      A
 Frequencies --     95.3191               192.4941               229.0978
 Red. masses --      3.6269                 1.7173                 1.0670
 Frc consts  --      0.0194                 0.0375                 0.0330
 IR Inten    --      1.9287                 0.5646                 0.4194

                      7                      8                      9
                      A                      A                      A
 Frequencies --    243.6891               281.2422               317.5389
 Red. masses --      3.1528                 1.7876                 2.9633
 Frc consts  --      0.1103                 0.0833                 0.1760
 IR Inten    --      0.1554                 1.1253                 0.4079

                     10                     11                     12
                      A                      A                      A
 Frequencies --    381.6058               417.2296               507.2990
 Red. masses --      2.3940                 4.3330                 6.1407
 Frc consts  --      0.2054                 0.4444                 0.9311
 IR Inten    --      0.8703                 8.8630                 3.6805

                     13                     14                     15
                      A                      A                      A
 Frequencies --    518.6862               536.5561               586.6884
 Red. masses --      6.9265                 3.3942                 3.9309
 Frc consts  --      1.0979                 0.5757                 0.7972
 IR Inten    --     23.4454                 3.7551                10.5959

                     16                     17                     18
                      A                      A                      A
 Frequencies --    668.4624               708.8568               779.8855
 Red. masses --      1.3371                 6.4665                 3.1511
 Frc consts  --      0.3520                 1.9144                 1.1292
 IR Inten    --     24.7713                21.0196                20.5032

                     19                     20                     21
                      A                      A                      A
 Frequencies --    798.3293               801.1007               882.5277
 Red. masses --      1.2517                 1.3243                 4.1262
 Frc consts  --      0.4700                 0.5008                 1.8935
 IR Inten    --      3.4382                 0.9407                21.5624

                     22                     23                     24
                      A                      A                      A
 Frequencies --    899.4693               946.4965               985.2195
 Red. masses --      3.2658                 2.2716                 3.3842
 Frc consts  --      1.5567                 1.1990                 1.9354
 IR Inten    --      2.1930                 1.4373                 2.5436

                     25                     26                     27
                      A                      A                      A
 Frequencies --   1047.4425              1105.3211              1116.3083
 Red. masses --      2.4651                 1.9766                 1.7477
 Frc consts  --      1.5935                 1.4228                 1.2832
 IR Inten    --     14.2844                13.1421                 8.2606

                     28                     29                     30
                      A                      A                      A
 Frequencies --   1129.4384              1166.7847              1226.6184
 Red. masses --      1.6686                 1.5786                 3.1408
 Frc consts  --      1.2541                 1.2662                 2.7843
 IR Inten    --     18.6091                20.6583                46.7296

                     31                     32                     33
                      A                      A                      A
 Frequencies --   1268.4610              1313.6058              1363.8098
 Red. masses --      1.9958                 2.0972                 2.3629
 Frc consts  --      1.8920                 2.1322                 2.5894
 IR Inten    --     26.9749                34.9361                17.1750

                     34                     35                     36
                      A                      A                      A
 Frequencies --   1370.3945              1402.3962              1420.4302
 Red. masses --      1.4155                 1.3154                 1.2828
 Frc consts  --      1.5663                 1.5243                 1.5250
 IR Inten    --      7.8177                24.1470                34.4539

                     37                     38                     39
                      A                      A                      A
 Frequencies --   1437.9246              1439.6528              1446.2627
 Red. masses --      1.3075                 1.3470                 3.0089
 Frc consts  --      1.5928                 1.6449                 3.7082
 IR Inten    --     31.0550                33.7502                29.5577

                     40                     41                     42
                      A                      A                      A
 Frequencies --   1507.9701              1518.5163              1521.2163
 Red. masses --      1.0723                 1.0761                 1.0508
 Frc consts  --      1.4366                 1.4620                 1.4327
 IR Inten    --      3.0500                22.7848                 3.4475

                     43                     44                     45
                      A                      A                      A
 Frequencies --   1523.6804              1533.3789              1536.7834
 Red. masses --      1.0614                 1.0634                 1.0976
 Frc consts  --      1.4518                 1.4731                 1.5273
 IR Inten    --      0.6944                 6.0005                13.4060

                     46                     47                     48
                      A                      A                      A
 Frequencies --   1617.4472              3027.3744              3051.0400
 Red. masses --      5.0767                 1.0679                 1.0362
 Frc consts  --      7.8251                 5.7667                 5.6834
 IR Inten    --    414.2310                35.4509                23.3712

                     49                     50                     51
                      A                      A                      A
 Frequencies --   3054.7938              3065.4151              3091.8210
 Red. masses --      1.0355                 1.0688                 1.0952
 Frc consts  --      5.6932                 5.9173                 6.1683
 IR Inten    --     20.0264                30.1537                16.9203

                     52                     53                     54
                      A                      A                      A
 Frequencies --   3111.6338              3124.2581              3131.0472
 Red. masses --      1.1017                 1.1022                 1.0974
 Frc consts  --      6.2846                 6.3385                 6.3388
 IR Inten    --     19.0696                33.7716                26.5807

                     55                     56                     57
                      A                      A                      A
 Frequencies --   3133.3629              3142.8238              3300.7195
 Red. masses --      1.1033                 1.1035                 1.0935
 Frc consts  --      6.3820                 6.4219                 7.0190
 IR Inten    --     28.6380                32.3803                 6.6861

 - Thermochemistry -
 -------------------
 Temperature   298.150 Kelvin.  Pressure   1.00000 Atm.
 Atom     1 has atomic number  6 and mass  12.00000

 Molecular mass:   157.06737 amu.
 Principal axes and moments of inertia in atomic units:
                           1         2         3
     Eigenvalues --  1039.767212176.732652975.81563
           X            0.99999  -0.00414   0.00153
           Y            0.00416   0.99988  -0.01517
           Z           -0.00147   0.01518   0.99988
 This molecule is an asymmetric top.
 Rotational symmetry number  1.
 Warning -- assumption of classical behavior for rotation
           may cause significant error
 Rotational temperatures (Kelvin)      0.08330     0.03979     0.02911
 Rotational constants (GHZ):           1.73572     0.82911     0.60647
 Zero-point vibrational energy     455783.9 (Joules/Mol)
                                  108.93496 (Kcal/Mol)
 Warning -- explicit consideration of  15 degrees of freedom as
           vibrations may cause significant error
 Vibrational temperatures:     40.47   100.36   111.22   137.14   276.96
          (Kelvin)            329.62   350.61   404.64   456.87   549.05
                              600.30   729.89   746.27   771.98   844.11
                              961.77  1019.89  1122.08  1148.62  1152.61
                             1269.76  1294.14  1361.80  1417.51  1507.04
                             1590.31  1606.12  1625.01  1678.74  1764.83
                             1825.03  1889.99  1962.22  1971.69  2017.74
                             2043.68  2068.85  2071.34  2080.85  2169.63
                             2184.81  2188.69  2192.24  2206.19  2211.09
                             2327.15  4355.72  4389.77  4395.17  4410.45
                             4448.44  4476.95  4495.11  4504.88  4508.21
                             4521.82  4749.00

 Zero-point correction=                           0.173599 (Hartree/Particle)
 Thermal correction to Energy=                    0.184384
 Thermal correction to Enthalpy=                  0.185328
 Thermal correction to Gibbs Free Energy=         0.135774
 Sum of electronic and zero-point Energies=           -797.524516
 Sum of electronic and thermal Energies=              -797.513732
 Sum of electronic and thermal Enthalpies=            -797.512787
 Sum of electronic and thermal Free Energies=         -797.562341

                     E (Thermal)             CV                S
                      KCal/Mol        Cal/Mol-Kelvin    Cal/Mol-Kelvin
 Total                  115.702             38.790            104.295
 Electronic               0.000              0.000              0.000
 Translational            0.889              2.981             41.064
 Rotational               0.889              2.981             30.289
 Vibrational            113.925             32.828             32.942
 Vibration     1          0.593              1.984              5.957
 Vibration     2          0.598              1.969              4.160
 Vibration     3          0.599              1.964              3.958
 Vibration     4          0.603              1.953              3.548
 Vibration     5          0.634              1.850              2.204
 Vibration     6          0.652              1.797              1.886
 Vibration     7          0.659              1.773              1.776
 Vibration     8          0.681              1.708              1.526
 Vibration     9          0.704              1.640              1.323
 Vibration    10          0.751              1.509              1.033
 Vibration    11          0.780              1.433              0.901
 Vibration    12          0.862              1.234              0.640
 Vibration    13          0.874              1.209              0.613
 Vibration    14          0.892              1.169              0.573
 Vibration    15          0.944              1.060              0.473

 Optimization completed.
    -- Stationary point found.
 Normal termination of Gaussian 16 at Tue Dec  8 10:28:57 2020.

 ----------------------------------------------------------------------
 # B3LYP/6-311++G(d,p) empiricaldispersion=gd3bj scf=xqc pop=npa geom=c
 heck
 ----------------------------------------------------------------------

 -------------------------------------
 CID_69162041_JID_275_Energie_neutraal
 -------------------------------------
 Structure from the checkpoint file:  "JID_275.chk"
 Charge =  0 Multiplicity = 1

 SCF Done:  E(RB3LYP) =  -797.832218560     A.U. after   16 cycles
 Normal termination of Gaussian 16 at Tue Dec  8 10:30:51 2020.

 ----------------------------------------------------------------------
 # B3LYP/6-311++G(d,p) empiricaldispersion=gd3bj scf=xqc pop=npa geom=c
 heck
 ----------------------------------------------------------------------

 -----------------------------------
 CID_69162041_JID_275_Energie_kation
 -----------------------------------
 Structure from the checkpoint file:  "JID_275.chk"
 Charge =  1 Multiplicity = 2

 SCF Done:  E(UB3LYP) =  -797.555240808     A.U. after   20 cycles
 Normal termination of Gaussian 16 at Tue Dec  8 10:37:15 2020.
 Gaussian 16:  ES64L-G16RevA.03 25-Dec-2016

 ----------------------------------------------------------------------
 # B3LYP/6-311++G(d,p) empiricaldispersion=gd3bj scf=xqc pop=npa geom=c
 heck
 ----------------------------------------------------------------------

 ----------------------------------
 CID_69162041_JID_275_Energie_anion
 ----------------------------------
 Structure from the checkpoint file:  "JID_275.chk"
 Charge = -1 Multiplicity = 2

                         Standard orientation:
 ---------------------------------------------------------------------
 Center     Atomic      Atomic             Coordinates (Angstroms)
 Number     Number       Type             X           Y           Z
 ---------------------------------------------------------------------
      1          6           0        1.947833    2.358920   -0.444433
      2          6           0        1.810269    1.153848    0.491200
      3          7           0        1.113235    0.033577   -0.122276
      4          6           0        1.872492   -1.151549   -0.518417
      5          6           0        2.072723   -2.154690    0.619739
      6          6           0       -0.256129   -0.011167   -0.070454
      7          6           0       -1.131950    0.970243    0.364937
      8         16           0       -2.733923    0.388709    0.206400
      9          7           0       -2.183190   -1.126528   -0.425438
     10          7           0       -0.907615   -1.156203   -0.496897
     11          1           0        2.521389    2.087730   -1.336875
     12          1           0        2.462119    3.185061    0.059941
     13          1           0        0.966493    2.715011   -0.773987
     14          1           0        2.801965    0.803034    0.795219
     15          1           0        1.290221    1.444349    1.414880
     16          1           0        1.349690   -1.630246   -1.349394
     17          1           0        2.838616   -0.801800   -0.899185
     18          1           0        1.105198   -2.531448    0.964570
     19          1           0        2.672486   -3.006992    0.280208
     20          1           0        2.588448   -1.692474    1.469475
     21          1           0       -0.902292    1.958876    0.729588
 ---------------------------------------------------------------------

 SCF Done:  E(UB3LYP) =  -797.827611171     A.U. after   30 cycles

 The electronic state is 2-A.
 Alpha  occ. eigenvalues --  -88.73810 -14.20391 -14.20285 -14.19186 -10.10080
 Alpha  occ. eigenvalues --  -10.08977 -10.08687 -10.04986 -10.04738 -10.04711
 Alpha  occ. eigenvalues --   -7.82383  -5.78726  -5.78301  -5.77965  -0.89305
 Alpha  occ. eigenvalues --   -0.82412  -0.66792  -0.65597  -0.65004  -0.59609
 Alpha  occ. eigenvalues --   -0.52913  -0.50279  -0.47115  -0.41494  -0.39417
 Alpha  occ. eigenvalues --   -0.36229  -0.33139  -0.32563  -0.31586  -0.30558
 Alpha  occ. eigenvalues --   -0.28701  -0.28169  -0.26403  -0.26072  -0.24665
 Alpha  occ. eigenvalues --   -0.23453  -0.23264  -0.19627  -0.17349  -0.15652
 Alpha  occ. eigenvalues --   -0.11133  -0.07055   0.04969
 Alpha virt. eigenvalues --    0.06907   0.08114   0.09254   0.09841   0.10874
 Alpha virt. eigenvalues --    0.11503   0.11969   0.12738   0.13097   0.13189
 Alpha virt. eigenvalues --    0.14444   0.14583   0.15661   0.16010   0.17230

  Beta  occ. eigenvalues --  -88.73762 -14.20404 -14.19711 -14.18972 -10.10124
  Beta  occ. eigenvalues --  -10.08964 -10.08676 -10.04975 -10.04665 -10.04528
  Beta  occ. eigenvalues --   -7.82341  -5.78710  -5.78284  -5.77797  -0.88715
  Beta  occ. eigenvalues --   -0.82326  -0.66558  -0.65403  -0.64775  -0.59361
  Beta  occ. eigenvalues --   -0.52838  -0.50101  -0.46665  -0.41306  -0.39319
  Beta  occ. eigenvalues --   -0.36098  -0.33047  -0.32506  -0.31357  -0.30252
  Beta  occ. eigenvalues --   -0.28527  -0.27235  -0.26349  -0.26001  -0.24541
  Beta  occ. eigenvalues --   -0.23383  -0.23122  -0.19131  -0.16640  -0.14282
  Beta  occ. eigenvalues --   -0.10658  -0.06148
  Beta virt. eigenvalues --    0.07597   0.08571   0.09561   0.10249   0.10620
  Beta virt. eigenvalues --    0.11193   0.11800   0.12019   0.12848   0.13277
  Beta virt. eigenvalues --    0.13387   0.14586   0.14880   0.15667   0.16114

 Mulliken charges and spin densities:
               1          2
     1  C    1.208111  -1.669522
     2  C   -0.704467   0.429686
     3  N    0.186962   0.012069
     4  C   -0.086467  -0.206221
     5  C   -0.024777  -0.383265
     6  C   -0.757582  -0.119225
     7  C    0.468454   0.077020
     8  S   -0.147472   0.031869
     9  N    0.134617   0.226834
    10  N   -0.390098   0.098210
    11  H   -0.110597   0.249716
    12  H   -0.512457   0.636604
    13  H   -0.090814   0.233971
    14  H   -0.520476   0.658685
    15  H    0.140460   0.000682
    16  H    0.241384  -0.065263
    17  H   -0.237693   0.379954
    18  H    0.093963   0.071654
    19  H   -0.029791   0.140243
    20  H    0.058524   0.068194
    21  H    0.080218   0.128107
 Sum of Mulliken charges =  -1.00000   1.00000

 Dipole moment (field-independent basis, Debye):
    X=             -1.2258    Y=             -1.1089    Z=              0.5938  Tot=              1.7564
 Quadrupole moment (field-independent basis, Debye-Ang):
   XX=           -122.0745   YY=           -102.8696   ZZ=            -84.5858
   XY=            -15.0311   XZ=             -3.1822   YZ=             -0.6869

 Summary of Natural Population Analysis:

                                       Natural Population
                Natural  -----------------------------------------------
    Atom  No    Charge         Core      Valence    Rydberg      Total
 -----------------------------------------------------------------------
      C    1   -0.29040      0.99966     2.28505    0.00569     3.29040
      C    2   -0.08211      0.99963     2.07046    0.01202     3.08211
      N    3   -0.26318      0.99963     2.75124    0.01230     3.76318
      C    4   -0.08132      0.99963     2.06983    0.01187     3.08132
      C    5   -0.29537      0.99966     2.29023    0.00547     3.29537
      C    6    0.13937      0.99948     1.84429    0.01686     2.86063
      C    7   -0.22761      0.99953     2.21823    0.00984     3.22761
      S    8    0.23819      4.99950     2.73308    0.02923     7.76181
      N    9   -0.10153      0.99982     2.58523    0.01648     3.60153
      N   10   -0.11423      0.99970     2.59955    0.01499     3.61423
      H   11    0.09739      0.00000     0.40135    0.00126     0.40261
      H   12    0.09756      0.00000     0.39996    0.00248     0.40244
      H   13    0.10031      0.00000     0.39829    0.00141     0.39969
      H   14    0.09544      0.00000     0.40287    0.00169     0.40456
      H   15    0.09068      0.00000     0.40752    0.00180     0.40932
      H   16    0.10446      0.00000     0.39372    0.00182     0.39554
      H   17    0.09034      0.00000     0.40841    0.00126     0.40966
      H   18    0.10610      0.00000     0.39261    0.00129     0.39390
      H   19    0.09286      0.00000     0.40602    0.00111     0.40714
      H   20    0.09451      0.00000     0.40442    0.00108     0.40549
      H   21    0.10854      0.00000     0.38981    0.00164     0.39146
 =======================================================================
   * Total *   -0.00000     13.99624    27.85219    0.15158    42.00000

 Normal termination of Gaussian 16 at Tue Dec  8 10:45:20 2020.
