 Gaussian 16, Revision A.03,

 -----------------------------------------------------------
 # opt freq B3LYP/6-31G(d) empiricaldispersion=gd3bj scf=xqc
 -----------------------------------------------------------

 ------------------------------
 CID_54287710_JID_3632_neutraal
 ------------------------------
 Symbolic Z-matrix:
 Charge =  0 Multiplicity = 1

 SCF Done:  E(RB3LYP) =  -1316.71999035     A.U. after   14 cycles
 SCF Done:  E(RB3LYP) =  -1316.72293326     A.U. after   13 cycles
 SCF Done:  E(RB3LYP) =  -1316.72047865     A.U. after   13 cycles
 SCF Done:  E(RB3LYP) =  -1316.72544683     A.U. after   12 cycles
 SCF Done:  E(RB3LYP) =  -1316.72255534     A.U. after   13 cycles
 SCF Done:  E(RB3LYP) =  -1316.72366535     A.U. after   13 cycles
 SCF Done:  E(RB3LYP) =  -1316.72651944     A.U. after   10 cycles
 SCF Done:  E(RB3LYP) =  -1316.72718765     A.U. after   12 cycles
 SCF Done:  E(RB3LYP) =  -1316.72654951     A.U. after   12 cycles
 SCF Done:  E(RB3LYP) =  -1316.72772410     A.U. after   12 cycles
 SCF Done:  E(RB3LYP) =  -1316.72795368     A.U. after   10 cycles
 SCF Done:  E(RB3LYP) =  -1316.72795448     A.U. after    8 cycles
 SCF Done:  E(RB3LYP) =  -1316.72795523     A.U. after    8 cycles
 SCF Done:  E(RB3LYP) =  -1316.72795556     A.U. after    8 cycles
 SCF Done:  E(RB3LYP) =  -1316.72795559     A.U. after    7 cycles
 Optimization completed.
    -- Stationary point found.
 Normal termination of Gaussian 16 at Mon Dec 14 13:14:56 2020.

 --------------------------------------------------------------------
 #N Geom=AllCheck Guess=TCheck SCRF=Check GenChk RB3LYP/6-31G(d) Freq
 --------------------------------------------------------------------

 Structure from the checkpoint file:  "JID_3632.chk"
 ------------------------------
 CID_54287710_JID_3632_neutraal
 ------------------------------
 Charge =  0 Multiplicity = 1

 SCF Done:  E(RB3LYP) =  -1316.72795559     A.U. after    1 cycles

  Exact polarizability: 152.868   1.630 110.660  -9.365  -4.457 120.460
 Approx polarizability: 197.029   2.396 162.693 -16.254  -8.717 199.098

                      1                      2                      3
                      A                      A                      A
 Frequencies --     27.5093                42.3341                88.4892
 Red. masses --      3.9798                 4.2074                 3.8463
 Frc consts  --      0.0018                 0.0044                 0.0177
 IR Inten    --      1.1819                 1.0662                 5.6298

                      4                      5                      6
                      A                      A                      A
 Frequencies --     92.9210               100.1243               126.5426
 Red. masses --      6.8004                 5.9325                 4.0456
 Frc consts  --      0.0346                 0.0350                 0.0382
 IR Inten    --      3.5777                 0.7864                 1.3778

                      7                      8                      9
                      A                      A                      A
 Frequencies --    144.4676               162.8615               165.7059
 Red. masses --      4.1961                 3.6514                 3.4498
 Frc consts  --      0.0516                 0.0571                 0.0558
 IR Inten    --      2.0138                 0.8377                 2.8454

                     10                     11                     12
                      A                      A                      A
 Frequencies --    187.5193               202.5647               222.9366
 Red. masses --      1.1953                 1.0770                 4.0045
 Frc consts  --      0.0248                 0.0260                 0.1173
 IR Inten    --      0.6558                 0.4667                 2.1210

                     13                     14                     15
                      A                      A                      A
 Frequencies --    259.1436               278.3268               304.5349
 Red. masses --      3.7926                 2.2213                 1.4844
 Frc consts  --      0.1501                 0.1014                 0.0811
 IR Inten    --      2.1755                 3.2272                24.0271

                     16                     17                     18
                      A                      A                      A
 Frequencies --    311.4063               331.5192               346.2069
 Red. masses --      3.0605                 1.7288                 2.5089
 Frc consts  --      0.1749                 0.1119                 0.1772
 IR Inten    --      2.1768                 5.3891                12.6582

                     19                     20                     21
                      A                      A                      A
 Frequencies --    381.5641               441.6722               483.9730
 Red. masses --      2.7411                 2.4083                 2.9987
 Frc consts  --      0.2351                 0.2768                 0.4138
 IR Inten    --      8.8490                11.3742                10.9108

                     22                     23                     24
                      A                      A                      A
 Frequencies --    509.2409               578.7034               598.0225
 Red. masses --      3.7622                 1.3560                 2.6044
 Frc consts  --      0.5748                 0.2676                 0.5488
 IR Inten    --     14.3400                54.4399                28.1550

                     25                     26                     27
                      A                      A                      A
 Frequencies --    650.2963               659.0048               705.2587
 Red. masses --      4.1514                 4.0845                 3.0316
 Frc consts  --      1.0343                 1.0451                 0.8884
 IR Inten    --     12.9065                12.1081                16.5036

                     28                     29                     30
                      A                      A                      A
 Frequencies --    718.7025               722.6705               757.9665
 Red. masses --      5.4855                 6.0544                 3.7060
 Frc consts  --      1.6694                 1.8629                 1.2545
 IR Inten    --      4.4512                 1.7098                49.7810

                     31                     32                     33
                      A                      A                      A
 Frequencies --    844.6603               855.6010               871.9530
 Red. masses --      2.0027                 2.0980                 2.1071
 Frc consts  --      0.8418                 0.9049                 0.9439
 IR Inten    --      7.2767                25.5333                42.2639

                     34                     35                     36
                      A                      A                      A
 Frequencies --    910.2573               961.8761               995.6527
 Red. masses --      1.6218                 1.5013                 1.3731
 Frc consts  --      0.7917                 0.8184                 0.8020
 IR Inten    --     45.7534                20.0254                16.2656

                     37                     38                     39
                      A                      A                      A
 Frequencies --   1005.0803              1007.4781              1015.6666
 Red. masses --      1.2150                 1.2758                 2.1542
 Frc consts  --      0.7231                 0.7629                 1.3093
 IR Inten    --      6.5955                41.7827                40.4610

                     40                     41                     42
                      A                      A                      A
 Frequencies --   1026.7703              1057.7371              1065.6373
 Red. masses --      1.4392                 2.1542                 2.2195
 Frc consts  --      0.8939                 1.4200                 1.4850
 IR Inten    --      0.6529                10.5486                 0.8470

                     43                     44                     45
                      A                      A                      A
 Frequencies --   1116.8790              1136.6341              1175.6182
 Red. masses --      2.4898                 2.2883                 1.9954
 Frc consts  --      1.8299                 1.7418                 1.6248
 IR Inten    --     24.5177                30.3363               188.7506

                     46                     47                     48
                      A                      A                      A
 Frequencies --   1182.7481              1245.2484              1276.8067
 Red. masses --      1.0956                 1.2544                 1.2586
 Frc consts  --      0.9030                 1.1460                 1.2088
 IR Inten    --      5.8379                 3.0660                 6.5562

                     49                     50                     51
                      A                      A                      A
 Frequencies --   1298.8552              1323.3710              1339.5570
 Red. masses --      1.3101                 1.3237                 1.2725
 Frc consts  --      1.3022                 1.3659                 1.3453
 IR Inten    --      8.9528                36.1461                 0.4858

                     52                     53                     54
                      A                      A                      A
 Frequencies --   1366.2410              1377.5025              1380.4169
 Red. masses --      1.8899                 1.3422                 1.2449
 Frc consts  --      2.0784                 1.5005                 1.3976
 IR Inten    --     15.1776                 3.1983                 2.7334

                     55                     56                     57
                      A                      A                      A
 Frequencies --   1393.2738              1405.1281              1431.7213
 Red. masses --      1.1962                 1.5209                 1.6325
 Frc consts  --      1.3681                 1.7692                 1.9716
 IR Inten    --      2.1035                13.3817                 0.2633

                     58                     59                     60
                      A                      A                      A
 Frequencies --   1487.5166              1490.5883              1494.9772
 Red. masses --      1.0816                 1.0917                 1.0503
 Frc consts  --      1.4100                 1.4291                 1.3831
 IR Inten    --      6.7073                 1.6132                 2.5748

                     61                     62                     63
                      A                      A                      A
 Frequencies --   1499.3360              1516.3283              1519.6903
 Red. masses --      1.0521                 1.0816                 1.0818
 Frc consts  --      1.3936                 1.4653                 1.4720
 IR Inten    --      4.1854                 6.3499                 7.2249

                     64                     65                     66
                      A                      A                      A
 Frequencies --   1525.5750              1537.5131              1689.2395
 Red. masses --      1.0555                 1.0558                 1.0920
 Frc consts  --      1.4473                 1.4705                 1.8360
 IR Inten    --     12.6606                11.1073                45.1616

                     67                     68                     69
                      A                      A                      A
 Frequencies --   1824.3535              3054.3054              3062.7342
 Red. masses --     10.0023                 1.0305                 1.0573
 Frc consts  --     19.6141                 5.6639                 5.8433
 IR Inten    --    214.2438                39.4747                29.4009

                     70                     71                     72
                      A                      A                      A
 Frequencies --   3064.1328              3072.2344              3074.1400
 Red. masses --      1.0354                 1.0608                 1.0603
 Frc consts  --      5.7279                 5.8992                 5.9037
 IR Inten    --     11.2823                16.1803                14.5736

                     73                     74                     75
                      A                      A                      A
 Frequencies --   3079.2339              3104.1052              3112.3901
 Red. masses --      1.0635                 1.1021                 1.1003
 Frc consts  --      5.9409                 6.2566                 6.2796
 IR Inten    --      6.5732                15.6026                23.2497

                     76                     77                     78
                      A                      A                      A
 Frequencies --   3120.6621              3124.9081              3139.9632
 Red. masses --      1.1040                 1.1042                 1.1044
 Frc consts  --      6.3344                 6.3528                 6.4151
 IR Inten    --     23.1417                 7.8913                13.9799

                     79                     80                     81
                      A                      A                      A
 Frequencies --   3147.3182              3162.9190              3169.1457
 Red. masses --      1.1038                 1.1072                 1.1065
 Frc consts  --      6.4419                 6.5264                 6.5477
 IR Inten    --      9.5723                 0.8945                 1.3486

                     82                     83                     84
                      A                      A                      A
 Frequencies --   3479.3010              3570.4823              3699.0982
 Red. masses --      1.0489                 1.0939                 1.0643
 Frc consts  --      7.4814                 8.2161                 8.5801
 IR Inten    --      0.8493                 2.1363                64.2725

 - Thermochemistry -
 -------------------
 Temperature   298.150 Kelvin.  Pressure   1.00000 Atm.
 Atom     1 has atomic number  6 and mass  12.00000

 Molecular mass:   223.07007 amu.
 Principal axes and moments of inertia in atomic units:
                           1         2         3
     Eigenvalues --  1846.273775162.783595599.30651
           X            0.99973   0.00688  -0.02239
           Y           -0.00794   0.99884  -0.04756
           Z            0.02204   0.04772   0.99862
 This molecule is an asymmetric top.
 Rotational symmetry number  1.
 Warning -- assumption of classical behavior for rotation
           may cause significant error
 Rotational temperatures (Kelvin)      0.04691     0.01678     0.01547
 Rotational constants (GHZ):           0.97750     0.34957     0.32232
 Zero-point vibrational energy     666874.8 (Joules/Mol)
                                  159.38689 (Kcal/Mol)
 Warning -- explicit consideration of  24 degrees of freedom as
           vibrations may cause significant error
 Vibrational temperatures:     39.58    60.91   127.32   133.69   144.06
          (Kelvin)            182.07   207.86   234.32   238.41   269.80
                              291.45   320.76   372.85   400.45   438.16
                              448.04   476.98   498.11   548.99   635.47
                              696.33   732.68   832.63   860.42   935.63
                              948.16  1014.71  1034.05  1039.76  1090.54
                             1215.28  1231.02  1254.55  1309.66  1383.93
                             1432.52  1446.09  1449.54  1461.32  1477.29
                             1521.85  1533.21  1606.94  1635.36  1691.45
                             1701.71  1791.63  1837.04  1868.76  1904.04
                             1927.32  1965.72  1981.92  1986.11  2004.61
                             2021.67  2059.93  2140.20  2144.62  2150.94
                             2157.21  2181.66  2186.50  2194.96  2212.14
                             2430.44  2624.84  4394.46  4406.59  4408.60
                             4420.26  4423.00  4430.33  4466.12  4478.04
                             4489.94  4496.05  4517.71  4528.29  4550.73
                             4559.69  5005.94  5137.13  5322.18

 Zero-point correction=                           0.253999 (Hartree/Particle)
 Thermal correction to Energy=                    0.270341
 Thermal correction to Enthalpy=                  0.271286
 Thermal correction to Gibbs Free Energy=         0.209692
 Sum of electronic and zero-point Energies=          -1316.473956
 Sum of electronic and thermal Energies=             -1316.457614
 Sum of electronic and thermal Enthalpies=           -1316.456670
 Sum of electronic and thermal Free Energies=        -1316.518264

                     E (Thermal)             CV                S
                      KCal/Mol        Cal/Mol-Kelvin    Cal/Mol-Kelvin
 Total                  169.642             59.398            129.635
 Electronic               0.000              0.000              0.000
 Translational            0.889              2.981             42.110
 Rotational               0.889              2.981             32.345
 Vibrational            167.864             53.437             55.180
 Vibration     1          0.593              1.984              6.001
 Vibration     2          0.595              1.980              5.147
 Vibration     3          0.601              1.957              3.693
 Vibration     4          0.602              1.954              3.598
 Vibration     5          0.604              1.949              3.452
 Vibration     6          0.611              1.927              2.998
 Vibration     7          0.616              1.909              2.744
 Vibration     8          0.623              1.888              2.516
 Vibration     9          0.624              1.885              2.484
 Vibration    10          0.632              1.857              2.252
 Vibration    11          0.639              1.836              2.110
 Vibration    12          0.649              1.806              1.935
 Vibration    13          0.668              1.747              1.668
 Vibration    14          0.679              1.714              1.544
 Vibration    15          0.695              1.665              1.392
 Vibration    16          0.700              1.652              1.355
 Vibration    17          0.714              1.613              1.253
 Vibration    18          0.724              1.583              1.183
 Vibration    19          0.751              1.509              1.033
 Vibration    20          0.801              1.379              0.821
 Vibration    21          0.840              1.286              0.699
 Vibration    22          0.864              1.230              0.635
 Vibration    23          0.935              1.077              0.488
 Vibration    24          0.956              1.036              0.453

 Optimization completed.
    -- Stationary point found.
 Normal termination of Gaussian 16 at Mon Dec 14 13:23:09 2020.

 ----------------------------------------------------------------------
 # B3LYP/6-311++G(d,p) empiricaldispersion=gd3bj scf=xqc pop=npa geom=c
 heck
 ----------------------------------------------------------------------

 --------------------------------------
 CID_54287710_JID_3632_Energie_neutraal
 --------------------------------------
 Structure from the checkpoint file:  "JID_3632.chk"
 Charge =  0 Multiplicity = 1

 SCF Done:  E(RB3LYP) =  -1316.94900591     A.U. after   15 cycles
 Normal termination of Gaussian 16 at Mon Dec 14 13:26:36 2020.

 ----------------------------------------------------------------------
 # B3LYP/6-311++G(d,p) empiricaldispersion=gd3bj scf=xqc pop=npa geom=c
 heck
 ----------------------------------------------------------------------

 ------------------------------------
 CID_54287710_JID_3632_Energie_kation
 ------------------------------------
 Structure from the checkpoint file:  "JID_3632.chk"
 Charge =  1 Multiplicity = 2

 SCF Done:  E(UB3LYP) =  -1316.66330390     A.U. after   27 cycles
 Normal termination of Gaussian 16 at Mon Dec 14 13:34:51 2020.
 Gaussian 16:  ES64L-G16RevA.03 25-Dec-2016

 ----------------------------------------------------------------------
 # B3LYP/6-311++G(d,p) empiricaldispersion=gd3bj scf=xqc pop=npa geom=c
 heck
 ----------------------------------------------------------------------

 -----------------------------------
 CID_54287710_JID_3632_Energie_anion
 -----------------------------------
 Structure from the checkpoint file:  "JID_3632.chk"
 Charge = -1 Multiplicity = 2

                         Standard orientation:
 ---------------------------------------------------------------------
 Center     Atomic      Atomic             Coordinates (Angstroms)
 Number     Number       Type             X           Y           Z
 ---------------------------------------------------------------------
      1          6           0        3.805578   -0.222226   -1.119929
      2         16           0        3.518561   -0.438705    0.670938
      3          6           0        1.835598   -1.186412    0.688022
      4          6           0        0.667382   -0.245038    1.009084
      5          6           0        0.117913    0.628335   -0.131765
      6          6           0       -0.355575   -0.193074   -1.352648
      7          6           0       -1.336491   -1.343132   -1.109207
      8         16           0       -3.044369   -0.861062   -0.607156
      9          6           0       -3.069209   -1.325756    1.160862
     10          6           0       -1.039448    1.470026    0.435213
     11          8           0       -1.454022    1.452287    1.575049
     12          8           0       -1.510888    2.346670   -0.487931
     13          7           0        1.169156    1.538037   -0.626446
     14          1           0        4.800938    0.218028   -1.226830
     15          1           0        3.051575    0.451796   -1.532039
     16          1           0        3.793324   -1.188403   -1.634053
     17          1           0        1.692213   -1.719367   -0.256728
     18          1           0        1.877102   -1.948907    1.471878
     19          1           0       -0.160736   -0.850670    1.390164
     20          1           0        0.949824    0.407905    1.841614
     21          1           0       -0.787873    0.499222   -2.082982
     22          1           0        0.547763   -0.604938   -1.817158
     23          1           0       -1.447663   -1.899170   -2.045042
     24          1           0       -0.955914   -2.051636   -0.367426
     25          1           0       -2.750554   -2.363835    1.293714
     26          1           0       -2.456442   -0.649885    1.760133
     27          1           0       -4.109998   -1.239195    1.484401
     28          1           0       -2.242583    2.825372   -0.056999
     29          1           0        1.645773    1.981873    0.156601
     30          1           0        0.746892    2.273829   -1.189369
 ---------------------------------------------------------------------

 SCF Done:  E(UB3LYP) =  -1316.93545234     A.U. after   33 cycles
 SCF Done:  E(UB3LYP) =  -1316.93545234     a.u. after    1 cycles

 The electronic state is 2-A.
 Alpha  occ. eigenvalues --  -88.74020 -88.73882 -19.07040 -19.02097 -14.20620
 Alpha  occ. eigenvalues --  -10.20850 -10.13182 -10.10424 -10.10331 -10.09253
 Alpha  occ. eigenvalues --  -10.08766 -10.08098 -10.08050  -7.82627  -7.82482
 Alpha  occ. eigenvalues --   -5.79034  -5.78887  -5.78657  -5.78519  -5.77982
 Alpha  occ. eigenvalues --   -5.77842  -1.01347  -0.92498  -0.81318  -0.71806
 Alpha  occ. eigenvalues --   -0.70661  -0.66978  -0.64458  -0.60688  -0.56190
 Alpha  occ. eigenvalues --   -0.55498  -0.50325  -0.49422  -0.45194  -0.42003
 Alpha  occ. eigenvalues --   -0.40392  -0.39474  -0.38249  -0.36268  -0.34718
 Alpha  occ. eigenvalues --   -0.33860  -0.33421  -0.33119  -0.32666  -0.32409
 Alpha  occ. eigenvalues --   -0.31586  -0.30297  -0.29761  -0.28321  -0.27373
 Alpha  occ. eigenvalues --   -0.26136  -0.24838  -0.23665  -0.22967  -0.21316
 Alpha  occ. eigenvalues --   -0.21024  -0.20190  -0.15402  -0.12687  -0.12554
 Alpha  occ. eigenvalues --    0.04393
 Alpha virt. eigenvalues --    0.06190   0.06667   0.07460   0.08051   0.08738
 Alpha virt. eigenvalues --    0.08838   0.09858   0.09943   0.10455   0.11045
 Alpha virt. eigenvalues --    0.11948   0.12148   0.12452   0.12956   0.13313

  Beta  occ. eigenvalues --  -88.74015 -88.73879 -19.06992 -19.02083 -14.20594
  Beta  occ. eigenvalues --  -10.20847 -10.13175 -10.10400 -10.10306 -10.09227
  Beta  occ. eigenvalues --  -10.08741 -10.08081 -10.08039  -7.82622  -7.82479
  Beta  occ. eigenvalues --   -5.79030  -5.78885  -5.78647  -5.78509  -5.77977
  Beta  occ. eigenvalues --   -5.77840  -1.01291  -0.92448  -0.81281  -0.71771
  Beta  occ. eigenvalues --   -0.70632  -0.66943  -0.64423  -0.60633  -0.56140
  Beta  occ. eigenvalues --   -0.55430  -0.50257  -0.49363  -0.45131  -0.41951
  Beta  occ. eigenvalues --   -0.40353  -0.39445  -0.38217  -0.36235  -0.34688
  Beta  occ. eigenvalues --   -0.33830  -0.33387  -0.33085  -0.32626  -0.32377
  Beta  occ. eigenvalues --   -0.31549  -0.30265  -0.29729  -0.28274  -0.27338
  Beta  occ. eigenvalues --   -0.26111  -0.24809  -0.23634  -0.22932  -0.21268
  Beta  occ. eigenvalues --   -0.20985  -0.20146  -0.15365  -0.12663  -0.12535
  Beta virt. eigenvalues --    0.06659   0.07176   0.07446   0.07931   0.08351
  Beta virt. eigenvalues --    0.08852   0.09514   0.10038   0.10400   0.10881
  Beta virt. eigenvalues --    0.11184   0.11980   0.12191   0.12740   0.13257

 Mulliken charges and spin densities:
               1          2
     1  C    0.056292  -0.810679
     2  S   -0.143663   0.260007
     3  C    0.384179  -0.585782
     4  C   -0.458581  -0.078601
     5  C    1.569452  -1.580341
     6  C   -0.139437  -0.244150
     7  C   -0.101076  -0.363334
     8  S   -0.201213   0.605604
     9  C    0.088888  -0.877274
    10  C   -0.285816  -0.041510
    11  O   -0.237045   0.021567
    12  O   -0.132264   0.065461
    13  N   -0.423548   0.208403
    14  H    0.057261   0.089303
    15  H    0.077763   0.154807
    16  H   -0.212423   0.377697
    17  H    0.151168  -0.003020
    18  H   -0.459932   0.724786
    19  H    0.271091  -0.120444
    20  H    0.180482   0.022897
    21  H    0.140275   0.049756
    22  H   -0.091081   0.243067
    23  H   -0.433880   0.702440
    24  H   -0.104419   0.274413
    25  H   -0.197490   0.359648
    26  H    0.061308   0.134176
    27  H    0.013812   0.152839
    28  H   -0.478153   0.768891
    29  H    0.135839   0.109333
    30  H   -0.087786   0.380038
 Sum of Mulliken charges =  -1.00000   1.00000

 Dipole moment (field-independent basis, Debye):
    X=              1.0122    Y=              0.2668    Z=              0.8932  Tot=              1.3760
 Quadrupole moment (field-independent basis, Debye-Ang):
   XX=           -156.4676   YY=           -148.7026   ZZ=           -132.0062
   XY=              7.8465   XZ=             -0.1237   YZ=              0.4900

 Summary of Natural Population Analysis:

                                       Natural Population
                Natural  -----------------------------------------------
    Atom  No    Charge         Core      Valence    Rydberg      Total
 -----------------------------------------------------------------------
      C    1   -0.35040      0.99962     2.34584    0.00494     3.35040
      S    2    0.07570      4.99964     2.90708    0.01758     7.92430
      C    3   -0.25182      0.99958     2.23949    0.01275     3.25182
      C    4   -0.20234      0.99958     2.19046    0.01231     3.20234
      C    5    0.01579      0.99950     1.96754    0.01717     2.98421
      C    6   -0.19880      0.99957     2.18691    0.01231     3.19880
      C    7   -0.25171      0.99957     2.24049    0.01165     3.25171
      S    8    0.08237      4.99963     2.90062    0.01737     7.91763
      C    9   -0.34884      0.99961     2.34395    0.00527     3.34884
      C   10    0.40946      0.99964     1.56252    0.02838     2.59054
      O   11   -0.31217      0.99987     3.30572    0.00658     4.31217
      O   12   -0.34961      0.99987     3.34195    0.00779     4.34961
      N   13   -0.42185      0.99976     2.90980    0.01229     3.92185
      H   14    0.10156      0.00000     0.39722    0.00122     0.39844
      H   15    0.11777      0.00000     0.38018    0.00204     0.38223
      H   16    0.09808      0.00000     0.39991    0.00200     0.40192
      H   17    0.10494      0.00000     0.39326    0.00180     0.39506
      H   18    0.10755      0.00000     0.39081    0.00164     0.39245
      H   19    0.10991      0.00000     0.38841    0.00168     0.39009
      H   20    0.10793      0.00000     0.39060    0.00147     0.39207
      H   21    0.10905      0.00000     0.38916    0.00179     0.39095
      H   22    0.10813      0.00000     0.39004    0.00183     0.39187
      H   23    0.10799      0.00000     0.39021    0.00180     0.39201
      H   24    0.10463      0.00000     0.39339    0.00199     0.39537
      H   25    0.10033      0.00000     0.39780    0.00186     0.39967
      H   26    0.11096      0.00000     0.38721    0.00184     0.38904
      H   27    0.10480      0.00000     0.39396    0.00124     0.39520
      H   28    0.24477      0.00000     0.24236    0.01287     0.25523
      H   29    0.18046      0.00000     0.31725    0.00229     0.31954
      H   30    0.18534      0.00000     0.31214    0.00252     0.31466
 =======================================================================
   * Total *    0.00000     20.99545    38.79629    0.20826    60.00000

 Normal termination of Gaussian 16 at Mon Dec 14 13:45:00 2020.
