 Gaussian 16, Revision A.03,

 -----------------------------------------------------------
 # opt freq B3LYP/6-31G(d) empiricaldispersion=gd3bj scf=xqc
 -----------------------------------------------------------

 --------------------------------
 CID_105576435_JID_10704_neutraal
 --------------------------------
 Symbolic Z-matrix:
 Charge =  0 Multiplicity = 1

 SCF Done:  E(RB3LYP) =  -952.192240031     A.U. after   15 cycles
 SCF Done:  E(RB3LYP) =  -952.197734977     A.U. after   13 cycles
 SCF Done:  E(RB3LYP) =  -952.194934738     A.U. after   14 cycles
 SCF Done:  E(RB3LYP) =  -952.199436111     A.U. after   12 cycles
 SCF Done:  E(RB3LYP) =  -952.200903514     A.U. after   13 cycles
 SCF Done:  E(RB3LYP) =  -952.201118017     A.U. after   12 cycles
 SCF Done:  E(RB3LYP) =  -952.201139632     A.U. after   12 cycles
 SCF Done:  E(RB3LYP) =  -952.201788463     A.U. after   12 cycles
 SCF Done:  E(RB3LYP) =  -952.202031256     A.U. after   13 cycles
 SCF Done:  E(RB3LYP) =  -952.202178548     A.U. after   15 cycles
 SCF Done:  E(RB3LYP) =  -952.202405682     A.U. after   10 cycles
 SCF Done:  E(RB3LYP) =  -952.202406487     A.U. after    9 cycles
 SCF Done:  E(RB3LYP) =  -952.202407107     A.U. after    8 cycles
 SCF Done:  E(RB3LYP) =  -952.202407412     A.U. after    8 cycles
 SCF Done:  E(RB3LYP) =  -952.202407437     A.U. after    7 cycles
 Optimization completed.
    -- Stationary point found.
 Normal termination of Gaussian 16 at Sun Dec 13 20:58:24 2020.

 --------------------------------------------------------------------
 #N Geom=AllCheck Guess=TCheck SCRF=Check GenChk RB3LYP/6-31G(d) Freq
 --------------------------------------------------------------------

 Structure from the checkpoint file:  "JID_10704.chk"
 --------------------------------
 CID_105576435_JID_10704_neutraal
 --------------------------------
 Charge =  0 Multiplicity = 1

 SCF Done:  E(RB3LYP) =  -952.202407437     A.U. after    1 cycles

  Exact polarizability: 215.112  -2.738 150.915 -12.334   8.446 131.419
 Approx polarizability: 270.811   3.612 242.368 -27.953  21.401 210.517

                      1                      2                      3
                      A                      A                      A
 Frequencies --     27.4287                35.6461                46.6759
 Red. masses --      4.5738                 4.8179                 1.9933
 Frc consts  --      0.0020                 0.0036                 0.0026
 IR Inten    --      0.9343                 0.8480                 0.2457

                      4                      5                      6
                      A                      A                      A
 Frequencies --     48.8750                65.0204                84.4693
 Red. masses --      2.4624                 4.1458                 5.2199
 Frc consts  --      0.0035                 0.0103                 0.0219
 IR Inten    --      0.4715                 1.9805                 1.9257

                      7                      8                      9
                      A                      A                      A
 Frequencies --     93.9465               132.9874               152.4133
 Red. masses --      4.2736                 4.9707                 5.1655
 Frc consts  --      0.0222                 0.0518                 0.0707
 IR Inten    --      0.9377                 0.8077                 1.3581

                     10                     11                     12
                      A                      A                      A
 Frequencies --    170.8947               207.1646               211.7606
 Red. masses --      2.9161                 3.0475                 1.6576
 Frc consts  --      0.0502                 0.0771                 0.0438
 IR Inten    --      7.3820                 3.7620                 1.2555

                     13                     14                     15
                      A                      A                      A
 Frequencies --    234.1503               250.5621               269.7390
 Red. masses --      3.2702                 1.5742                 2.3967
 Frc consts  --      0.1056                 0.0582                 0.1027
 IR Inten    --      0.8755                 0.3761                 1.0563

                     16                     17                     18
                      A                      A                      A
 Frequencies --    283.2360               304.5593               327.2213
 Red. masses --      1.3570                 4.1497                 4.2801
 Frc consts  --      0.0641                 0.2268                 0.2700
 IR Inten    --      1.2488                 1.4324                 5.9445

                     19                     20                     21
                      A                      A                      A
 Frequencies --    330.6099               359.6654               375.8392
 Red. masses --      2.6691                 2.3810                 3.0751
 Frc consts  --      0.1719                 0.1815                 0.2559
 IR Inten    --      2.3214                 3.2765                 2.3803

                     22                     23                     24
                      A                      A                      A
 Frequencies --    392.1483               411.2065               438.3824
 Red. masses --      2.9428                 3.5960                 4.4478
 Frc consts  --      0.2666                 0.3583                 0.5036
 IR Inten    --      0.9025                 1.7093                 2.9309

                     25                     26                     27
                      A                      A                      A
 Frequencies --    451.8799               475.1681               534.4721
 Red. masses --      2.7221                 3.6039                 3.3534
 Frc consts  --      0.3275                 0.4794                 0.5644
 IR Inten    --      4.6317                 5.7501                10.0559

                     28                     29                     30
                      A                      A                      A
 Frequencies --    574.3379               585.4716               601.5425
 Red. masses --      2.7673                 1.6967                 1.9654
 Frc consts  --      0.5378                 0.3427                 0.4190
 IR Inten    --      2.8529                71.0283                32.3531

                     31                     32                     33
                      A                      A                      A
 Frequencies --    610.7609               636.8601               665.5221
 Red. masses --      4.4880                 2.5785                 3.7040
 Frc consts  --      0.9864                 0.6162                 0.9666
 IR Inten    --      7.8249                61.0080                13.9654

                     34                     35                     36
                      A                      A                      A
 Frequencies --    704.3031               718.6054               728.1822
 Red. masses --      6.0556                 3.6282                 2.9244
 Frc consts  --      1.7698                 1.1039                 0.9136
 IR Inten    --      6.6050                35.6914                17.6372

                     37                     38                     39
                      A                      A                      A
 Frequencies --    762.5650               767.6275               779.9095
 Red. masses --      2.6635                 1.5411                 3.4320
 Frc consts  --      0.9125                 0.5350                 1.2300
 IR Inten    --     22.6565                84.7177                 0.5689

                     40                     41                     42
                      A                      A                      A
 Frequencies --    818.6860               844.3952               857.6419
 Red. masses --      2.9799                 1.2629                 3.9452
 Frc consts  --      1.1768                 0.5305                 1.7098
 IR Inten    --      6.5816                 7.5018                 9.2669

                     43                     44                     45
                      A                      A                      A
 Frequencies --    882.6193               900.6070               920.7182
 Red. masses --      1.8347                 3.7198                 2.3829
 Frc consts  --      0.8421                 1.7776                 1.1902
 IR Inten    --     12.5151                 1.5619                10.7582

                     46                     47                     48
                      A                      A                      A
 Frequencies --    947.0840               964.4521               967.4909
 Red. masses --      2.4198                 2.1767                 1.5357
 Frc consts  --      1.2788                 1.1929                 0.8469
 IR Inten    --     11.7213                 4.7285                 0.8411

                     49                     50                     51
                      A                      A                      A
 Frequencies --    997.1723              1022.4885              1028.8432
 Red. masses --      1.8700                 6.1962                 2.4008
 Frc consts  --      1.0955                 3.8167                 1.4973
 IR Inten    --     17.0710                 6.4053                15.6801

                     52                     53                     54
                      A                      A                      A
 Frequencies --   1040.5903              1064.9894              1079.4087
 Red. masses --      1.6278                 1.7439                 1.7542
 Frc consts  --      1.0385                 1.1653                 1.2042
 IR Inten    --      3.6334                12.9274                12.9954

                     55                     56                     57
                      A                      A                      A
 Frequencies --   1087.6251              1101.3228              1130.9547
 Red. masses --      1.6860                 1.2842                 1.8557
 Frc consts  --      1.1751                 0.9177                 1.3985
 IR Inten    --      6.7988                31.3681                13.8688

                     58                     59                     60
                      A                      A                      A
 Frequencies --   1163.0971              1182.4661              1195.2756
 Red. masses --      1.2969                 2.5430                 2.4688
 Frc consts  --      1.0337                 2.0950                 2.0782
 IR Inten    --      0.0191                96.8510                64.3145

                     61                     62                     63
                      A                      A                      A
 Frequencies --   1208.8903              1220.2266              1253.6836
 Red. masses --      1.9565                 2.4510                 2.5810
 Frc consts  --      1.6846                 2.1501                 2.3901
 IR Inten    --     36.0720                 2.1450                 9.1522

                     64                     65                     66
                      A                      A                      A
 Frequencies --   1272.1829              1275.3977              1299.2344
 Red. masses --      1.7902                 1.8910                 1.8932
 Frc consts  --      1.7071                 1.8123                 1.8829
 IR Inten    --      9.8631                17.2434                76.4422

                     67                     68                     69
                      A                      A                      A
 Frequencies --   1332.6304              1338.1408              1358.8581
 Red. masses --      1.4419                 3.4144                 1.9938
 Frc consts  --      1.5087                 3.6022                 2.1691
 IR Inten    --    126.2294                15.0578               131.3272

                     70                     71                     72
                      A                      A                      A
 Frequencies --   1362.9985              1370.0071              1376.9598
 Red. masses --      1.3721                 1.8374                 2.8507
 Frc consts  --      1.5018                 2.0319                 3.1845
 IR Inten    --     64.7083                21.7159                 1.7146

                     73                     74                     75
                      A                      A                      A
 Frequencies --   1399.3230              1409.9116              1434.6762
 Red. masses --      1.6112                 1.4462                 1.3192
 Frc consts  --      1.8589                 1.6938                 1.5998
 IR Inten    --     26.8877                 7.0859                25.5706

                     76                     77                     78
                      A                      A                      A
 Frequencies --   1435.4420              1453.1041              1458.7868
 Red. masses --      1.2392                 1.9227                 1.5570
 Frc consts  --      1.5044                 2.3919                 1.9522
 IR Inten    --      8.8221               209.6396               112.7015

                     79                     80                     81
                      A                      A                      A
 Frequencies --   1465.8465              1473.7904              1491.7877
 Red. masses --      1.8462                 2.0773                 1.7394
 Frc consts  --      2.3372                 2.6584                 2.2807
 IR Inten    --     81.4547                13.4267                31.2105

                     82                     83                     84
                      A                      A                      A
 Frequencies --   1502.0976              1507.3768              1514.1768
 Red. masses --      1.0424                 1.0682                 1.0802
 Frc consts  --      1.3858                 1.4300                 1.4591
 IR Inten    --      6.4138                 0.5312                 0.9346

                     85                     86                     87
                      A                      A                      A
 Frequencies --   1518.4430              1520.1854              1531.0842
 Red. masses --      1.1119                 1.0690                 1.1727
 Frc consts  --      1.5104                 1.4556                 1.6197
 IR Inten    --      0.5120                 7.1528                15.0517

                     88                     89                     90
                      A                      A                      A
 Frequencies --   1534.7201              1539.3732              1542.3873
 Red. masses --      1.0695                 2.0297                 1.0638
 Frc consts  --      1.4842                 2.8338                 1.4911
 IR Inten    --      4.2752                22.7274                 7.4047

                     91                     92                     93
                      A                      A                      A
 Frequencies --   1555.0866              1604.4307              1770.2052
 Red. masses --      1.4835                 5.1199                 8.1958
 Frc consts  --      2.1137                 7.7653                15.1317
 IR Inten    --     38.7275               220.3594               427.2486

                     94                     95                     96
                      A                      A                      A
 Frequencies --   1841.8491              3034.7836              3052.3311
 Red. masses --      9.5855                 1.0604                 1.0397
 Frc consts  --     19.1589                 5.7541                 5.7069
 IR Inten    --    276.6529                24.5275                12.7445

                     97                     98                     99
                      A                      A                      A
 Frequencies --   3054.2769              3058.4867              3067.9504
 Red. masses --      1.0573                 1.0428                 1.0324
 Frc consts  --      5.8111                 5.7474                 5.7255
 IR Inten    --     30.1032                26.9924                65.0257

                    100                    101                    102
                      A                      A                      A
 Frequencies --   3074.5316              3088.3274              3105.4467
 Red. masses --      1.0983                 1.0896                 1.0811
 Frc consts  --      6.1166                 6.1230                 6.1430
 IR Inten    --     40.2732                 5.9012                53.3558

                    103                    104                    105
                      A                      A                      A
 Frequencies --   3118.8263              3121.9177              3132.7543
 Red. masses --      1.1016                 1.1015                 1.1021
 Frc consts  --      6.3133                 6.3251                 6.3729
 IR Inten    --     10.0699                42.0181                25.8017

                    106                    107                    108
                      A                      A                      A
 Frequencies --   3133.0704              3145.2964              3149.8556
 Red. masses --      1.1062                 1.0840                 1.0987
 Frc consts  --      6.3978                 6.3185                 6.4224
 IR Inten    --     17.4118                 7.7452                23.1668

                    109                    110                    111
                      A                      A                      A
 Frequencies --   3163.3451              3176.5367              3270.3577
 Red. masses --      1.1042                 1.0980                 1.0949
 Frc consts  --      6.5102                 6.5276                 6.8996
 IR Inten    --     10.5207                 7.0725                 2.0298

                    112                    113                    114
                      A                      A                      A
 Frequencies --   3305.6639              3598.8941              3670.9747
 Red. masses --      1.1009                 1.0752                 1.0640
 Frc consts  --      7.0879                 8.2051                 8.4478
 IR Inten    --      3.3912                46.6423                50.4142

 - Thermochemistry -
 -------------------
 Temperature   298.150 Kelvin.  Pressure   1.00000 Atm.
 Atom     1 has atomic number  6 and mass  12.00000

 Molecular mass:   280.15354 amu.
 Principal axes and moments of inertia in atomic units:
                           1         2         3
     Eigenvalues --  2633.480958951.771159498.54878
           X            0.99990  -0.01387   0.00228
           Y            0.01388   0.99988  -0.00621
           Z           -0.00219   0.00624   0.99998
 This molecule is an asymmetric top.
 Rotational symmetry number  1.
 Warning -- assumption of classical behavior for rotation
           may cause significant error
 Rotational temperatures (Kelvin)      0.03289     0.00968     0.00912
 Rotational constants (GHZ):           0.68531     0.20161     0.19000
 Zero-point vibrational energy     889702.6 (Joules/Mol)
                                  212.64403 (Kcal/Mol)
 Warning -- explicit consideration of  31 degrees of freedom as
           vibrations may cause significant error
 Vibrational temperatures:     39.46    51.29    67.16    70.32    93.55
          (Kelvin)            121.53   135.17   191.34   219.29   245.88
                              298.06   304.68   336.89   360.50   388.09
                              407.51   438.19   470.80   475.67   517.48
                              540.75   564.21   591.63   630.73   650.15
                              683.66   768.99   826.34   842.36   865.49
                              878.75   916.30   957.54  1013.34  1033.91
                             1047.69  1097.16  1104.44  1122.12  1177.91
                             1214.90  1233.96  1269.89  1295.77  1324.71
                             1362.64  1387.63  1392.00  1434.71  1471.13
                             1480.28  1497.18  1532.28  1553.03  1564.85
                             1584.56  1627.19  1673.44  1701.30  1719.74
                             1739.32  1755.63  1803.77  1830.39  1835.01
                             1869.31  1917.36  1925.29  1955.09  1961.05
                             1971.13  1981.14  2013.31  2028.55  2064.18
                             2065.28  2090.69  2098.87  2109.03  2120.46
                             2146.35  2161.18  2168.78  2178.56  2184.70
                             2187.21  2202.89  2208.12  2214.81  2219.15
                             2237.42  2308.42  2546.93  2650.01  4366.38
                             4391.62  4394.42  4400.48  4414.10  4423.57
                             4443.41  4468.05  4487.30  4491.74  4507.33
                             4507.79  4525.38  4531.94  4551.35  4570.33
                             4705.32  4756.11  5178.01  5281.71

 Zero-point correction=                           0.338870 (Hartree/Particle)
 Thermal correction to Energy=                    0.358374
 Thermal correction to Enthalpy=                  0.359318
 Thermal correction to Gibbs Free Energy=         0.289934
 Sum of electronic and zero-point Energies=           -951.863538
 Sum of electronic and thermal Energies=              -951.844033
 Sum of electronic and thermal Enthalpies=            -951.843089
 Sum of electronic and thermal Free Energies=         -951.912473

                     E (Thermal)             CV                S
                      KCal/Mol        Cal/Mol-Kelvin    Cal/Mol-Kelvin
 Total                  224.883             74.176            146.031
 Electronic               0.000              0.000              0.000
 Translational            0.889              2.981             42.789
 Rotational               0.889              2.981             33.770
 Vibrational            223.106             68.214             69.472
 Vibration     1          0.593              1.984              6.007
 Vibration     2          0.594              1.982              5.487
 Vibration     3          0.595              1.979              4.953
 Vibration     4          0.595              1.978              4.862
 Vibration     5          0.597              1.971              4.299
 Vibration     6          0.601              1.960              3.784
 Vibration     7          0.603              1.954              3.576
 Vibration     8          0.613              1.920              2.902
 Vibration     9          0.619              1.900              2.642
 Vibration    10          0.626              1.878              2.426
 Vibration    11          0.641              1.830              2.069
 Vibration    12          0.643              1.823              2.028
 Vibration    13          0.654              1.789              1.847
 Vibration    14          0.663              1.762              1.727
 Vibration    15          0.674              1.729              1.598
 Vibration    16          0.682              1.705              1.514
 Vibration    17          0.695              1.665              1.392
 Vibration    18          0.711              1.621              1.274
 Vibration    19          0.713              1.614              1.257
 Vibration    20          0.734              1.555              1.124
 Vibration    21          0.747              1.522              1.056
 Vibration    22          0.760              1.487              0.992
 Vibration    23          0.775              1.446              0.922
 Vibration    24          0.799              1.386              0.832
 Vibration    25          0.811              1.357              0.790
 Vibration    26          0.832              1.305              0.723
 Vibration    27          0.889              1.174              0.577
 Vibration    28          0.931              1.087              0.496
 Vibration    29          0.942              1.063              0.475
 Vibration    30          0.960              1.029              0.447
 Vibration    31          0.970              1.009              0.432

                           ! Non-Optimized Parameters !
 Normal termination of Gaussian 16 at Sun Dec 13 21:20:45 2020.

 ----------------------------------------------------------------------
 # B3LYP/6-311++G(d,p) empiricaldispersion=gd3bj scf=xqc pop=npa geom=c
 heck
 ----------------------------------------------------------------------

 ----------------------------------------
 CID_105576435_JID_10704_Energie_neutraal
 ----------------------------------------
 Structure from the checkpoint file:  "JID_10704.chk"
 Charge =  0 Multiplicity = 1

 SCF Done:  E(RB3LYP) =  -952.478857608     A.U. after   16 cycles
 Normal termination of Gaussian 16 at Sun Dec 13 21:30:15 2020.

 ----------------------------------------------------------------------
 # B3LYP/6-311++G(d,p) empiricaldispersion=gd3bj scf=xqc pop=npa geom=c
 heck
 ----------------------------------------------------------------------

 --------------------------------------
 CID_105576435_JID_10704_Energie_kation
 --------------------------------------
 Structure from the checkpoint file:  "JID_10704.chk"
 Charge =  1 Multiplicity = 2

 SCF Done:  E(UB3LYP) =  -952.189197401     A.U. after   26 cycles
 Normal termination of Gaussian 16 at Sun Dec 13 21:51:14 2020.
 Gaussian 16:  ES64L-G16RevA.03 25-Dec-2016

 ----------------------------------------------------------------------
 # B3LYP/6-311++G(d,p) empiricaldispersion=gd3bj scf=xqc pop=npa geom=c
 heck
 ----------------------------------------------------------------------

 -------------------------------------
 CID_105576435_JID_10704_Energie_anion
 -------------------------------------
 Structure from the checkpoint file:  "JID_10704.chk"
 Charge = -1 Multiplicity = 2

                         Standard orientation:
 ---------------------------------------------------------------------
 Center     Atomic      Atomic             Coordinates (Angstroms)
 Number     Number       Type             X           Y           Z
 ---------------------------------------------------------------------
      1          6           0        3.175777   -1.878030   -0.121964
      2          6           0        3.001076   -0.402451    0.283188
      3          6           0        2.667158   -0.277092    1.783687
      4          6           0        1.332561   -0.935133    2.138399
      5          6           0        0.187962   -0.355681    1.303223
      6          7           0        0.516128   -0.355343   -0.131036
      7          6           0        1.812450    0.174111   -0.555340
      8          6           0        1.822315    1.697560   -0.625805
      9          8           0        2.471602    2.334363   -1.423625
     10          8           0        1.042784    2.310985    0.307342
     11          6           0       -0.162407   -1.126523   -1.058377
     12          8           0        0.360350   -1.585921   -2.069147
     13          7           0       -1.501760   -1.391309   -0.771668
     14          6           0       -2.455404   -0.456846   -0.339189
     15          7           0       -3.711584   -0.874519   -0.168831
     16          7           0       -4.392551    0.240152    0.200421
     17          6           0       -3.590082    1.330234    0.275216
     18          6           0       -2.313933    0.928092   -0.074347
     19          6           0       -5.812536    0.147828    0.458144
     20          6           0        4.308649    0.344491   -0.016225
     21          1           0        2.238825   -2.437469   -0.075927
     22          1           0        3.543384   -1.950233   -1.150581
     23          1           0        3.903306   -2.366150    0.537078
     24          1           0        3.481080   -0.723250    2.368857
     25          1           0        2.629190    0.786831    2.055165
     26          1           0        1.391480   -2.017900    1.979501
     27          1           0        1.101432   -0.780675    3.199364
     28          1           0       -0.714156   -0.948662    1.441390
     29          1           0       -0.031156    0.665304    1.626847
     30          1           0        1.950750   -0.150439   -1.586582
     31          1           0        1.150742    3.267856    0.144923
     32          1           0       -1.875838   -2.094334   -1.397447
     33          1           0       -3.978288    2.298074    0.559305
     34          1           0       -1.421934    1.530640   -0.132730
     35          1           0       -6.337990   -0.188887   -0.440418
     36          1           0       -6.004626   -0.561794    1.268313
     37          1           0       -6.181349    1.134636    0.745334
     38          1           0        4.520564    0.366170   -1.089844
     39          1           0        4.283613    1.380007    0.337136
     40          1           0        5.139932   -0.161363    0.487897
 ---------------------------------------------------------------------

 SCF Done:  E(UB3LYP) =  -952.472491514     A.U. after   33 cycles
 SCF Done:  E(UB3LYP) =  -952.472491514     a.u. after    1 cycles

 The electronic state is 2-A.
 Alpha  occ. eigenvalues --  -19.08765 -19.03497 -19.00578 -14.30230 -14.26067
 Alpha  occ. eigenvalues --  -14.25940 -14.23651 -10.22522 -10.21862 -10.14665
 Alpha  occ. eigenvalues --  -10.13950 -10.12414 -10.11876 -10.11719 -10.11531
 Alpha  occ. eigenvalues --  -10.08848 -10.08689 -10.08023 -10.07990 -10.07580
 Alpha  occ. eigenvalues --   -1.02921  -0.97501  -0.96389  -0.93979  -0.86702
 Alpha  occ. eigenvalues --   -0.84795  -0.75396  -0.74391  -0.70364  -0.70005
 Alpha  occ. eigenvalues --   -0.64657  -0.61659  -0.61130  -0.60259  -0.55348
 Alpha  occ. eigenvalues --   -0.53837  -0.53069  -0.50288  -0.49318  -0.46274
 Alpha  occ. eigenvalues --   -0.45389  -0.42627  -0.41669  -0.40452  -0.40156
 Alpha  occ. eigenvalues --   -0.39884  -0.39305  -0.38290  -0.37852  -0.36083
 Alpha  occ. eigenvalues --   -0.35357  -0.35035  -0.34208  -0.33889  -0.33276
 Alpha  occ. eigenvalues --   -0.32874  -0.31994  -0.31662  -0.31108  -0.30676
 Alpha  occ. eigenvalues --   -0.30271  -0.29271  -0.28198  -0.27581  -0.26204
 Alpha  occ. eigenvalues --   -0.24487  -0.24174  -0.23684  -0.23059  -0.21493
 Alpha  occ. eigenvalues --   -0.20856  -0.19426  -0.16395  -0.15997  -0.13477
 Alpha  occ. eigenvalues --    0.03528
 Alpha virt. eigenvalues --    0.05113   0.06001   0.07080   0.07164   0.07756
 Alpha virt. eigenvalues --    0.07843   0.07934   0.08845   0.09470   0.09888
 Alpha virt. eigenvalues --    0.09928   0.10229   0.10445   0.10991   0.11332

  Beta  occ. eigenvalues --  -19.08717 -19.03481 -19.00576 -14.30230 -14.26067
  Beta  occ. eigenvalues --  -14.25939 -14.23644 -10.22513 -10.21860 -10.14666
  Beta  occ. eigenvalues --  -10.13941 -10.12368 -10.11851 -10.11712 -10.11530
  Beta  occ. eigenvalues --  -10.08837 -10.08674 -10.08013 -10.07980 -10.07574
  Beta  occ. eigenvalues --   -1.02859  -0.97497  -0.96381  -0.93924  -0.86697
  Beta  occ. eigenvalues --   -0.84791  -0.75382  -0.74375  -0.70343  -0.69982
  Beta  occ. eigenvalues --   -0.64627  -0.61616  -0.61111  -0.60230  -0.55307
  Beta  occ. eigenvalues --   -0.53809  -0.53011  -0.50254  -0.49292  -0.46231
  Beta  occ. eigenvalues --   -0.45350  -0.42602  -0.41638  -0.40432  -0.40131
  Beta  occ. eigenvalues --   -0.39859  -0.39282  -0.38267  -0.37837  -0.36049
  Beta  occ. eigenvalues --   -0.35328  -0.35014  -0.34184  -0.33870  -0.33247
  Beta  occ. eigenvalues --   -0.32838  -0.31965  -0.31621  -0.31088  -0.30662
  Beta  occ. eigenvalues --   -0.30254  -0.29255  -0.28180  -0.27564  -0.26185
  Beta  occ. eigenvalues --   -0.24451  -0.24150  -0.23665  -0.23046  -0.21484
  Beta  occ. eigenvalues --   -0.20813  -0.19421  -0.16381  -0.15985  -0.13469
  Beta virt. eigenvalues --    0.05522   0.06213   0.07100   0.07171   0.07328
  Beta virt. eigenvalues --    0.07954   0.08038   0.08580   0.09268   0.09578
  Beta virt. eigenvalues --    0.09937   0.10238   0.10359   0.10542   0.11182

 Mulliken charges and spin densities:
               1          2
     1  C   -0.234823  -0.303982
     2  C   -0.176586   0.716145
     3  C   -0.304574  -0.142051
     4  C   -0.517925  -0.028113
     5  C    0.105806  -0.370783
     6  N    0.222087   0.021045
     7  C    0.278114  -0.916792
     8  C   -0.222189   0.009308
     9  O   -0.237635   0.036665
    10  O   -0.232509   0.072318
    11  C    0.406096  -0.216044
    12  O   -0.283583  -0.000155
    13  N   -0.209688   0.008310
    14  C   -0.408468  -0.311762
    15  N   -0.554655   0.339974
    16  N    0.221103  -0.059196
    17  C   -1.195679   0.933247
    18  C    1.848732  -1.533187
    19  C    0.977182  -1.253513
    20  C    0.153750  -0.639459
    21  H    0.163579  -0.001712
    22  H    0.129011   0.018539
    23  H    0.046866   0.118236
    24  H   -0.061414   0.246076
    25  H   -0.074930   0.244283
    26  H    0.151448  -0.000321
    27  H   -0.263785   0.466383
    28  H    0.134835   0.088110
    29  H    0.266038  -0.066673
    30  H    0.329607  -0.009203
    31  H   -0.360571   0.670220
    32  H    0.312450   0.012369
    33  H   -1.159792   1.342211
    34  H    0.431873  -0.172253
    35  H   -0.105672   0.274632
    36  H   -0.173447   0.347292
    37  H   -0.590742   0.754814
    38  H    0.154598   0.013894
    39  H   -0.001810   0.183514
    40  H    0.037304   0.107611
 Sum of Mulliken charges =  -1.00000   1.00000

 Dipole moment (field-independent basis, Debye):
    X=              5.7453    Y=             -5.9261    Z=             -1.1477  Tot=              8.3334
 Quadrupole moment (field-independent basis, Debye-Ang):
   XX=           -220.3178   YY=           -174.5161   ZZ=           -161.6484
   XY=              9.3038   XZ=              9.1648   YZ=             -6.1825

 Summary of Natural Population Analysis:

                                       Natural Population
                Natural  -----------------------------------------------
    Atom  No    Charge         Core      Valence    Rydberg      Total
 -----------------------------------------------------------------------
      C    1   -0.28547      0.99962     2.27960    0.00625     3.28547
      C    2   -0.03837      0.99956     2.02795    0.01085     3.03837
      C    3   -0.19306      0.99958     2.18301    0.01047     3.19306
      C    4   -0.19445      0.99962     2.18636    0.00846     3.19445
      C    5   -0.08780      0.99959     2.07773    0.01048     3.08780
      N    6   -0.27018      0.99963     2.75896    0.01159     3.77018
      C    7   -0.05359      0.99946     2.03804    0.01608     3.05359
      C    8    0.41082      0.99967     1.56368    0.02583     2.58918
      O    9   -0.30140      0.99987     3.29555    0.00598     4.30140
      O   10   -0.34674      0.99988     3.33935    0.00751     4.34674
      C   11    0.41632      0.99965     1.56146    0.02257     2.58368
      O   12   -0.33433      0.99988     3.32960    0.00485     4.33433
      N   13   -0.32399      0.99963     2.81572    0.00864     3.82399
      C   14    0.15996      0.99955     1.82438    0.01611     2.84004
      N   15   -0.17772      0.99969     2.66685    0.01118     3.67772
      N   16   -0.10571      0.99967     2.59340    0.01264     3.60571
      C   17    0.00935      0.99956     1.97892    0.01218     2.99065
      C   18   -0.18036      0.99952     2.17150    0.00935     3.18036
      C   19   -0.17036      0.99964     2.16224    0.00849     3.17036
      C   20   -0.28588      0.99962     2.28014    0.00612     3.28588
      H   21    0.10533      0.00000     0.39375    0.00093     0.39467
      H   22    0.10257      0.00000     0.39665    0.00078     0.39743
      H   23    0.09847      0.00000     0.40076    0.00077     0.40153
      H   24    0.10140      0.00000     0.39761    0.00099     0.39860
      H   25    0.10327      0.00000     0.39521    0.00152     0.39673
      H   26    0.09506      0.00000     0.40381    0.00113     0.40494
      H   27    0.10432      0.00000     0.39479    0.00089     0.39568
      H   28    0.10967      0.00000     0.38884    0.00149     0.39033
      H   29    0.10535      0.00000     0.39259    0.00206     0.39465
      H   30    0.13336      0.00000     0.36502    0.00162     0.36664
      H   31    0.24696      0.00000     0.24262    0.01043     0.25304
      H   32    0.20206      0.00000     0.29579    0.00215     0.29794
      H   33    0.10913      0.00000     0.38821    0.00266     0.39087
      H   34    0.12050      0.00000     0.37761    0.00189     0.37950
      H   35    0.09954      0.00000     0.39915    0.00130     0.40046
      H   36    0.10098      0.00000     0.39760    0.00141     0.39902
      H   37    0.10548      0.00000     0.39199    0.00254     0.39452
      H   38    0.10491      0.00000     0.39434    0.00075     0.39509
      H   39    0.10473      0.00000     0.39443    0.00084     0.39527
      H   40    0.09988      0.00000     0.39930    0.00082     0.40012
 =======================================================================
   * Total *   -0.00000     19.99289    54.74449    0.26262    75.00000

 Normal termination of Gaussian 16 at Sun Dec 13 22:17:11 2020.
