 Gaussian 16, Revision A.03,

 -----------------------------------------------------------
 # opt freq B3LYP/6-31G(d) empiricaldispersion=gd3bj scf=xqc
 -----------------------------------------------------------

 -------------------------------
 CID_151040704_JID_2126_neutraal
 -------------------------------
 Symbolic Z-matrix:
 Charge =  0 Multiplicity = 1

 SCF Done:  E(RB3LYP) =  -1252.38459923     A.U. after   18 cycles
 SCF Done:  E(RB3LYP) =  -1252.39284850     A.U. after   14 cycles
 SCF Done:  E(RB3LYP) =  -1252.38690371     A.U. after   16 cycles
 SCF Done:  E(RB3LYP) =  -1252.39518382     A.U. after   15 cycles
 SCF Done:  E(RB3LYP) =  -1252.39582265     A.U. after   15 cycles
 SCF Done:  E(RB3LYP) =  -1252.39614821     A.U. after   14 cycles
 SCF Done:  E(RB3LYP) =  -1252.39608965     A.U. after   14 cycles
 SCF Done:  E(RB3LYP) =  -1252.39591269     A.U. after   14 cycles
 SCF Done:  E(RB3LYP) =  -1252.39493003     A.U. after   13 cycles
 SCF Done:  E(RB3LYP) =  -1252.39645732     A.U. after    9 cycles
 SCF Done:  E(RB3LYP) =  -1252.41164634     A.U. after   12 cycles
 SCF Done:  E(RB3LYP) =  -1252.41165224     A.U. after   12 cycles
 SCF Done:  E(RB3LYP) =  -1252.41165645     A.U. after   10 cycles
 SCF Done:  E(RB3LYP) =  -1252.41165707     A.U. after    9 cycles
 SCF Done:  E(RB3LYP) =  -1252.41165719     A.U. after    8 cycles
 SCF Done:  E(RB3LYP) =  -1252.41165719     A.U. after    7 cycles
 Optimization completed.
    -- Stationary point found.
 Normal termination of Gaussian 16 at Wed Dec  9 17:40:13 2020.

 --------------------------------------------------------------------
 #N Geom=AllCheck Guess=TCheck SCRF=Check GenChk RB3LYP/6-31G(d) Freq
 --------------------------------------------------------------------

 Structure from the checkpoint file:  "JID_2126.chk"
 -------------------------------
 CID_151040704_JID_2126_neutraal
 -------------------------------
 Charge =  0 Multiplicity = 1

 SCF Done:  E(RB3LYP) =  -1252.41165719     A.U. after    1 cycles

  Exact polarizability: 126.703  -6.814 140.292  -2.609   2.484 105.087
 Approx polarizability: 163.239 -13.409 252.689  -2.664  -3.157 166.723

                      1                      2                      3
                      A                      A                      A
 Frequencies --     24.5054                35.3011                46.4829
 Red. masses --      3.2055                 6.1356                 6.3356
 Frc consts  --      0.0011                 0.0045                 0.0081
 IR Inten    --      0.4041                 0.1368                 0.1919

                      4                      5                      6
                      A                      A                      A
 Frequencies --     70.2455                73.1974                93.5178
 Red. masses --      5.7699                 3.9801                 3.0458
 Frc consts  --      0.0168                 0.0126                 0.0157
 IR Inten    --      0.4741                 1.3129                 1.5327

                      7                      8                      9
                      A                      A                      A
 Frequencies --    150.9048               175.1240               195.3345
 Red. masses --      2.5813                 1.8300                 4.2458
 Frc consts  --      0.0346                 0.0331                 0.0954
 IR Inten    --      1.8685                 1.8884                 1.9766

                     10                     11                     12
                      A                      A                      A
 Frequencies --    204.7924               228.0428               254.9547
 Red. masses --      2.9571                 1.8434                 1.9600
 Frc consts  --      0.0731                 0.0565                 0.0751
 IR Inten    --      3.3771                 0.1345                 0.4318

                     13                     14                     15
                      A                      A                      A
 Frequencies --    270.8351               291.3728               330.3085
 Red. masses --      3.1310                 2.2790                 2.6689
 Frc consts  --      0.1353                 0.1140                 0.1716
 IR Inten    --      1.5665                 3.6937                 0.8409

                     16                     17                     18
                      A                      A                      A
 Frequencies --    369.2049               378.5988               401.8313
 Red. masses --      2.9797                 2.7492                 4.8212
 Frc consts  --      0.2393                 0.2322                 0.4587
 IR Inten    --      0.5891                 0.0267                 2.6308

                     19                     20                     21
                      A                      A                      A
 Frequencies --    539.0704               555.5472               568.6801
 Red. masses --      5.1300                 3.7713                10.3664
 Frc consts  --      0.8783                 0.6858                 1.9752
 IR Inten    --      8.5090                 6.5171                 5.9875

                     22                     23                     24
                      A                      A                      A
 Frequencies --    628.2187               669.2558               719.5544
 Red. masses --      4.5213                 4.5758                 6.8309
 Frc consts  --      1.0513                 1.2075                 2.0838
 IR Inten    --      1.0774                 1.6899                 8.2018

                     25                     26                     27
                      A                      A                      A
 Frequencies --    733.2101               774.5194               809.9279
 Red. masses --      2.9423                 1.2638                 2.5570
 Frc consts  --      0.9320                 0.4467                 0.9882
 IR Inten    --     32.1153                 8.8771                13.8645

                     28                     29                     30
                      A                      A                      A
 Frequencies --    872.3326               893.2568               991.0402
 Red. masses --      1.6066                 1.9214                 1.9822
 Frc consts  --      0.7203                 0.9033                 1.1470
 IR Inten    --      7.6855                68.2596                 4.9658

                     31                     32                     33
                      A                      A                      A
 Frequencies --    993.5084              1017.3652              1066.0771
 Red. masses --      1.9388                 1.7262                 1.6653
 Frc consts  --      1.1275                 1.0527                 1.1151
 IR Inten    --      4.7793                22.7043                 2.6206

                     34                     35                     36
                      A                      A                      A
 Frequencies --   1082.1489              1093.2982              1149.8957
 Red. masses --      1.8605                 2.0457                 2.3469
 Frc consts  --      1.2836                 1.4407                 1.8284
 IR Inten    --      5.1999                 7.3687                23.8743

                     37                     38                     39
                      A                      A                      A
 Frequencies --   1169.0788              1177.1186              1202.9088
 Red. masses --      1.4809                 1.1545                 1.4951
 Frc consts  --      1.1925                 0.9425                 1.2747
 IR Inten    --     21.2812                 0.6147                10.6011

                     40                     41                     42
                      A                      A                      A
 Frequencies --   1229.0068              1268.9226              1292.5325
 Red. masses --     12.8606                 1.3232                 1.4009
 Frc consts  --     11.4451                 1.2553                 1.3789
 IR Inten    --    110.1908                41.7622                 3.2483

                     43                     44                     45
                      A                      A                      A
 Frequencies --   1304.2910              1324.5367              1355.8207
 Red. masses --      1.2095                 1.2637                 1.2241
 Frc consts  --      1.2123                 1.3063                 1.3258
 IR Inten    --      2.8531                17.0956                20.6430

                     46                     47                     48
                      A                      A                      A
 Frequencies --   1381.4172              1412.4606              1437.5346
 Red. masses --      1.2728                 1.3171                 1.2261
 Frc consts  --      1.4310                 1.5482                 1.4928
 IR Inten    --      3.6954                 2.2203                 4.0731

                     49                     50                     51
                      A                      A                      A
 Frequencies --   1473.5545              1479.8304              1493.8842
 Red. masses --      1.0886                 1.1537                 1.0918
 Frc consts  --      1.3926                 1.4886                 1.4356
 IR Inten    --     14.8992                 7.2247                 1.5451

                     52                     53                     54
                      A                      A                      A
 Frequencies --   1494.7371              1521.8854              1521.9631
 Red. masses --      1.0844                 1.0467                 1.0629
 Frc consts  --      1.4274                 1.4284                 1.4507
 IR Inten    --     10.7567                 8.4459                 6.4559

                     55                     56                     57
                      A                      A                      A
 Frequencies --   1529.8142              1535.7110              1556.0531
 Red. masses --      1.0496                 1.1348                 1.0860
 Frc consts  --      1.4473                 1.5768                 1.5493
 IR Inten    --      7.7405                 9.8614                15.8847

                     58                     59                     60
                      A                      A                      A
 Frequencies --   2241.7871              2978.9311              3038.4442
 Red. masses --     13.9361                 1.0562                 1.0706
 Frc consts  --     41.2649                 5.5224                 5.8234
 IR Inten    --    417.6145                74.4463                 2.5417

                     61                     62                     63
                      A                      A                      A
 Frequencies --   3048.4830              3052.0833              3060.4639
 Red. masses --      1.0462                 1.0665                 1.0649
 Frc consts  --      5.7282                 5.8532                 5.8768
 IR Inten    --     11.4769                57.0672                17.9185

                     64                     65                     66
                      A                      A                      A
 Frequencies --   3068.6520              3080.8646              3089.0662
 Red. masses --      1.0794                 1.0619                 1.1005
 Frc consts  --      5.9887                 5.9387                 6.1871
 IR Inten    --     52.0276                10.2844                12.5410

                     67                     68                     69
                      A                      A                      A
 Frequencies --   3113.7869              3119.1992              3121.0337
 Red. masses --      1.0974                 1.0994                 1.1005
 Frc consts  --      6.2687                 6.3023                 6.3159
 IR Inten    --     35.9440                10.2127                27.7144

                     70                     71                     72
                      A                      A                      A
 Frequencies --   3124.2479              3146.9962              3500.3936
 Red. masses --      1.1033                 1.1054                 1.0748
 Frc consts  --      6.3448                 6.4499                 7.7592
 IR Inten    --      9.7000                15.8819                81.3999

 - Thermochemistry -
 -------------------
 Temperature   298.150 Kelvin.  Pressure   1.00000 Atm.
 Atom     1 has atomic number  6 and mass  12.00000

 Molecular mass:   206.06599 amu.
 Principal axes and moments of inertia in atomic units:
                           1         2         3
     Eigenvalues --  1957.670043615.941834334.66461
           X            0.99974  -0.01484  -0.01703
           Y            0.01452   0.99971  -0.01920
           Z            0.01731   0.01894   0.99967
 This molecule is an asymmetric top.
 Rotational symmetry number  1.
 Warning -- assumption of classical behavior for rotation
           may cause significant error
 Rotational temperatures (Kelvin)      0.04424     0.02395     0.01998
 Rotational constants (GHZ):           0.92188     0.49911     0.41635
 Zero-point vibrational energy     560444.2 (Joules/Mol)
                                  133.94938 (Kcal/Mol)
 Warning -- explicit consideration of  21 degrees of freedom as
           vibrations may cause significant error
 Vibrational temperatures:     35.26    50.79    66.88   101.07   105.31
          (Kelvin)            134.55   217.12   251.96   281.04   294.65
                              328.10   366.82   389.67   419.22   475.24
                              531.20   544.72   578.15   775.60   799.31
                              818.20   903.87   962.91  1035.28  1054.93
                             1114.36  1165.31  1255.09  1285.20  1425.89
                             1429.44  1463.76  1533.85  1556.97  1573.01
                             1654.44  1682.04  1693.61  1730.72  1768.27
                             1825.70  1859.67  1876.58  1905.71  1950.72
                             1987.55  2032.22  2068.29  2120.12  2129.15
                             2149.37  2150.59  2189.65  2189.77  2201.06
                             2209.55  2238.81  3225.43  4286.02  4371.64
                             4386.09  4391.27  4403.32  4415.11  4432.68
                             4444.48  4480.04  4487.83  4490.47  4495.10
                             4527.83  5036.29

 Zero-point correction=                           0.213462 (Hartree/Particle)
 Thermal correction to Energy=                    0.228545
 Thermal correction to Enthalpy=                  0.229489
 Thermal correction to Gibbs Free Energy=         0.169106
 Sum of electronic and zero-point Energies=          -1252.198195
 Sum of electronic and thermal Energies=             -1252.183112
 Sum of electronic and thermal Enthalpies=           -1252.182168
 Sum of electronic and thermal Free Energies=        -1252.242551

                     E (Thermal)             CV                S
                      KCal/Mol        Cal/Mol-Kelvin    Cal/Mol-Kelvin
 Total                  143.414             52.322            127.087
 Electronic               0.000              0.000              0.000
 Translational            0.889              2.981             41.873
 Rotational               0.889              2.981             31.795
 Vibrational            141.637             46.360             53.418
 Vibration     1          0.593              1.985              6.231
 Vibration     2          0.594              1.982              5.507
 Vibration     3          0.595              1.979              4.962
 Vibration     4          0.598              1.968              4.146
 Vibration     5          0.599              1.967              4.065
 Vibration     6          0.603              1.954              3.585
 Vibration     7          0.618              1.902              2.661
 Vibration     8          0.627              1.873              2.380
 Vibration     9          0.636              1.846              2.177
 Vibration    10          0.640              1.833              2.090
 Vibration    11          0.651              1.798              1.894
 Vibration    12          0.665              1.754              1.696
 Vibration    13          0.675              1.727              1.591
 Vibration    14          0.687              1.690              1.466
 Vibration    15          0.713              1.615              1.259
 Vibration    16          0.742              1.536              1.083
 Vibration    17          0.749              1.516              1.045
 Vibration    18          0.767              1.466              0.956
 Vibration    19          0.894              1.164              0.567
 Vibration    20          0.911              1.128              0.533
 Vibration    21          0.925              1.099              0.507

 Optimization completed.
    -- Stationary point found.
 Normal termination of Gaussian 16 at Wed Dec  9 17:49:19 2020.

 ----------------------------------------------------------------------
 # B3LYP/6-311++G(d,p) empiricaldispersion=gd3bj scf=xqc pop=npa geom=c
 heck
 ----------------------------------------------------------------------

 ---------------------------------------
 CID_151040704_JID_2126_Energie_neutraal
 ---------------------------------------
 Structure from the checkpoint file:  "JID_2126.chk"
 Charge =  0 Multiplicity = 1

 SCF Done:  E(RB3LYP) =  -1252.59826611     A.U. after   19 cycles
 Normal termination of Gaussian 16 at Wed Dec  9 17:53:26 2020.

 ----------------------------------------------------------------------
 # B3LYP/6-311++G(d,p) empiricaldispersion=gd3bj scf=xqc pop=npa geom=c
 heck
 ----------------------------------------------------------------------

 -------------------------------------
 CID_151040704_JID_2126_Energie_kation
 -------------------------------------
 Structure from the checkpoint file:  "JID_2126.chk"
 Charge =  1 Multiplicity = 2

 SCF Done:  E(UB3LYP) =  -1252.30335441     A.U. after   28 cycles
 Normal termination of Gaussian 16 at Wed Dec  9 18:00:21 2020.
 Gaussian 16:  ES64L-G16RevA.03 25-Dec-2016

 ----------------------------------------------------------------------
 # B3LYP/6-311++G(d,p) empiricaldispersion=gd3bj scf=xqc pop=npa geom=c
 heck
 ----------------------------------------------------------------------

 ------------------------------------
 CID_151040704_JID_2126_Energie_anion
 ------------------------------------
 Structure from the checkpoint file:  "JID_2126.chk"
 Charge = -1 Multiplicity = 2

                         Standard orientation:
 ---------------------------------------------------------------------
 Center     Atomic      Atomic             Coordinates (Angstroms)
 Number     Number       Type             X           Y           Z
 ---------------------------------------------------------------------
      1          6           0       -3.995741    0.476734   -0.018713
      2          6           0       -2.687324    1.150606    0.383056
      3         16           0       -1.301236    0.850793   -0.781386
      4          6           0       -0.911974   -0.910895   -0.364372
      5          6           0        0.173210   -1.411687   -1.346833
      6          6           0        1.445587   -0.578217   -1.520305
      7         16           0        2.659831   -0.565965   -0.144014
      8          7           0        1.913832    0.520802    1.034365
      9          7           0        1.942162    1.722278    0.697678
     10          7           0        1.886089    2.840176    0.496734
     11          7           0       -0.664659   -1.037920    1.055866
     12          6           0       -0.562525   -2.405255    1.546306
     13          1           0       -4.321402    0.801098   -1.011984
     14          1           0       -4.785041    0.722296    0.702691
     15          1           0       -3.890737   -0.613064   -0.033573
     16          1           0       -2.797379    2.239172    0.413507
     17          1           0       -2.350861    0.807616    1.364468
     18          1           0       -1.807767   -1.506815   -0.579459
     19          1           0        0.449766   -2.432044   -1.056753
     20          1           0       -0.292263   -1.482422   -2.338889
     21          1           0        2.042713   -1.000699   -2.338609
     22          1           0        1.225101    0.457286   -1.796335
     23          1           0        0.141637   -0.479905    1.329764
     24          1           0        0.277504   -2.987786    1.130674
     25          1           0       -0.447553   -2.382668    2.634400
     26          1           0       -1.490604   -2.944368    1.319165
 ---------------------------------------------------------------------

 SCF Done:  E(UB3LYP) =  -1252.60381859     A.U. after   31 cycles

 The electronic state is 2-A.
 Alpha  occ. eigenvalues --  -88.71982 -88.70917 -14.28838 -14.20429 -14.19995
 Alpha  occ. eigenvalues --  -14.17798 -10.11546 -10.08842 -10.07933 -10.07354
 Alpha  occ. eigenvalues --  -10.06788 -10.06319  -7.80644  -7.79425  -5.77036
 Alpha  occ. eigenvalues --   -5.76667  -5.76009  -5.75961  -5.75470  -5.74697
 Alpha  occ. eigenvalues --   -0.96743  -0.80943  -0.79694  -0.69487  -0.67685
 Alpha  occ. eigenvalues --   -0.62683  -0.58445  -0.56082  -0.52354  -0.49286
 Alpha  occ. eigenvalues --   -0.45520  -0.38217  -0.36872  -0.36132  -0.35279
 Alpha  occ. eigenvalues --   -0.34998  -0.34014  -0.32851  -0.32162  -0.31172
 Alpha  occ. eigenvalues --   -0.29598  -0.28909  -0.28500  -0.27137  -0.26384
 Alpha  occ. eigenvalues --   -0.26151  -0.25333  -0.22568  -0.20455  -0.19204
 Alpha  occ. eigenvalues --   -0.16716  -0.11928  -0.11552  -0.10390  -0.08419
 Alpha  occ. eigenvalues --    0.04864
 Alpha virt. eigenvalues --    0.06525   0.07799   0.08706   0.09521   0.10253
 Alpha virt. eigenvalues --    0.10926   0.11006   0.11605   0.12485   0.13152
 Alpha virt. eigenvalues --    0.13647   0.13877   0.14239   0.14801   0.15146

  Beta  occ. eigenvalues --  -88.71981 -88.70752 -14.28428 -14.20380 -14.19346
  Beta  occ. eigenvalues --  -14.17795 -10.11542 -10.08836 -10.07919 -10.07352
  Beta  occ. eigenvalues --  -10.06774 -10.06310  -7.80643  -7.79255  -5.77035
  Beta  occ. eigenvalues --   -5.76666  -5.76008  -5.75591  -5.75310  -5.74580
  Beta  occ. eigenvalues --   -0.95846  -0.80441  -0.79613  -0.69462  -0.67570
  Beta  occ. eigenvalues --   -0.62467  -0.58126  -0.55996  -0.52071  -0.49153
  Beta  occ. eigenvalues --   -0.45420  -0.38041  -0.36546  -0.35963  -0.35028
  Beta  occ. eigenvalues --   -0.33740  -0.33563  -0.32563  -0.31912  -0.31085
  Beta  occ. eigenvalues --   -0.29196  -0.28873  -0.27416  -0.27033  -0.26254
  Beta  occ. eigenvalues --   -0.26072  -0.25238  -0.22535  -0.20138  -0.19143
  Beta  occ. eigenvalues --   -0.15328  -0.11795  -0.11505  -0.10224  -0.08036
  Beta virt. eigenvalues --    0.06702   0.07922   0.08693   0.09469   0.10266
  Beta virt. eigenvalues --    0.10754   0.10985   0.11694   0.11785   0.12756
  Beta virt. eigenvalues --    0.13175   0.13678   0.13992   0.14438   0.14878

 Mulliken charges and spin densities:
               1          2
     1  C   -0.021796  -0.502395
     2  C   -0.572032   0.233744
     3  S   -0.180668   0.034211
     4  C    0.170234   0.162251
     5  C   -0.073297  -0.576344
     6  C   -0.477122   0.026223
     7  S    0.093634   0.055942
     8  N    0.264874  -0.041772
     9  N   -0.156647   0.161434
    10  N   -0.589227   0.398365
    11  N   -0.440597   0.047524
    12  C    0.073028  -0.474474
    13  H    0.077482   0.033747
    14  H   -0.074496   0.184044
    15  H   -0.076074   0.220040
    16  H    0.093028   0.086168
    17  H    0.250421  -0.036408
    18  H    0.221259   0.011287
    19  H   -0.133192   0.272967
    20  H    0.081381   0.051340
    21  H    0.034257   0.179272
    22  H    0.153845   0.005729
    23  H    0.298451   0.062836
    24  H   -0.019162   0.136473
    25  H    0.089737   0.043253
    26  H   -0.087321   0.224542
 Sum of Mulliken charges =  -1.00000   1.00000

 Dipole moment (field-independent basis, Debye):
    X=             -4.4018    Y=             -1.6197    Z=             -0.9337  Tot=              4.7824
 Quadrupole moment (field-independent basis, Debye-Ang):
   XX=           -135.8520   YY=           -123.8942   ZZ=           -103.7698
   XY=             -4.8956   XZ=             -0.8393   YZ=             -0.8838

 Summary of Natural Population Analysis:

                                       Natural Population
                Natural  -----------------------------------------------
    Atom  No    Charge         Core      Valence    Rydberg      Total
 -----------------------------------------------------------------------
      C    1   -0.28933      0.99966     2.28429    0.00538     3.28933
      C    2   -0.25541      0.99961     2.24600    0.00981     3.25541
      S    3    0.08148      4.99960     2.90090    0.01802     7.91852
      C    4   -0.06112      0.99957     2.04301    0.01854     3.06112
      C    5   -0.20969      0.99958     2.19866    0.01145     3.20969
      C    6   -0.27130      0.99958     2.25772    0.01400     3.27130
      S    7    0.21103      4.99959     2.76599    0.02339     7.78897
      N    8   -0.30620      0.99975     2.78942    0.01703     3.80620
      N    9    0.13907      0.99970     2.34401    0.01722     3.36093
      N   10    0.03759      0.99982     2.45049    0.01211     3.46241
      N   11   -0.36589      0.99972     2.85259    0.01358     3.86589
      C   12   -0.17668      0.99965     2.17013    0.00690     3.17668
      H   13    0.09656      0.00000     0.40188    0.00157     0.40344
      H   14    0.09457      0.00000     0.40389    0.00154     0.40543
      H   15    0.09852      0.00000     0.40017    0.00130     0.40148
      H   16    0.09991      0.00000     0.39895    0.00114     0.40009
      H   17    0.11211      0.00000     0.38590    0.00199     0.38789
      H   18    0.08879      0.00000     0.40831    0.00289     0.41121
      H   19    0.10369      0.00000     0.39469    0.00162     0.39631
      H   20    0.09846      0.00000     0.40027    0.00128     0.40154
      H   21    0.10632      0.00000     0.39242    0.00126     0.39368
      H   22    0.10561      0.00000     0.39302    0.00137     0.39439
      H   23    0.20015      0.00000     0.29642    0.00343     0.29985
      H   24    0.08264      0.00000     0.41539    0.00196     0.41736
      H   25    0.09333      0.00000     0.40572    0.00095     0.40667
      H   26    0.08579      0.00000     0.41304    0.00117     0.41421
 =======================================================================
   * Total *    0.00000     19.99583    34.81327    0.19089    55.00000

 Normal termination of Gaussian 16 at Wed Dec  9 18:07:50 2020.
