 Gaussian 16, Revision A.03,

 -----------------------------------------------------------
 # opt freq B3LYP/6-31G(d) empiricaldispersion=gd3bj scf=xqc
 -----------------------------------------------------------

 ------------------------------
 CID_63316164_JID_9979_neutraal
 ------------------------------
 Symbolic Z-matrix:
 Charge =  0 Multiplicity = 1

 SCF Done:  E(RB3LYP) =  -823.768539180     A.U. after   14 cycles
 SCF Done:  E(RB3LYP) =  -823.773140781     A.U. after   13 cycles
 SCF Done:  E(RB3LYP) =  -823.771910161     A.U. after   14 cycles
 SCF Done:  E(RB3LYP) =  -823.775281785     A.U. after   13 cycles
 SCF Done:  E(RB3LYP) =  -823.776599356     A.U. after   15 cycles
 SCF Done:  E(RB3LYP) =  -823.778784697     A.U. after   13 cycles
 SCF Done:  E(RB3LYP) =  -823.779031870     A.U. after   12 cycles
 SCF Done:  E(RB3LYP) =  -823.780055889     A.U. after   12 cycles
 SCF Done:  E(RB3LYP) =  -823.780329360     A.U. after   12 cycles
 SCF Done:  E(RB3LYP) =  -823.780457101     A.U. after   12 cycles
 SCF Done:  E(RB3LYP) =  -823.780539165     A.U. after    9 cycles
 SCF Done:  E(RB3LYP) =  -823.780539968     A.U. after    9 cycles
 SCF Done:  E(RB3LYP) =  -823.780540271     A.U. after    8 cycles
 SCF Done:  E(RB3LYP) =  -823.780540425     A.U. after    8 cycles
 SCF Done:  E(RB3LYP) =  -823.780540448     A.U. after    6 cycles
 Optimization completed.
    -- Stationary point found.
 Normal termination of Gaussian 16 at Sat Dec 12 10:22:12 2020.

 --------------------------------------------------------------------
 #N Geom=AllCheck Guess=TCheck SCRF=Check GenChk RB3LYP/6-31G(d) Freq
 --------------------------------------------------------------------

 Structure from the checkpoint file:  "JID_9979.chk"
 ------------------------------
 CID_63316164_JID_9979_neutraal
 ------------------------------
 Charge =  0 Multiplicity = 1

 SCF Done:  E(RB3LYP) =  -823.780540448     A.U. after    1 cycles

  Exact polarizability: 187.922 -24.687 157.194 -21.327 -22.810 158.276
 Approx polarizability: 274.824 -47.986 255.773 -41.095 -56.696 256.506

                      1                      2                      3
                      A                      A                      A
 Frequencies --     13.8709                34.1464                55.9824
 Red. masses --      4.5936                 2.9620                 4.1551
 Frc consts  --      0.0005                 0.0020                 0.0077
 IR Inten    --      0.3928                 0.1123                 0.5833

                      4                      5                      6
                      A                      A                      A
 Frequencies --     61.9551                81.4626                95.9144
 Red. masses --      4.4214                 4.0461                 4.6745
 Frc consts  --      0.0100                 0.0158                 0.0253
 IR Inten    --      0.6728                 2.4348                 0.8704

                      7                      8                      9
                      A                      A                      A
 Frequencies --    116.5959               166.9501               174.7702
 Red. masses --      3.1369                 3.2521                 3.3516
 Frc consts  --      0.0251                 0.0534                 0.0603
 IR Inten    --      1.8367                 2.3051                 1.2923

                     10                     11                     12
                      A                      A                      A
 Frequencies --    225.5255               233.5001               242.9402
 Red. masses --      3.4340                 1.2373                 1.1594
 Frc consts  --      0.1029                 0.0397                 0.0403
 IR Inten    --      4.9293                 3.4204                 0.6991

                     13                     14                     15
                      A                      A                      A
 Frequencies --    249.3997               264.2835               272.4839
 Red. masses --      1.0693                 1.9021                 1.1553
 Frc consts  --      0.0392                 0.0783                 0.0505
 IR Inten    --     40.6044                 5.1625                 0.7552

                     16                     17                     18
                      A                      A                      A
 Frequencies --    283.4847               294.7693               318.8116
 Red. masses --      2.7444                 2.8974                 3.7782
 Frc consts  --      0.1299                 0.1483                 0.2263
 IR Inten    --      1.9647                 0.7724                12.8545

                     19                     20                     21
                      A                      A                      A
 Frequencies --    330.6395               344.7599               389.7958
 Red. masses --      3.1667                 2.7953                 3.4977
 Frc consts  --      0.2040                 0.1958                 0.3131
 IR Inten    --     11.3247                 0.6183                 0.5389

                     22                     23                     24
                      A                      A                      A
 Frequencies --    416.9552               443.8071               476.0984
 Red. masses --      3.2058                 2.4883                 3.2884
 Frc consts  --      0.3284                 0.2888                 0.4392
 IR Inten    --      1.0799                11.2028                 5.1640

                     25                     26                     27
                      A                      A                      A
 Frequencies --    488.3335               518.8964               534.5975
 Red. masses --      3.4910                 3.3852                 2.8499
 Frc consts  --      0.4905                 0.5370                 0.4799
 IR Inten    --      0.3042                 3.0487                 2.6869

                     28                     29                     30
                      A                      A                      A
 Frequencies --    583.7776               610.7645               632.3760
 Red. masses --      3.8441                 5.3777                 3.9565
 Frc consts  --      0.7719                 1.1819                 0.9322
 IR Inten    --      1.3229                 1.7593                36.4057

                     31                     32                     33
                      A                      A                      A
 Frequencies --    675.9667               680.6477               709.4548
 Red. masses --      2.8266                 3.8267                 4.0932
 Frc consts  --      0.7610                 1.0445                 1.2138
 IR Inten    --     79.2036                 7.8551                 2.3773

                     34                     35                     36
                      A                      A                      A
 Frequencies --    726.4858               736.5271               744.4563
 Red. masses --      1.2459                 3.7176                 3.3354
 Frc consts  --      0.3874                 1.1882                 1.0891
 IR Inten    --     23.2484                16.2655                 7.5884

                     37                     38                     39
                      A                      A                      A
 Frequencies --    765.2844               792.6487               821.4093
 Red. masses --      4.3385                 1.7785                 1.3273
 Frc consts  --      1.4971                 0.6584                 0.5276
 IR Inten    --      5.8954               291.1797                 2.8748

                     40                     41                     42
                      A                      A                      A
 Frequencies --    830.1208               860.4905               894.9725
 Red. masses --      1.3565                 2.8629                 2.4012
 Frc consts  --      0.5507                 1.2490                 1.1332
 IR Inten    --      8.8087                 6.0381                 4.3877

                     43                     44                     45
                      A                      A                      A
 Frequencies --    905.6847               938.6886               944.5531
 Red. masses --      1.6079                 1.2709                 1.1987
 Frc consts  --      0.7771                 0.6598                 0.6301
 IR Inten    --     16.2574                 0.2138                 0.5286

                     46                     47                     48
                      A                      A                      A
 Frequencies --    950.5613               974.0370               983.3487
 Red. masses --      2.6096                 1.4967                 2.6525
 Frc consts  --      1.3893                 0.8366                 1.5112
 IR Inten    --      8.7462                 0.1302                 3.4684

                     49                     50                     51
                      A                      A                      A
 Frequencies --   1024.0250              1027.4079              1030.2672
 Red. masses --      4.5009                 1.6272                 2.2298
 Frc consts  --      2.7808                 1.0120                 1.3945
 IR Inten    --      9.6712                 0.2086                 7.3549

                     52                     53                     54
                      A                      A                      A
 Frequencies --   1071.4066              1080.4618              1085.4877
 Red. masses --      1.9064                 1.4927                 1.9272
 Frc consts  --      1.2894                 1.0267                 1.3379
 IR Inten    --     10.3520                 3.8215                56.1189

                     55                     56                     57
                      A                      A                      A
 Frequencies --   1095.0906              1097.8505              1135.7020
 Red. masses --      2.0227                 1.5617                 2.2967
 Frc consts  --      1.4291                 1.1090                 1.7454
 IR Inten    --      8.7777                11.5955                 1.0555

                     58                     59                     60
                      A                      A                      A
 Frequencies --   1157.5037              1167.7790              1171.5750
 Red. masses --      1.7842                 1.6858                 2.2156
 Frc consts  --      1.4084                 1.3545                 1.7918
 IR Inten    --     31.2445                27.8628                22.5722

                     61                     62                     63
                      A                      A                      A
 Frequencies --   1215.6851              1225.3976              1236.6670
 Red. masses --      1.9576                 1.4353                 1.8547
 Frc consts  --      1.7046                 1.2698                 1.6712
 IR Inten    --     22.9237                 4.4734                 0.1945

                     64                     65                     66
                      A                      A                      A
 Frequencies --   1274.7387              1280.3567              1302.8285
 Red. masses --      1.9261                 2.3843                 1.6772
 Frc consts  --      1.8441                 2.3029                 1.6773
 IR Inten    --     25.1909                31.8396                14.7360

                     67                     68                     69
                      A                      A                      A
 Frequencies --   1339.9166              1347.6062              1349.6988
 Red. masses --      1.2249                 3.5560                 2.5355
 Frc consts  --      1.2957                 3.8048                 2.7213
 IR Inten    --     15.8465                26.0435                22.3783

                     70                     71                     72
                      A                      A                      A
 Frequencies --   1363.6193              1385.9162              1406.0586
 Red. masses --      1.3301                 2.0270                 1.4064
 Frc consts  --      1.4572                 2.2939                 1.6383
 IR Inten    --      3.3189                15.3404                 9.2485

                     73                     74                     75
                      A                      A                      A
 Frequencies --   1424.3709              1427.4961              1433.0606
 Red. masses --      1.2342                 1.3434                 1.2830
 Frc consts  --      1.4753                 1.6128                 1.5524
 IR Inten    --      4.0351                10.1207                 2.9286

                     76                     77                     78
                      A                      A                      A
 Frequencies --   1444.3792              1445.3977              1469.8146
 Red. masses --      1.3117                 3.2610                 2.3311
 Frc consts  --      1.6123                 4.0140                 2.9671
 IR Inten    --      0.4837                 0.9123                31.9245

                     79                     80                     81
                      A                      A                      A
 Frequencies --   1493.8517              1502.7631              1514.1600
 Red. masses --      3.0203                 1.2116                 1.1095
 Frc consts  --      3.9711                 1.6121                 1.4987
 IR Inten    --     34.8977                11.9696                 1.6577

                     82                     83                     84
                      A                      A                      A
 Frequencies --   1517.5897              1521.3188              1525.4181
 Red. masses --      1.0442                 1.0499                 1.1303
 Frc consts  --      1.4169                 1.4317                 1.5497
 IR Inten    --      0.5274                 2.1608                 5.0992

                     85                     86                     87
                      A                      A                      A
 Frequencies --   1532.2440              1537.3721              1546.2806
 Red. masses --      1.0495                 1.1049                 1.7395
 Frc consts  --      1.4518                 1.5386                 2.4505
 IR Inten    --      6.4526                 0.5318                22.1542

                     88                     89                     90
                      A                      A                      A
 Frequencies --   1549.0422              1555.9953              1610.0404
 Red. masses --      1.7309                 2.5520                 3.9110
 Frc consts  --      2.4471                 3.6404                 5.9733
 IR Inten    --     42.4419                46.9257               101.9958

                     91                     92                     93
                      A                      A                      A
 Frequencies --   1629.1155              1675.9097              1682.8863
 Red. masses --      5.6429                 6.4636                 1.2693
 Frc consts  --      8.8239                10.6961                 2.1180
 IR Inten    --     24.2955                16.6665                87.7352

                     94                     95                     96
                      A                      A                      A
 Frequencies --   3033.7076              3041.2799              3046.5915
 Red. masses --      1.0837                 1.0352                 1.0364
 Frc consts  --      5.8762                 5.6416                 5.6675
 IR Inten    --     15.6857                27.5017                32.1677

                     97                     98                     99
                      A                      A                      A
 Frequencies --   3047.8128              3051.0376              3090.3870
 Red. masses --      1.0354                 1.0662                 1.0588
 Frc consts  --      5.6669                 5.8478                 5.9580
 IR Inten    --     23.1000                37.5569                60.4588

                    100                    101                    102
                      A                      A                      A
 Frequencies --   3104.9673              3108.6422              3113.2314
 Red. masses --      1.1022                 1.0999                 1.1016
 Frc consts  --      6.2606                 6.2623                 6.2909
 IR Inten    --     10.9385                13.9614                76.7493

                    103                    104                    105
                      A                      A                      A
 Frequencies --   3118.6083              3123.4681              3123.5154
 Red. masses --      1.1026                 1.1008                 1.1024
 Frc consts  --      6.3181                 6.3275                 6.3367
 IR Inten    --     36.0285                15.0345                29.4147

                    106                    107                    108
                      A                      A                      A
 Frequencies --   3125.3342              3143.3107              3167.7105
 Red. masses --      1.1021                 1.1049                 1.0866
 Frc consts  --      6.3426                 6.4319                 6.4242
 IR Inten    --     13.5092                18.1234                14.5996

                    109                    110                    111
                      A                      A                      A
 Frequencies --   3187.3499              3195.5655              3271.8523
 Red. masses --      1.0938                 1.0898                 1.0910
 Frc consts  --      6.5473                 6.5567                 6.8814
 IR Inten    --     28.0598                 5.8487                 1.7788

                    112                    113                    114
                      A                      A                      A
 Frequencies --   3290.6565              3525.1548              3623.1495
 Red. masses --      1.1044                 1.0481                 1.0963
 Frc consts  --      7.0463                 7.6737                 8.4788
 IR Inten    --      0.9145                 4.8204                 7.0746

 - Thermochemistry -
 -------------------
 Temperature   298.150 Kelvin.  Pressure   1.00000 Atm.
 Atom     1 has atomic number  6 and mass  12.00000

 Molecular mass:   259.16846 amu.
 Principal axes and moments of inertia in atomic units:
                           1         2         3
     Eigenvalues --  3377.158685850.565596308.76431
           X            0.99917  -0.03188  -0.02526
           Y            0.03125   0.99920  -0.02509
           Z            0.02604   0.02428   0.99937
 This molecule is an asymmetric top.
 Rotational symmetry number  1.
 Warning -- assumption of classical behavior for rotation
           may cause significant error
 Rotational temperatures (Kelvin)      0.02565     0.01480     0.01373
 Rotational constants (GHZ):           0.53440     0.30847     0.28607
 Zero-point vibrational energy     905201.5 (Joules/Mol)
                                  216.34835 (Kcal/Mol)
 Warning -- explicit consideration of  29 degrees of freedom as
           vibrations may cause significant error
 Vibrational temperatures:     19.96    49.13    80.55    89.14   117.21
          (Kelvin)            138.00   167.76   240.20   251.46   324.48
                              335.95   349.54   358.83   380.24   392.04
                              407.87   424.11   458.70   475.72   496.03
                              560.83   599.91   638.54   685.00   702.60
                              746.58   769.17   839.93   878.75   909.85
                              972.57   979.30  1020.75  1045.25  1059.70
                             1071.11  1101.07  1140.44  1181.82  1194.36
                             1238.05  1287.67  1303.08  1350.56  1359.00
                             1367.65  1401.42  1414.82  1473.34  1478.21
                             1482.32  1541.52  1554.54  1561.77  1575.59
                             1579.56  1634.02  1665.39  1680.17  1685.64
                             1749.10  1763.07  1779.29  1834.06  1842.15
                             1874.48  1927.84  1938.90  1941.92  1961.94
                             1994.02  2023.00  2049.35  2053.85  2061.85
                             2078.14  2079.60  2114.74  2149.32  2162.14
                             2178.54  2183.47  2188.84  2194.74  2204.56
                             2211.94  2224.75  2228.73  2238.73  2316.49
                             2343.93  2411.26  2421.30  4364.83  4375.72
                             4383.37  4385.12  4389.76  4446.38  4467.36
                             4472.64  4479.25  4486.98  4493.97  4494.04
                             4496.66  4522.52  4557.63  4585.89  4597.71
                             4707.47  4734.52  5071.91  5212.90

 Zero-point correction=                           0.344773 (Hartree/Particle)
 Thermal correction to Energy=                    0.363528
 Thermal correction to Enthalpy=                  0.364472
 Thermal correction to Gibbs Free Energy=         0.297087
 Sum of electronic and zero-point Energies=           -823.435767
 Sum of electronic and thermal Energies=              -823.417013
 Sum of electronic and thermal Enthalpies=            -823.416068
 Sum of electronic and thermal Free Energies=         -823.483454

                     E (Thermal)             CV                S
                      KCal/Mol        Cal/Mol-Kelvin    Cal/Mol-Kelvin
 Total                  228.117             72.391            141.825
 Electronic               0.000              0.000              0.000
 Translational            0.889              2.981             42.557
 Rotational               0.889              2.981             33.188
 Vibrational            226.340             66.429             66.080
 Vibration     1          0.593              1.986              7.361
 Vibration     2          0.594              1.983              5.573
 Vibration     3          0.596              1.975              4.594
 Vibration     4          0.597              1.972              4.394
 Vibration     5          0.600              1.962              3.855
 Vibration     6          0.603              1.952              3.536
 Vibration     7          0.608              1.936              3.156
 Vibration     8          0.624              1.883              2.470
 Vibration     9          0.627              1.873              2.384
 Vibration    10          0.650              1.802              1.914
 Vibration    11          0.654              1.790              1.852
 Vibration    12          0.659              1.774              1.781
 Vibration    13          0.662              1.764              1.735
 Vibration    14          0.671              1.738              1.633
 Vibration    15          0.675              1.724              1.580
 Vibration    16          0.682              1.704              1.513
 Vibration    17          0.689              1.683              1.446
 Vibration    18          0.705              1.638              1.316
 Vibration    19          0.713              1.614              1.257
 Vibration    20          0.723              1.586              1.190
 Vibration    21          0.758              1.492              1.001
 Vibration    22          0.780              1.433              0.902
 Vibration    23          0.803              1.375              0.815
 Vibration    24          0.833              1.303              0.721
 Vibration    25          0.844              1.276              0.688
 Vibration    26          0.874              1.208              0.613
 Vibration    27          0.890              1.173              0.577
 Vibration    28          0.941              1.066              0.478
 Vibration    29          0.970              1.009              0.432

                           ! Non-Optimized Parameters !
 Normal termination of Gaussian 16 at Sat Dec 12 10:43:41 2020.

 ----------------------------------------------------------------------
 # B3LYP/6-311++G(d,p) empiricaldispersion=gd3bj scf=xqc pop=npa geom=c
 heck
 ----------------------------------------------------------------------

 --------------------------------------
 CID_63316164_JID_9979_Energie_neutraal
 --------------------------------------
 Structure from the checkpoint file:  "JID_9979.chk"
 Charge =  0 Multiplicity = 1

 SCF Done:  E(RB3LYP) =  -824.006876411     A.U. after   15 cycles
 Normal termination of Gaussian 16 at Sat Dec 12 10:51:54 2020.

 ----------------------------------------------------------------------
 # B3LYP/6-311++G(d,p) empiricaldispersion=gd3bj scf=xqc pop=npa geom=c
 heck
 ----------------------------------------------------------------------

 ------------------------------------
 CID_63316164_JID_9979_Energie_kation
 ------------------------------------
 Structure from the checkpoint file:  "JID_9979.chk"
 Charge =  1 Multiplicity = 2

 SCF Done:  E(UB3LYP) =  -823.738363227     A.U. after   24 cycles
 Normal termination of Gaussian 16 at Sat Dec 12 11:09:38 2020.
 Gaussian 16:  ES64L-G16RevA.03 25-Dec-2016

 ----------------------------------------------------------------------
 # B3LYP/6-311++G(d,p) empiricaldispersion=gd3bj scf=xqc pop=npa geom=c
 heck
 ----------------------------------------------------------------------

 -----------------------------------
 CID_63316164_JID_9979_Energie_anion
 -----------------------------------
 Structure from the checkpoint file:  "JID_9979.chk"
 Charge = -1 Multiplicity = 2

                         Standard orientation:
 ---------------------------------------------------------------------
 Center     Atomic      Atomic             Coordinates (Angstroms)
 Number     Number       Type             X           Y           Z
 ---------------------------------------------------------------------
      1          6           0       -1.637404    1.590507    2.039832
      2          6           0       -0.361916    0.997724    1.501449
      3          6           0        0.209674    1.420724    0.289450
      4          6           0        1.421253    0.896395   -0.157010
      5          6           0        2.094210   -0.095867    0.561516
      6          6           0        1.517506   -0.542840    1.752483
      7          6           0        0.318231    0.001281    2.208124
      8          6           0        3.391872   -0.693046    0.046620
      9          6           0        3.163366   -1.473017   -1.259659
     10          6           0        4.486305    0.371406   -0.130514
     11          8           0       -0.343702    2.431899   -0.479876
     12          6           0       -1.608905    2.207897   -1.102184
     13          6           0       -1.638346    1.024913   -2.070058
     14          7           0       -1.646669   -0.256926   -1.396199
     15          6           0       -0.720598   -1.244674   -1.449855
     16          6           0       -1.098114   -2.211760   -0.541504
     17          6           0       -2.288337   -1.701850    0.039550
     18          7           0       -2.620551   -0.516904   -0.473913
     19          7           0       -3.104110   -2.325076    0.987296
     20          1           0       -1.692150    2.664623    1.834577
     21          1           0       -2.513158    1.113851    1.583172
     22          1           0       -1.699891    1.446667    3.123250
     23          1           0        1.820277    1.280536   -1.091191
     24          1           0        2.014940   -1.315681    2.333307
     25          1           0       -0.101551   -0.343552    3.150633
     26          1           0        3.741637   -1.409028    0.802319
     27          1           0        2.826827   -0.803007   -2.060242
     28          1           0        4.088824   -1.955056   -1.595891
     29          1           0        2.400158   -2.247031   -1.125293
     30          1           0        4.666565    0.909413    0.805960
     31          1           0        5.428046   -0.089360   -0.450968
     32          1           0        4.200982    1.109225   -0.889278
     33          1           0       -2.404495    2.076506   -0.364461
     34          1           0       -1.803169    3.126631   -1.663263
     35          1           0       -2.540954    1.110990   -2.688376
     36          1           0       -0.765450    1.049192   -2.728291
     37          1           0        0.132777   -1.179836   -2.107933
     38          1           0       -0.599998   -3.145573   -0.327709
     39          1           0       -2.573176   -2.777396    1.723467
     40          1           0       -3.770894   -1.671716    1.385496
 ---------------------------------------------------------------------

 SCF Done:  E(UB3LYP) =  -823.994656350     A.U. after   33 cycles
 SCF Done:  E(UB3LYP) =  -823.994656351     a.u. after    1 cycles

 The electronic state is 2-A.
 Alpha  occ. eigenvalues --  -19.04962 -14.28675 -14.22009 -14.21929 -10.13737
 Alpha  occ. eigenvalues --  -10.13181 -10.12806 -10.12803 -10.10931 -10.08813
 Alpha  occ. eigenvalues --  -10.08584 -10.08271 -10.07620 -10.07275 -10.07211
 Alpha  occ. eigenvalues --  -10.07152 -10.07014 -10.06837 -10.06319  -0.96573
 Alpha  occ. eigenvalues --   -0.94887  -0.82002  -0.76716  -0.73644  -0.71542
 Alpha  occ. eigenvalues --   -0.69302  -0.66553  -0.66085  -0.62628  -0.59526
 Alpha  occ. eigenvalues --   -0.59211  -0.55713  -0.52188  -0.51044  -0.50084
 Alpha  occ. eigenvalues --   -0.47870  -0.46297  -0.44134  -0.42159  -0.40648
 Alpha  occ. eigenvalues --   -0.40006  -0.39240  -0.38624  -0.36389  -0.35567
 Alpha  occ. eigenvalues --   -0.34809  -0.34351  -0.33657  -0.33235  -0.32949
 Alpha  occ. eigenvalues --   -0.32320  -0.31030  -0.30692  -0.30460  -0.29725
 Alpha  occ. eigenvalues --   -0.29609  -0.28175  -0.28136  -0.26426  -0.25642
 Alpha  occ. eigenvalues --   -0.24250  -0.23812  -0.23565  -0.22523  -0.20509
 Alpha  occ. eigenvalues --   -0.19301  -0.15390  -0.15002  -0.13737  -0.11357
 Alpha  occ. eigenvalues --    0.03981
 Alpha virt. eigenvalues --    0.05565   0.05921   0.07285   0.07557   0.07814
 Alpha virt. eigenvalues --    0.08104   0.08512   0.08904   0.09098   0.09408
 Alpha virt. eigenvalues --    0.09887   0.10587   0.10909   0.11051   0.11657

  Beta  occ. eigenvalues --  -19.04960 -14.28675 -14.21999 -14.21893 -10.13725
  Beta  occ. eigenvalues --  -10.13178 -10.12803 -10.12786 -10.10918 -10.08804
  Beta  occ. eigenvalues --  -10.08582 -10.08271 -10.07608 -10.07264 -10.07202
  Beta  occ. eigenvalues --  -10.07144 -10.06996 -10.06812 -10.06305  -0.96566
  Beta  occ. eigenvalues --   -0.94878  -0.81953  -0.76702  -0.73611  -0.71523
  Beta  occ. eigenvalues --   -0.69280  -0.66535  -0.66064  -0.62602  -0.59484
  Beta  occ. eigenvalues --   -0.59185  -0.55678  -0.52157  -0.51010  -0.50053
  Beta  occ. eigenvalues --   -0.47836  -0.46268  -0.44093  -0.42139  -0.40622
  Beta  occ. eigenvalues --   -0.39966  -0.39213  -0.38594  -0.36356  -0.35536
  Beta  occ. eigenvalues --   -0.34785  -0.34325  -0.33634  -0.33216  -0.32924
  Beta  occ. eigenvalues --   -0.32290  -0.31009  -0.30665  -0.30434  -0.29702
  Beta  occ. eigenvalues --   -0.29586  -0.28148  -0.28116  -0.26405  -0.25619
  Beta  occ. eigenvalues --   -0.24225  -0.23793  -0.23538  -0.22500  -0.20491
  Beta  occ. eigenvalues --   -0.19285  -0.15369  -0.14979  -0.13725  -0.11331
  Beta virt. eigenvalues --    0.06047   0.06607   0.06664   0.07578   0.07853
  Beta virt. eigenvalues --    0.08249   0.08557   0.08638   0.09155   0.09372
  Beta virt. eigenvalues --    0.09632   0.10425   0.10810   0.11091   0.11279

 Mulliken charges and spin densities:
               1          2
     1  C    1.112408  -1.643370
     2  C    0.630515   0.413306
     3  C   -1.699242   0.535517
     4  C   -1.038337   0.519005
     5  C    1.968621  -1.227418
     6  C    0.137987  -0.536272
     7  C   -0.009454  -0.289323
     8  C   -1.198815   1.315458
     9  C    0.384387  -1.020754
    10  C    0.098070  -0.771033
    11  O   -0.047913  -0.016016
    12  C   -0.456061   0.196802
    13  C    0.742075  -0.949935
    14  N    0.334291   0.047180
    15  C    0.449483  -0.445357
    16  C   -0.493720   0.296388
    17  C    0.757755  -1.019493
    18  N   -0.454382   0.088008
    19  N   -0.389246   0.063424
    20  H    0.070979   0.102083
    21  H    0.125232   0.037574
    22  H    0.034152   0.105357
    23  H    0.092832   0.120303
    24  H   -0.319406   0.479749
    25  H   -0.528645   0.709270
    26  H   -0.138591   0.323185
    27  H   -0.160719   0.327064
    28  H   -0.251807   0.398116
    29  H    0.091075   0.047655
    30  H    0.103947   0.032751
    31  H   -0.200339   0.348241
    32  H   -0.046751   0.182864
    33  H    0.294049  -0.108764
    34  H   -0.337083   0.513409
    35  H   -0.172864   0.347344
    36  H   -0.137395   0.303702
    37  H    0.009140   0.139757
    38  H   -0.317988   0.493450
    39  H   -0.064481   0.319998
    40  H    0.026242   0.220775
 Sum of Mulliken charges =  -1.00000   1.00000

 Dipole moment (field-independent basis, Debye):
    X=             -0.9919    Y=              2.9139    Z=             -0.0966  Tot=              3.0796
 Quadrupole moment (field-independent basis, Debye-Ang):
   XX=           -185.6619   YY=           -165.7918   ZZ=           -165.1736
   XY=             -1.3581   XZ=              3.4487   YZ=              8.6749

 Summary of Natural Population Analysis:

                                       Natural Population
                Natural  -----------------------------------------------
    Atom  No    Charge         Core      Valence    Rydberg      Total
 -----------------------------------------------------------------------
      C    1   -0.29910      0.99963     2.29348    0.00599     3.29910
      C    2   -0.03875      0.99945     2.02919    0.01010     3.03875
      C    3    0.15510      0.99931     1.83152    0.01407     2.84490
      C    4   -0.11904      0.99945     2.11021    0.00938     3.11904
      C    5   -0.00878      0.99950     1.99740    0.01189     3.00878
      C    6   -0.10297      0.99950     2.09342    0.01004     3.10297
      C    7   -0.08896      0.99952     2.07870    0.01074     3.08896
      C    8   -0.11915      0.99958     2.10873    0.01085     3.11915
      C    9   -0.27959      0.99965     2.27393    0.00602     3.27959
      C   10   -0.27888      0.99965     2.27472    0.00451     3.27888
      O   11   -0.29235      0.99986     3.28307    0.00941     4.29235
      C   12   -0.01368      0.99954     2.00202    0.01211     3.01368
      C   13   -0.09400      0.99960     2.08311    0.01129     3.09400
      N   14   -0.11824      0.99966     2.60519    0.01340     3.61824
      C   15    0.01074      0.99956     1.97864    0.01106     2.98926
      C   16   -0.17506      0.99950     2.16634    0.00922     3.17506
      C   17    0.16854      0.99958     1.81615    0.01572     2.83146
      N   18   -0.19480      0.99969     2.68436    0.01075     3.69480
      N   19   -0.40321      0.99972     2.89358    0.00992     3.90321
      H   20    0.10294      0.00000     0.39607    0.00098     0.39706
      H   21    0.11254      0.00000     0.38590    0.00156     0.38746
      H   22    0.10218      0.00000     0.39698    0.00084     0.39782
      H   23    0.10444      0.00000     0.39376    0.00181     0.39556
      H   24    0.10023      0.00000     0.39798    0.00179     0.39977
      H   25    0.09983      0.00000     0.39870    0.00147     0.40017
      H   26    0.09629      0.00000     0.40174    0.00197     0.40371
      H   27    0.09546      0.00000     0.40312    0.00142     0.40454
      H   28    0.09889      0.00000     0.40013    0.00098     0.40111
      H   29    0.10122      0.00000     0.39743    0.00135     0.39878
      H   30    0.10006      0.00000     0.39909    0.00085     0.39994
      H   31    0.09819      0.00000     0.40088    0.00094     0.40181
      H   32    0.09689      0.00000     0.40209    0.00102     0.40311
      H   33    0.09276      0.00000     0.40539    0.00185     0.40724
      H   34    0.09294      0.00000     0.40573    0.00133     0.40706
      H   35    0.10274      0.00000     0.39593    0.00133     0.39726
      H   36    0.10521      0.00000     0.39320    0.00159     0.39479
      H   37    0.10618      0.00000     0.39245    0.00137     0.39382
      H   38    0.10986      0.00000     0.38916    0.00098     0.39014
      H   39    0.18763      0.00000     0.30956    0.00280     0.31237
      H   40    0.18572      0.00000     0.31246    0.00182     0.31428
 =======================================================================
   * Total *   -0.00000     18.99195    50.78151    0.22654    70.00000

 Normal termination of Gaussian 16 at Sat Dec 12 11:34:16 2020.
