 Gaussian 16, Revision A.03,

 -----------------------------------------------------------
 # opt freq B3LYP/6-31G(d) empiricaldispersion=gd3bj scf=xqc
 -----------------------------------------------------------

 -------------------------------
 CID_46550016_JID_10559_neutraal
 -------------------------------
 Symbolic Z-matrix:
 Charge =  0 Multiplicity = 1

 SCF Done:  E(RB3LYP) =  -845.878978795     A.U. after   15 cycles
 SCF Done:  E(RB3LYP) =  -845.886980557     A.U. after   13 cycles
 SCF Done:  E(RB3LYP) =  -845.882272427     A.U. after   15 cycles
 SCF Done:  E(RB3LYP) =  -845.888372360     A.U. after   12 cycles
 SCF Done:  E(RB3LYP) =  -845.889844417     A.U. after   13 cycles
 SCF Done:  E(RB3LYP) =  -845.889440012     A.U. after   13 cycles
 SCF Done:  E(RB3LYP) =  -845.891964296     A.U. after   13 cycles
 SCF Done:  E(RB3LYP) =  -845.893751374     A.U. after   15 cycles
 SCF Done:  E(RB3LYP) =  -845.893846680     A.U. after   15 cycles
 SCF Done:  E(RB3LYP) =  -845.894254375     A.U. after   13 cycles
 SCF Done:  E(RB3LYP) =  -845.895243791     A.U. after   11 cycles
 SCF Done:  E(RB3LYP) =  -845.895241940     A.U. after   11 cycles
 SCF Done:  E(RB3LYP) =  -845.895248558     A.U. after   10 cycles
 SCF Done:  E(RB3LYP) =  -845.895249098     A.U. after    9 cycles
 SCF Done:  E(RB3LYP) =  -845.895250442     A.U. after    8 cycles
 SCF Done:  E(RB3LYP) =  -845.895250299     A.U. after    7 cycles
 Optimization completed.
    -- Stationary point found.
 Normal termination of Gaussian 16 at Mon Dec 14 18:24:46 2020.

 --------------------------------------------------------------------
 #N Geom=AllCheck Guess=TCheck SCRF=Check GenChk RB3LYP/6-31G(d) Freq
 --------------------------------------------------------------------

 Structure from the checkpoint file:  "JID_10559.chk"
 -------------------------------
 CID_46550016_JID_10559_neutraal
 -------------------------------
 Charge =  0 Multiplicity = 1

 SCF Done:  E(RB3LYP) =  -845.895250299     A.U. after    1 cycles

  Exact polarizability: 241.502 -29.358 162.614  35.021  17.408 172.594
 Approx polarizability: 350.814 -62.295 257.687  74.197  38.988 292.769

                      1                      2                      3
                      A                      A                      A
 Frequencies --     21.2567                27.1245                33.8533
 Red. masses --      4.0582                 4.0111                 4.4014
 Frc consts  --      0.0011                 0.0017                 0.0030
 IR Inten    --      1.0505                 0.8985                 1.5289

                      4                      5                      6
                      A                      A                      A
 Frequencies --     44.6896                53.3455                71.3779
 Red. masses --      5.2738                 4.3055                 2.8822
 Frc consts  --      0.0062                 0.0072                 0.0087
 IR Inten    --      1.3689                 0.7095                 0.1643

                      7                      8                      9
                      A                      A                      A
 Frequencies --     93.1394               129.9241               156.4075
 Red. masses --      2.8887                 3.8705                 2.0843
 Frc consts  --      0.0148                 0.0385                 0.0300
 IR Inten    --      0.2745                 0.3524                 1.3364

                     10                     11                     12
                      A                      A                      A
 Frequencies --    182.3189               192.5756               226.1081
 Red. masses --      3.1990                 3.8181                 2.2750
 Frc consts  --      0.0627                 0.0834                 0.0685
 IR Inten    --      1.3165                 0.6084                 1.4613

                     13                     14                     15
                      A                      A                      A
 Frequencies --    237.9101               265.2543               282.5154
 Red. masses --      1.4223                 1.3900                 4.5860
 Frc consts  --      0.0474                 0.0576                 0.2157
 IR Inten    --      0.3572                 0.1743                 1.5327

                     16                     17                     18
                      A                      A                      A
 Frequencies --    309.1350               318.1511               344.2970
 Red. masses --      1.7922                 4.3263                 2.6597
 Frc consts  --      0.1009                 0.2580                 0.1858
 IR Inten    --      0.0614                 3.0998                 4.4731

                     19                     20                     21
                      A                      A                      A
 Frequencies --    359.6548               393.5201               425.5175
 Red. masses --      2.3030                 3.4169                 3.8268
 Frc consts  --      0.1755                 0.3118                 0.4082
 IR Inten    --      0.3692                 1.8897                 4.2174

                     22                     23                     24
                      A                      A                      A
 Frequencies --    447.4428               464.4883               491.6664
 Red. masses --      4.4866                 2.1772                 2.5249
 Frc consts  --      0.5292                 0.2768                 0.3596
 IR Inten    --      3.6426                16.3452                 3.4326

                     25                     26                     27
                      A                      A                      A
 Frequencies --    493.8933               512.0812               538.2816
 Red. masses --      2.9673                 3.9724                 6.9881
 Frc consts  --      0.4265                 0.6137                 1.1930
 IR Inten    --      3.7863                 8.4038                 0.9345

                     28                     29                     30
                      A                      A                      A
 Frequencies --    565.7305               574.9090               609.9735
 Red. masses --      2.1017                 3.0512                 5.2410
 Frc consts  --      0.3963                 0.5942                 1.1489
 IR Inten    --     29.0760                26.1295                16.1872

                     31                     32                     33
                      A                      A                      A
 Frequencies --    639.8727               658.0386               701.8746
 Red. masses --      6.5846                 3.3728                 2.7847
 Frc consts  --      1.5884                 0.8605                 0.8083
 IR Inten    --      3.7772                11.5463                18.7479

                     34                     35                     36
                      A                      A                      A
 Frequencies --    736.9670               765.8906               774.0563
 Red. masses --      1.4544                 1.5274                 1.4513
 Frc consts  --      0.4654                 0.5279                 0.5123
 IR Inten    --     26.1851                 8.4094                32.0819

                     37                     38                     39
                      A                      A                      A
 Frequencies --    786.7360               801.6009               807.7730
 Red. masses --      4.2581                 2.8916                 1.5622
 Frc consts  --      1.5528                 1.0947                 0.6006
 IR Inten    --      1.0383                17.1420                 4.2528

                     40                     41                     42
                      A                      A                      A
 Frequencies --    823.1128               841.7098               883.9915
 Red. masses --      3.2827                 2.9725                 1.5550
 Frc consts  --      1.3104                 1.2408                 0.7159
 IR Inten    --      5.0095                 2.3641                 4.1025

                     43                     44                     45
                      A                      A                      A
 Frequencies --    887.9004               896.8504               932.8278
 Red. masses --      1.7532                 1.9640                 2.1607
 Frc consts  --      0.8144                 0.9308                 1.1078
 IR Inten    --      1.5519                 2.4970                 3.9963

                     46                     47                     48
                      A                      A                      A
 Frequencies --    941.6300               960.0171               963.1129
 Red. masses --      2.3197                 1.5027                 1.8588
 Frc consts  --      1.2119                 0.8160                 1.0158
 IR Inten    --     12.2954                 0.3623                 0.4218

                     49                     50                     51
                      A                      A                      A
 Frequencies --    969.6011               981.6236              1000.2448
 Red. masses --      1.3747                 1.7379                 1.2814
 Frc consts  --      0.7615                 0.9866                 0.7553
 IR Inten    --      5.7369                 6.7433                 0.0712

                     52                     53                     54
                      A                      A                      A
 Frequencies --   1013.6479              1030.8716              1049.8147
 Red. masses --      1.6827                 3.3148                 2.1472
 Frc consts  --      1.0187                 2.0754                 1.3943
 IR Inten    --      2.9173                 6.6118                 3.0292

                     55                     56                     57
                      A                      A                      A
 Frequencies --   1057.3154              1073.6860              1105.8106
 Red. masses --      1.7728                 1.4730                 2.1053
 Frc consts  --      1.1677                 1.0005                 1.5168
 IR Inten    --      1.6392                 0.8617                 0.6328

                     58                     59                     60
                      A                      A                      A
 Frequencies --   1127.6232              1153.9621              1158.3767
 Red. masses --      1.8270                 1.9533                 1.6062
 Frc consts  --      1.3687                 1.5325                 1.2699
 IR Inten    --      3.7329                17.0778                 2.1269

                     61                     62                     63
                      A                      A                      A
 Frequencies --   1179.1504              1190.5131              1220.0641
 Red. masses --      1.3372                 2.0006                 1.5381
 Frc consts  --      1.0954                 1.6706                 1.3489
 IR Inten    --      4.9066                 7.8277                 7.7568

                     64                     65                     66
                      A                      A                      A
 Frequencies --   1240.6960              1247.0844              1267.6820
 Red. masses --      1.4476                 2.4741                 1.9199
 Frc consts  --      1.3129                 2.2671                 1.8178
 IR Inten    --      9.6388                 7.6174                 2.2202

                     67                     68                     69
                      A                      A                      A
 Frequencies --   1277.6748              1302.5850              1308.7167
 Red. masses --      1.3608                 1.7113                 1.4185
 Frc consts  --      1.3088                 1.7107                 1.4314
 IR Inten    --     16.9732                21.1835                36.7543

                     70                     71                     72
                      A                      A                      A
 Frequencies --   1323.2364              1335.8697              1357.3644
 Red. masses --      1.3140                 1.3049                 2.1996
 Frc consts  --      1.3556                 1.3720                 2.3877
 IR Inten    --     11.7733                37.3977               179.9814

                     73                     74                     75
                      A                      A                      A
 Frequencies --   1367.6215              1392.3260              1394.9406
 Red. masses --      1.2397                 1.6747                 2.2992
 Frc consts  --      1.3661                 1.9128                 2.6359
 IR Inten    --     14.7668                 9.0140                77.6000

                     76                     77                     78
                      A                      A                      A
 Frequencies --   1399.2810              1403.8884              1409.4203
 Red. masses --      1.3810                 2.0021                 1.4784
 Frc consts  --      1.5932                 2.3249                 1.7303
 IR Inten    --      1.4675                 3.9438                 1.9888

                     79                     80                     81
                      A                      A                      A
 Frequencies --   1415.1143              1428.2835              1440.0298
 Red. masses --      3.5549                 1.4425                 1.2687
 Frc consts  --      4.1943                 1.7338                 1.5501
 IR Inten    --      5.3881                 0.2368                 1.8754

                     82                     83                     84
                      A                      A                      A
 Frequencies --   1444.7656              1450.4042              1489.0080
 Red. masses --      1.2634                 2.1013                 2.6238
 Frc consts  --      1.5538                 2.6045                 3.4275
 IR Inten    --      6.5116                 8.1285                57.3771

                     85                     86                     87
                      A                      A                      A
 Frequencies --   1509.9857              1515.1516              1519.8500
 Red. masses --      1.0916                 2.6755                 1.0886
 Frc consts  --      1.4664                 3.6189                 1.4816
 IR Inten    --      3.7097                12.5871                19.2274

                     88                     89                     90
                      A                      A                      A
 Frequencies --   1525.7200              1527.8276              1534.6826
 Red. masses --      1.0522                 1.0646                 1.0535
 Frc consts  --      1.4430                 1.4642                 1.4620
 IR Inten    --      2.7144                 2.4015                10.4619

                     91                     92                     93
                      A                      A                      A
 Frequencies --   1537.4393              1538.9506              1544.1077
 Red. masses --      1.0630                 1.0735                 1.0703
 Frc consts  --      1.4804                 1.4979                 1.5036
 IR Inten    --      7.1872                17.3123                 0.2606

                     94                     95                     96
                      A                      A                      A
 Frequencies --   1549.7931              1618.7749              1665.8625
 Red. masses --      3.2009                 7.1135                 5.8951
 Frc consts  --      4.5297                10.9827                 9.6388
 IR Inten    --     19.8612                 3.3898                22.0005

                     97                     98                     99
                      A                      A                      A
 Frequencies --   1679.4152              1764.5677              3033.3823
 Red. masses --      6.0821                 8.1716                 1.0618
 Frc consts  --     10.1069                14.9912                 5.7565
 IR Inten    --      0.0851               382.8832                20.2672

                    100                    101                    102
                      A                      A                      A
 Frequencies --   3036.0492              3044.8469              3045.4975
 Red. masses --      1.0680                 1.0459                 1.0371
 Frc consts  --      5.7999                 5.7131                 5.6676
 IR Inten    --     15.5201                26.9629                20.0629

                    103                    104                    105
                      A                      A                      A
 Frequencies --   3047.0865              3061.2832              3067.1498
 Red. masses --      1.0669                 1.0862                 1.0927
 Frc consts  --      5.8364                 5.9972                 6.0567
 IR Inten    --      0.6527                10.2221                43.7888

                    106                    107                    108
                      A                      A                      A
 Frequencies --   3070.5797              3080.8818              3101.2183
 Red. masses --      1.0679                 1.0816                 1.0993
 Frc consts  --      5.9323                 6.0486                 6.2290
 IR Inten    --      6.9953                70.7394                 7.4568

                    109                    110                    111
                      A                      A                      A
 Frequencies --   3110.2153              3114.8951              3115.9253
 Red. masses --      1.1017                 1.1007                 1.1011
 Frc consts  --      6.2792                 6.2921                 6.2986
 IR Inten    --     46.0529                47.4371                80.8089

                    112                    113                    114
                      A                      A                      A
 Frequencies --   3120.2629              3125.6465              3161.8638
 Red. masses --      1.1000                 1.1007                 1.0906
 Frc consts  --      6.3100                 6.3358                 6.4237
 IR Inten    --      7.4424                39.2896                21.8633

                    115                    116                    117
                      A                      A                      A
 Frequencies --   3183.6905              3196.0950              3210.0935
 Red. masses --      1.0870                 1.0893                 1.0941
 Frc consts  --      6.4912                 6.5559                 6.6426
 IR Inten    --      2.2791                10.0568                22.2171

                    118                    119                    120
                      A                      A                      A
 Frequencies --   3220.6057              3223.1993              3548.2448
 Red. masses --      1.0912                 1.0955                 1.0743
 Frc consts  --      6.6683                 6.7055                 7.9692
 IR Inten    --      4.3850                13.0834                28.5380

 - Thermochemistry -
 -------------------
 Temperature   298.150 Kelvin.  Pressure   1.00000 Atm.
 Atom     1 has atomic number  6 and mass  12.00000

 Molecular mass:   270.17321 amu.
 Principal axes and moments of inertia in atomic units:
                           1         2         3
     Eigenvalues --  3684.016138770.427069278.97200
           X            0.99978   0.02040  -0.00417
           Y           -0.01988   0.99483   0.09963
           Z            0.00618  -0.09953   0.99502
 This molecule is an asymmetric top.
 Rotational symmetry number  1.
 Warning -- assumption of classical behavior for rotation
           may cause significant error
 Rotational temperatures (Kelvin)      0.02351     0.00988     0.00933
 Rotational constants (GHZ):           0.48988     0.20578     0.19450
 Zero-point vibrational energy     954797.3 (Joules/Mol)
                                  228.20203 (Kcal/Mol)
 Warning -- explicit consideration of  30 degrees of freedom as
           vibrations may cause significant error
 Vibrational temperatures:     30.58    39.03    48.71    64.30    76.75
          (Kelvin)            102.70   134.01   186.93   225.04   262.32
                              277.07   325.32   342.30   381.64   406.48
                              444.78   457.75   495.37   517.46   566.19
                              612.22   643.77   668.30   707.40   710.60
                              736.77   774.47   813.96   827.17   877.62
                              920.63   946.77  1009.84  1060.33  1101.95
                             1113.69  1131.94  1153.32  1162.21  1184.28
                             1211.03  1271.87  1277.49  1290.37  1342.13
                             1354.80  1381.25  1385.70  1395.04  1412.34
                             1439.13  1458.41  1483.19  1510.45  1521.24
                             1544.79  1591.01  1622.40  1660.29  1666.65
                             1696.53  1712.88  1755.40  1785.08  1794.28
                             1823.91  1838.29  1874.13  1882.95  1903.84
                             1922.02  1952.94  1967.70  2003.25  2007.01
                             2013.25  2019.88  2027.84  2036.03  2054.98
                             2071.88  2078.70  2086.81  2142.35  2172.53
                             2179.97  2186.73  2195.17  2198.20  2208.07
                             2212.03  2214.21  2221.63  2229.81  2329.06
                             2396.80  2416.30  2538.82  4364.36  4368.20
                             4380.86  4381.79  4384.08  4404.50  4412.94
                             4417.88  4432.70  4461.96  4474.91  4481.64
                             4483.12  4489.36  4497.11  4549.22  4580.62
                             4598.47  4618.61  4633.73  4637.46  5105.13

 Zero-point correction=                           0.363663 (Hartree/Particle)
 Thermal correction to Energy=                    0.382816
 Thermal correction to Enthalpy=                  0.383760
 Thermal correction to Gibbs Free Energy=         0.313954
 Sum of electronic and zero-point Energies=           -845.531587
 Sum of electronic and thermal Energies=              -845.512434
 Sum of electronic and thermal Enthalpies=            -845.511490
 Sum of electronic and thermal Free Energies=         -845.581297

                     E (Thermal)             CV                S
                      KCal/Mol        Cal/Mol-Kelvin    Cal/Mol-Kelvin
 Total                  240.221             73.656            146.921
 Electronic               0.000              0.000              0.000
 Translational            0.889              2.981             42.681
 Rotational               0.889              2.981             34.060
 Vibrational            238.443             67.694             70.180
 Vibration     1          0.593              1.985              6.513
 Vibration     2          0.593              1.984              6.029
 Vibration     3          0.594              1.983              5.590
 Vibration     4          0.595              1.980              5.040
 Vibration     5          0.596              1.976              4.689
 Vibration     6          0.598              1.968              4.115
 Vibration     7          0.602              1.954              3.593
 Vibration     8          0.612              1.923              2.947
 Vibration     9          0.620              1.895              2.593
 Vibration    10          0.630              1.864              2.305
 Vibration    11          0.635              1.850              2.203
 Vibration    12          0.650              1.801              1.910
 Vibration    13          0.656              1.783              1.818
 Vibration    14          0.671              1.737              1.627
 Vibration    15          0.682              1.706              1.518
 Vibration    16          0.698              1.656              1.367
 Vibration    17          0.705              1.639              1.320
 Vibration    18          0.723              1.587              1.192
 Vibration    19          0.734              1.555              1.124
 Vibration    20          0.761              1.484              0.987
 Vibration    21          0.787              1.415              0.873
 Vibration    22          0.807              1.367              0.804
 Vibration    23          0.822              1.329              0.753
 Vibration    24          0.847              1.269              0.679
 Vibration    25          0.850              1.264              0.674
 Vibration    26          0.867              1.223              0.629
 Vibration    27          0.893              1.165              0.569
 Vibration    28          0.922              1.105              0.513
 Vibration    29          0.931              1.086              0.495
 Vibration    30          0.969              1.011              0.433

 Optimization completed.
    -- Stationary point found.
 Normal termination of Gaussian 16 at Mon Dec 14 18:50:48 2020.

 ----------------------------------------------------------------------
 # B3LYP/6-311++G(d,p) empiricaldispersion=gd3bj scf=xqc pop=npa geom=c
 heck
 ----------------------------------------------------------------------

 ---------------------------------------
 CID_46550016_JID_10559_Energie_neutraal
 ---------------------------------------
 Structure from the checkpoint file:  "JID_10559.chk"
 Charge =  0 Multiplicity = 1

 SCF Done:  E(RB3LYP) =  -846.122517575     A.U. after   16 cycles
 Normal termination of Gaussian 16 at Mon Dec 14 19:04:11 2020.

 ----------------------------------------------------------------------
 # B3LYP/6-311++G(d,p) empiricaldispersion=gd3bj scf=xqc pop=npa geom=c
 heck
 ----------------------------------------------------------------------

 -------------------------------------
 CID_46550016_JID_10559_Energie_kation
 -------------------------------------
 Structure from the checkpoint file:  "JID_10559.chk"
 Charge =  1 Multiplicity = 2

 SCF Done:  E(UB3LYP) =  -845.817531302     A.U. after   31 cycles
 Normal termination of Gaussian 16 at Mon Dec 14 19:40:52 2020.
 Gaussian 16:  ES64L-G16RevA.03 25-Dec-2016

 ----------------------------------------------------------------------
 # B3LYP/6-311++G(d,p) empiricaldispersion=gd3bj scf=xqc pop=npa geom=c
 heck
 ----------------------------------------------------------------------

 ------------------------------------
 CID_46550016_JID_10559_Energie_anion
 ------------------------------------
 Structure from the checkpoint file:  "JID_10559.chk"
 Charge = -1 Multiplicity = 2

                         Standard orientation:
 ---------------------------------------------------------------------
 Center     Atomic      Atomic             Coordinates (Angstroms)
 Number     Number       Type             X           Y           Z
 ---------------------------------------------------------------------
      1          6           0       -3.356263   -2.998625   -0.355758
      2          6           0       -3.504165   -2.258477    0.976933
      3          6           0       -2.194235   -1.645891    1.495761
      4          6           0       -1.484072   -0.675422    0.534723
      5          6           0       -2.357980    0.510439    0.093650
      6          6           0       -2.750812    1.469771    1.240761
      7          6           0       -1.586303    2.251620    1.851931
      8          6           0       -1.933573    1.341519   -1.129376
      9          8           0       -2.719847    2.158036   -1.593105
     10          7           0       -0.741258    1.118170   -1.799729
     11          6           0        0.492422    0.582525   -1.345675
     12          6           0        1.167547    1.088062   -0.259119
     13          6           0        2.381896    0.484088    0.145819
     14          6           0        3.124200    0.920533    1.273011
     15          6           0        4.301628    0.294574    1.614122
     16          6           0        4.786501   -0.790817    0.843431
     17          6           0        4.088747   -1.234426   -0.257522
     18          6           0        2.872909   -0.610512   -0.634203
     19          7           0        2.210393   -1.078130   -1.734110
     20          6           0        1.073626   -0.504154   -2.057048
     21          1           0       -3.081398   -2.318522   -1.169899
     22          1           0       -4.292941   -3.489844   -0.640820
     23          1           0       -2.578486   -3.769766   -0.293374
     24          1           0       -4.272189   -1.479767    0.879368
     25          1           0       -3.882549   -2.953862    1.737269
     26          1           0       -2.388913   -1.143541    2.451962
     27          1           0       -1.491152   -2.459222    1.721375
     28          1           0       -0.569289   -0.328868    1.022075
     29          1           0       -1.156123   -1.231081   -0.350423
     30          1           0       -3.303143    0.088559   -0.272079
     31          1           0       -3.487614    2.172594    0.841156
     32          1           0       -3.255207    0.889978    2.022010
     33          1           0       -1.123974    2.909986    1.106593
     34          1           0       -1.935339    2.886086    2.673675
     35          1           0       -0.809975    1.590402    2.253279
     36          1           0       -0.709928    1.658712   -2.658927
     37          1           0        0.768158    1.932675    0.292401
     38          1           0        2.746616    1.753615    1.860434
     39          1           0        4.865386    0.631609    2.479051
     40          1           0        5.717312   -1.273136    1.127320
     41          1           0        4.438877   -2.062776   -0.864579
     42          1           0        0.544266   -0.897230   -2.924805
 ---------------------------------------------------------------------

 SCF Done:  E(UB3LYP) =  -846.140628512     A.U. after   24 cycles

 The electronic state is 2-A.
 Alpha  occ. eigenvalues --  -18.97802 -14.22299 -14.13740 -10.16393 -10.08396
 Alpha  occ. eigenvalues --  -10.08231 -10.07786 -10.07434 -10.07374 -10.06575
 Alpha  occ. eigenvalues --  -10.06238 -10.05909 -10.05716 -10.04814 -10.03944
 Alpha  occ. eigenvalues --  -10.03022 -10.02859 -10.02308 -10.01810 -10.01576
 Alpha  occ. eigenvalues --   -0.93154  -0.81109  -0.78267  -0.72571  -0.70040
 Alpha  occ. eigenvalues --   -0.69220  -0.65211  -0.63900  -0.60480  -0.59948
 Alpha  occ. eigenvalues --   -0.59254  -0.54792  -0.52220  -0.50200  -0.48864
 Alpha  occ. eigenvalues --   -0.47195  -0.45709  -0.44056  -0.40962  -0.38737
 Alpha  occ. eigenvalues --   -0.38661  -0.37995  -0.36641  -0.36001  -0.35111
 Alpha  occ. eigenvalues --   -0.33741  -0.32810  -0.31654  -0.31599  -0.30126
 Alpha  occ. eigenvalues --   -0.29716  -0.29149  -0.29057  -0.28105  -0.27802
 Alpha  occ. eigenvalues --   -0.27583  -0.26616  -0.26112  -0.25329  -0.25077
 Alpha  occ. eigenvalues --   -0.24406  -0.23682  -0.22190  -0.21813  -0.21563
 Alpha  occ. eigenvalues --   -0.20872  -0.20087  -0.17246  -0.15248  -0.14795
 Alpha  occ. eigenvalues --   -0.10918  -0.10348  -0.09427   0.03967
 Alpha virt. eigenvalues --    0.06281   0.07655   0.08460   0.08575   0.09233
 Alpha virt. eigenvalues --    0.09706   0.10149   0.10579   0.10961   0.11131
 Alpha virt. eigenvalues --    0.11776   0.11875   0.12393   0.12751   0.13181

  Beta  occ. eigenvalues --  -18.97800 -14.22307 -14.13243 -10.16380 -10.08395
  Beta  occ. eigenvalues --  -10.08232 -10.07786 -10.07436 -10.07373 -10.06575
  Beta  occ. eigenvalues --  -10.06168 -10.05897 -10.05779 -10.04700 -10.04035
  Beta  occ. eigenvalues --  -10.02972 -10.02777 -10.02051 -10.01367 -10.01350
  Beta  occ. eigenvalues --   -0.93144  -0.80922  -0.77736  -0.72563  -0.69626
  Beta  occ. eigenvalues --   -0.69215  -0.64624  -0.63887  -0.60340  -0.59768
  Beta  occ. eigenvalues --   -0.58819  -0.54781  -0.52014  -0.49789  -0.48668
  Beta  occ. eigenvalues --   -0.47142  -0.45340  -0.43947  -0.40754  -0.38690
  Beta  occ. eigenvalues --   -0.38598  -0.37783  -0.36424  -0.35991  -0.35094
  Beta  occ. eigenvalues --   -0.33678  -0.32666  -0.31640  -0.31565  -0.30001
  Beta  occ. eigenvalues --   -0.29643  -0.29119  -0.28962  -0.28011  -0.27732
  Beta  occ. eigenvalues --   -0.27449  -0.26040  -0.25718  -0.25193  -0.24989
  Beta  occ. eigenvalues --   -0.24357  -0.23633  -0.22097  -0.21670  -0.21479
  Beta  occ. eigenvalues --   -0.20698  -0.18913  -0.16325  -0.14911  -0.14025
  Beta  occ. eigenvalues --   -0.10197  -0.09696  -0.07569
  Beta virt. eigenvalues --    0.06268   0.07637   0.08408   0.08559   0.09211
  Beta virt. eigenvalues --    0.09669   0.10006   0.10201   0.10564   0.11033
  Beta virt. eigenvalues --    0.11123   0.11757   0.11853   0.12435   0.12866

 Mulliken charges and spin densities:
               1          2
     1  C   -0.580609   0.000286
     2  C   -0.269347  -0.003076
     3  C   -0.477563  -0.005070
     4  C   -0.413084  -0.027213
     5  C    0.723109   0.016560
     6  C   -0.522824   0.006703
     7  C   -0.544634  -0.001081
     8  C   -0.231555  -0.052297
     9  O   -0.290181  -0.000254
    10  N   -0.271522   0.019749
    11  C   -0.309929   0.134874
    12  C    0.017930   0.311895
    13  C    0.532725  -0.055331
    14  C   -0.319403   0.156821
    15  C   -0.415889   0.059649
    16  C   -0.265035   0.082634
    17  C   -0.278572   0.133778
    18  C   -0.404924  -0.025971
    19  N   -0.044952   0.222423
    20  C    0.031406   0.075639
    21  H    0.161843   0.003391
    22  H    0.127786   0.000484
    23  H    0.131454   0.000234
    24  H    0.131099  -0.000134
    25  H    0.143164   0.001488
    26  H    0.132869   0.001633
    27  H    0.172045  -0.000132
    28  H    0.131920  -0.004023
    29  H    0.216176   0.004362
    30  H    0.226128   0.002367
    31  H    0.174579  -0.000527
    32  H    0.120038  -0.000015
    33  H    0.163580   0.006378
    34  H    0.133932   0.001798
    35  H    0.170221  -0.001552
    36  H    0.302853   0.007345
    37  H    0.136123  -0.027041
    38  H    0.068680  -0.012653
    39  H    0.116832  -0.003556
    40  H    0.105405  -0.005827
    41  H    0.121111  -0.014311
    42  H    0.147015  -0.010429
 Sum of Mulliken charges =  -1.00000   1.00000

 Dipole moment (field-independent basis, Debye):
    X=             -6.7413    Y=             -0.9112    Z=              3.5078  Tot=              7.6538
 Quadrupole moment (field-independent basis, Debye-Ang):
   XX=           -181.7604   YY=           -143.3015   ZZ=           -140.0351
   XY=             13.4726   XZ=             -3.8724   YZ=              1.9422

 Summary of Natural Population Analysis:

                                       Natural Population
                Natural  -----------------------------------------------
    Atom  No    Charge         Core      Valence    Rydberg      Total
 -----------------------------------------------------------------------
      C    1   -0.28913      0.99967     2.28489    0.00456     3.28913
      C    2   -0.19197      0.99965     2.18600    0.00632     3.19197
      C    3   -0.18620      0.99963     2.17941    0.00715     3.18620
      C    4   -0.20104      0.99961     2.19349    0.00793     3.20104
      C    5   -0.15141      0.99954     2.13828    0.01360     3.15141
      C    6   -0.18723      0.99963     2.18049    0.00712     3.18723
      C    7   -0.28980      0.99967     2.28559    0.00454     3.28980
      C    8    0.35240      0.99964     1.62471    0.02325     2.64760
      O    9   -0.33997      0.99988     3.33367    0.00643     4.33997
      N   10   -0.31446      0.99964     2.80288    0.01194     3.81446
      C   11    0.04087      0.99944     1.94607    0.01362     2.95913
      C   12   -0.00911      0.99948     2.00119    0.00843     3.00911
      C   13   -0.05931      0.99948     2.05127    0.00856     3.05931
      C   14   -0.07160      0.99958     2.05562    0.01640     3.07160
      C   15   -0.06306      0.99959     2.05924    0.00424     3.06306
      C   16   -0.11432      0.99962     2.09707    0.01763     3.11432
      C   17   -0.06192      0.99953     2.05204    0.01035     3.06192
      C   18    0.06860      0.99948     1.91599    0.01593     2.93140
      N   19   -0.17174      0.99968     2.65976    0.01230     3.67174
      C   20    0.04503      0.99956     1.94208    0.01332     2.95497
      H   21    0.10070      0.00000     0.39845    0.00085     0.39930
      H   22    0.09416      0.00000     0.40499    0.00085     0.40584
      H   23    0.09667      0.00000     0.40239    0.00094     0.40333
      H   24    0.09170      0.00000     0.40717    0.00113     0.40830
      H   25    0.09118      0.00000     0.40764    0.00118     0.40882
      H   26    0.09277      0.00000     0.40612    0.00110     0.40723
      H   27    0.09690      0.00000     0.40212    0.00098     0.40310
      H   28    0.11255      0.00000     0.38610    0.00135     0.38745
      H   29    0.10871      0.00000     0.39017    0.00112     0.39129
      H   30    0.10790      0.00000     0.39072    0.00138     0.39210
      H   31    0.10497      0.00000     0.39389    0.00114     0.39503
      H   32    0.09100      0.00000     0.40788    0.00113     0.40900
      H   33    0.10039      0.00000     0.39875    0.00086     0.39961
      H   34    0.09389      0.00000     0.40523    0.00088     0.40611
      H   35    0.10007      0.00000     0.39898    0.00095     0.39993
      H   36    0.19270      0.00000     0.30556    0.00174     0.30730
      H   37    0.08938      0.00000     0.40916    0.00146     0.41062
      H   38    0.08514      0.00000     0.41204    0.00282     0.41486
      H   39    0.08613      0.00000     0.41293    0.00093     0.41387
      H   40    0.08715      0.00000     0.41106    0.00179     0.41285
      H   41    0.09385      0.00000     0.40447    0.00168     0.40615
      H   42    0.07753      0.00000     0.42109    0.00139     0.42247
 =======================================================================
   * Total *    0.00007     19.99200    52.76667    0.24127    72.99993

 Normal termination of Gaussian 16 at Mon Dec 14 20:07:57 2020.
