 Gaussian 16, Revision A.03,

 -----------------------------------------------------------
 # opt freq B3LYP/6-31G(d) empiricaldispersion=gd3bj scf=xqc
 -----------------------------------------------------------

 ------------------------------
 CID_10329991_JID_3065_neutraal
 ------------------------------
 Symbolic Z-matrix:
 Charge =  0 Multiplicity = 1

 SCF Done:  E(RB3LYP) =  -580.479806464     A.U. after   15 cycles
 SCF Done:  E(RB3LYP) =  -580.482955925     A.U. after   13 cycles
 SCF Done:  E(RB3LYP) =  -580.482773464     A.U. after   12 cycles
 SCF Done:  E(RB3LYP) =  -580.483384587     A.U. after   12 cycles
 SCF Done:  E(RB3LYP) =  -580.483539299     A.U. after   11 cycles
 SCF Done:  E(RB3LYP) =  -580.483692330     A.U. after   12 cycles
 SCF Done:  E(RB3LYP) =  -580.483785288     A.U. after   11 cycles
 SCF Done:  E(RB3LYP) =  -580.483862450     A.U. after   11 cycles
 SCF Done:  E(RB3LYP) =  -580.483868291     A.U. after    9 cycles
 SCF Done:  E(RB3LYP) =  -580.483869742     A.U. after    8 cycles
 SCF Done:  E(RB3LYP) =  -580.483870128     A.U. after    8 cycles
 SCF Done:  E(RB3LYP) =  -580.483870412     A.U. after    8 cycles
 SCF Done:  E(RB3LYP) =  -580.483870550     A.U. after    7 cycles
 SCF Done:  E(RB3LYP) =  -580.483870573     A.U. after    6 cycles
 Optimization completed.
    -- Stationary point found.
 Normal termination of Gaussian 16 at Wed Dec  9 22:24:58 2020.

 --------------------------------------------------------------------
 #N Geom=AllCheck Guess=TCheck SCRF=Check GenChk RB3LYP/6-31G(d) Freq
 --------------------------------------------------------------------

 Structure from the checkpoint file:  "JID_3065.chk"
 ------------------------------
 CID_10329991_JID_3065_neutraal
 ------------------------------
 Charge =  0 Multiplicity = 1

 SCF Done:  E(RB3LYP) =  -580.483870573     A.U. after    1 cycles

  Exact polarizability: 141.811   9.314 120.582  -7.042  -2.298 106.146
 Approx polarizability: 196.539  20.583 167.342 -16.205 -12.123 157.695

                      1                      2                      3
                      A                      A                      A
 Frequencies --     16.4066                23.3502                37.0178
 Red. masses --      4.2576                 3.2165                 4.8436
 Frc consts  --      0.0007                 0.0010                 0.0039
 IR Inten    --      0.2258                 0.4498                 1.1996

                      4                      5                      6
                      A                      A                      A
 Frequencies --     42.9012                63.0282               111.4572
 Red. masses --      2.6810                 2.4121                 3.4480
 Frc consts  --      0.0029                 0.0056                 0.0252
 IR Inten    --      0.3140                 0.0163                 0.5871

                      7                      8                      9
                      A                      A                      A
 Frequencies --    121.5548               147.1477               182.9826
 Red. masses --      2.5773                 1.2500                 2.1594
 Frc consts  --      0.0224                 0.0159                 0.0426
 IR Inten    --      1.2024                 0.0139                 2.8248

                     10                     11                     12
                      A                      A                      A
 Frequencies --    196.8128               206.5098               217.7859
 Red. masses --      3.1806                 3.1595                 1.0829
 Frc consts  --      0.0726                 0.0794                 0.0303
 IR Inten    --      1.3175                 1.3136                 0.1241

                     13                     14                     15
                      A                      A                      A
 Frequencies --    245.4826               312.6401               325.5280
 Red. masses --      1.3820                 2.4990                 3.0851
 Frc consts  --      0.0491                 0.1439                 0.1926
 IR Inten    --      1.0666                 1.6369                 5.9639

                     16                     17                     18
                      A                      A                      A
 Frequencies --    348.5760               377.2497               439.5972
 Red. masses --      2.5352                 3.5784                 2.7402
 Frc consts  --      0.1815                 0.3001                 0.3120
 IR Inten    --      5.7272                 4.0499                 0.9944

                     19                     20                     21
                      A                      A                      A
 Frequencies --    448.0605               540.7729               556.5185
 Red. masses --      2.4035                 2.6128                 3.1814
 Frc consts  --      0.2843                 0.4502                 0.5805
 IR Inten    --      7.1308                 2.2096                 0.6943

                     22                     23                     24
                      A                      A                      A
 Frequencies --    578.5141               697.9856               726.4451
 Red. masses --      4.3030                 2.3159                 3.3696
 Frc consts  --      0.8485                 0.6648                 1.0477
 IR Inten    --      5.0834                 1.4948                 2.6282

                     25                     26                     27
                      A                      A                      A
 Frequencies --    775.7258               797.7600               829.7124
 Red. masses --      2.0359                 1.2203                 1.5473
 Frc consts  --      0.7218                 0.4576                 0.6276
 IR Inten    --      0.7390                 0.7551                12.3221

                     28                     29                     30
                      A                      A                      A
 Frequencies --    850.1886               864.7162               883.9648
 Red. masses --      2.3785                 3.2846                 1.3533
 Frc consts  --      1.0130                 1.4471                 0.6231
 IR Inten    --     20.1889                24.9105                11.8601

                     31                     32                     33
                      A                      A                      A
 Frequencies --    932.4942               946.4539               996.2657
 Red. masses --      1.8930                 2.1989                 2.2453
 Frc consts  --      0.9698                 1.1605                 1.3130
 IR Inten    --      4.4399                 0.7344                 3.7826

                     34                     35                     36
                      A                      A                      A
 Frequencies --   1014.7857              1028.5067              1045.8041
 Red. masses --      1.7212                 1.6365                 2.1737
 Frc consts  --      1.0443                 1.0199                 1.4007
 IR Inten    --      1.9550                 3.4983                 3.3603

                     37                     38                     39
                      A                      A                      A
 Frequencies --   1068.7281              1086.1945              1099.5729
 Red. masses --      2.1207                 3.6736                 1.6904
 Frc consts  --      1.4271                 2.5536                 1.2042
 IR Inten    --      1.5129                52.2650                 1.4803

                     40                     41                     42
                      A                      A                      A
 Frequencies --   1108.1829              1152.7476              1185.8193
 Red. masses --      1.7614                 2.0576                 1.2742
 Frc consts  --      1.2745                 1.6110                 1.0557
 IR Inten    --     19.1346                 0.2511                 0.9431

                     43                     44                     45
                      A                      A                      A
 Frequencies --   1217.4791              1219.2646              1225.7684
 Red. masses --      2.2481                 1.4614                 1.3613
 Frc consts  --      1.9633                 1.2800                 1.2051
 IR Inten    --      6.9958                 2.3822                74.2208

                     46                     47                     48
                      A                      A                      A
 Frequencies --   1290.3504              1299.8555              1311.3846
 Red. masses --      1.4579                 1.1945                 1.1854
 Frc consts  --      1.4302                 1.1891                 1.2011
 IR Inten    --     77.8981                 0.6453                10.0506

                     49                     50                     51
                      A                      A                      A
 Frequencies --   1328.1433              1335.9391              1354.8229
 Red. masses --      1.6773                 1.3711                 1.4130
 Frc consts  --      1.7432                 1.4418                 1.5281
 IR Inten    --    133.2600                15.8923                15.4000

                     52                     53                     54
                      A                      A                      A
 Frequencies --   1370.6441              1419.8429              1434.5201
 Red. masses --      1.4304                 1.4892                 1.2235
 Frc consts  --      1.5833                 1.7689                 1.4834
 IR Inten    --      1.8421                 1.4614                 0.0952

                     55                     56                     57
                      A                      A                      A
 Frequencies --   1437.9308              1444.6955              1492.2645
 Red. masses --      1.2514                 1.4878                 1.2193
 Frc consts  --      1.5245                 1.8296                 1.5998
 IR Inten    --      7.5078                16.0858                 9.1678

                     58                     59                     60
                      A                      A                      A
 Frequencies --   1508.0538              1511.0476              1511.9618
 Red. masses --      1.0955                 1.1047                 1.0486
 Frc consts  --      1.4679                 1.4861                 1.4124
 IR Inten    --      0.3136                 7.1666                 5.0844

                     61                     62                     63
                      A                      A                      A
 Frequencies --   1525.6354              1526.6531              1527.2662
 Red. masses --      1.0492                 1.0422                 1.0413
 Frc consts  --      1.4388                 1.4312                 1.4310
 IR Inten    --      3.9548                 4.9096                 5.1006

                     64                     65                     66
                      A                      A                      A
 Frequencies --   1528.9542              1535.7503              1547.6783
 Red. masses --      1.0447                 1.0685                 1.0951
 Frc consts  --      1.4388                 1.4848                 1.5455
 IR Inten    --      5.1106                 2.4430                 5.1441

                     67                     68                     69
                      A                      A                      A
 Frequencies --   1710.6040              1754.9973              1799.7990
 Red. masses --      6.9061                 6.8293                10.3876
 Frc consts  --     11.9065                12.3931                19.8250
 IR Inten    --      9.7444                 1.9993               333.3442

                     70                     71                     72
                      A                      A                      A
 Frequencies --   3027.0969              3028.5873              3037.4720
 Red. masses --      1.0697                 1.0693                 1.0687
 Frc consts  --      5.7752                 5.7786                 5.8093
 IR Inten    --     37.7125                21.8099                27.9723

                     73                     74                     75
                      A                      A                      A
 Frequencies --   3045.8701              3047.8519              3074.5860
 Red. masses --      1.0346                 1.0351                 1.0295
 Frc consts  --      5.6552                 5.6650                 5.7337
 IR Inten    --     38.7087                30.8717                31.8567

                     76                     77                     78
                      A                      A                      A
 Frequencies --   3082.9421              3093.7175              3103.5528
 Red. masses --      1.0948                 1.0926                 1.0898
 Frc consts  --      6.1306                 6.1615                 6.1844
 IR Inten    --     11.9046                 2.2754                 2.7026

                     79                     80                     81
                      A                      A                      A
 Frequencies --   3114.1439              3116.1041              3119.4131
 Red. masses --      1.1021                 1.1008                 1.1029
 Frc consts  --      6.2972                 6.2975                 6.3234
 IR Inten    --      2.7898                92.7815                53.4785

                     82                     83                     84
                      A                      A                      A
 Frequencies --   3123.3368              3148.3395              3154.4275
 Red. masses --      1.1031                 1.1073                 1.0874
 Frc consts  --      6.3402                 6.4668                 6.3752
 IR Inten    --     36.9574                20.1933                15.1661

                     85                     86                     87
                      A                      A                      A
 Frequencies --   3159.9747              3180.3894              3207.0574
 Red. masses --      1.0874                 1.1070                 1.0919
 Frc consts  --      6.3973                 6.5973                 6.6165
 IR Inten    --     16.6510                15.2719                 8.4485

 - Thermochemistry -
 -------------------
 Temperature   298.150 Kelvin.  Pressure   1.00000 Atm.
 Atom     1 has atomic number  6 and mass  12.00000

 Molecular mass:   182.13068 amu.
 Principal axes and moments of inertia in atomic units:
                           1         2         3
     Eigenvalues --  1800.304914019.783954754.52595
           X            0.99994   0.00891   0.00608
           Y           -0.00889   0.99996  -0.00249
           Z           -0.00610   0.00244   0.99998
 This molecule is an asymmetric top.
 Rotational symmetry number  1.
 Warning -- assumption of classical behavior for rotation
           may cause significant error
 Rotational temperatures (Kelvin)      0.04811     0.02155     0.01822
 Rotational constants (GHZ):           1.00246     0.44896     0.37958
 Zero-point vibrational energy     715774.3 (Joules/Mol)
                                  171.07416 (Kcal/Mol)
 Warning -- explicit consideration of  22 degrees of freedom as
           vibrations may cause significant error
 Vibrational temperatures:     23.61    33.60    53.26    61.73    90.68
          (Kelvin)            160.36   174.89   211.71   263.27   283.17
                              297.12   313.35   353.19   449.82   468.36
                              501.52   542.78   632.48   644.66   778.05
                              800.71   832.35  1004.25  1045.19  1116.10
                             1147.80  1193.77  1223.23  1244.13  1271.83
                             1341.65  1361.74  1433.40  1460.05  1479.79
                             1504.68  1537.66  1562.79  1582.04  1594.43
                             1658.55  1706.13  1751.68  1754.25  1763.61
                             1856.53  1870.20  1886.79  1910.90  1922.12
                             1949.29  1972.05  2042.84  2063.95  2068.86
                             2078.59  2147.04  2169.75  2174.06  2175.38
                             2195.05  2196.51  2197.40  2199.82  2209.60
                             2226.76  2461.18  2525.05  2589.51  4355.32
                             4357.46  4370.24  4382.33  4385.18  4423.64
                             4435.67  4451.17  4465.32  4480.56  4483.38
                             4488.14  4493.79  4529.76  4538.52  4546.50
                             4575.87  4614.24

 Zero-point correction=                           0.272624 (Hartree/Particle)
 Thermal correction to Energy=                    0.288341
 Thermal correction to Enthalpy=                  0.289285
 Thermal correction to Gibbs Free Energy=         0.226511
 Sum of electronic and zero-point Energies=           -580.211247
 Sum of electronic and thermal Energies=              -580.195530
 Sum of electronic and thermal Enthalpies=            -580.194586
 Sum of electronic and thermal Free Energies=         -580.257360

                     E (Thermal)             CV                S
                      KCal/Mol        Cal/Mol-Kelvin    Cal/Mol-Kelvin
 Total                  180.936             55.066            132.119
 Electronic               0.000              0.000              0.000
 Translational            0.889              2.981             41.505
 Rotational               0.889              2.981             31.909
 Vibrational            179.159             49.104             58.705
 Vibration     1          0.593              1.986              7.028
 Vibration     2          0.593              1.985              6.327
 Vibration     3          0.594              1.982              5.413
 Vibration     4          0.595              1.980              5.120
 Vibration     5          0.597              1.972              4.360
 Vibration     6          0.607              1.940              3.243
 Vibration     7          0.609              1.931              3.076
 Vibration     8          0.617              1.906              2.709
 Vibration     9          0.630              1.863              2.298
 Vibration    10          0.636              1.844              2.163
 Vibration    11          0.641              1.831              2.074
 Vibration    12          0.646              1.814              1.977
 Vibration    13          0.660              1.770              1.763
 Vibration    14          0.701              1.650              1.348
 Vibration    15          0.710              1.624              1.282
 Vibration    16          0.726              1.578              1.173
 Vibration    17          0.748              1.519              1.050
 Vibration    18          0.800              1.384              0.828
 Vibration    19          0.807              1.365              0.802
 Vibration    20          0.896              1.160              0.564
 Vibration    21          0.912              1.125              0.531
 Vibration    22          0.935              1.078              0.488

                           ! Non-Optimized Parameters !
 Normal termination of Gaussian 16 at Wed Dec  9 22:32:38 2020.

 ----------------------------------------------------------------------
 # B3LYP/6-311++G(d,p) empiricaldispersion=gd3bj scf=xqc pop=npa geom=c
 heck
 ----------------------------------------------------------------------

 --------------------------------------
 CID_10329991_JID_3065_Energie_neutraal
 --------------------------------------
 Structure from the checkpoint file:  "JID_3065.chk"
 Charge =  0 Multiplicity = 1

 SCF Done:  E(RB3LYP) =  -580.652139420     A.U. after   15 cycles
 Normal termination of Gaussian 16 at Wed Dec  9 22:35:50 2020.

 ----------------------------------------------------------------------
 # B3LYP/6-311++G(d,p) empiricaldispersion=gd3bj scf=xqc pop=npa geom=c
 heck
 ----------------------------------------------------------------------

 ------------------------------------
 CID_10329991_JID_3065_Energie_kation
 ------------------------------------
 Structure from the checkpoint file:  "JID_3065.chk"
 Charge =  1 Multiplicity = 2

 SCF Done:  E(UB3LYP) =  -580.341229202     A.U. after   24 cycles
 Normal termination of Gaussian 16 at Wed Dec  9 22:42:34 2020.
 Gaussian 16:  ES64L-G16RevA.03 25-Dec-2016

 ----------------------------------------------------------------------
 # B3LYP/6-311++G(d,p) empiricaldispersion=gd3bj scf=xqc pop=npa geom=c
 heck
 ----------------------------------------------------------------------

 -----------------------------------
 CID_10329991_JID_3065_Energie_anion
 -----------------------------------
 Structure from the checkpoint file:  "JID_3065.chk"
 Charge = -1 Multiplicity = 2

                         Standard orientation:
 ---------------------------------------------------------------------
 Center     Atomic      Atomic             Coordinates (Angstroms)
 Number     Number       Type             X           Y           Z
 ---------------------------------------------------------------------
      1          6           0       -1.554997    3.054666   -0.353890
      2          6           0       -2.194162    1.739635   -0.830417
      3          6           0       -1.244244    0.580430   -0.707049
      4          6           0       -1.347157   -0.469518    0.116966
      5          6           0       -2.505833   -0.694964    1.064839
      6          6           0       -3.595939   -1.593900    0.458383
      7          6           0       -0.282138   -1.559836    0.183819
      8          6           0        0.613220   -1.644677   -1.016690
      9          6           0        1.829172   -1.109109   -1.209163
     10          6           0        2.624460   -0.256845   -0.299237
     11          8           0        3.765632    0.086781   -0.542399
     12          8           0        1.962725    0.134356    0.817215
     13          6           0        2.707182    0.990618    1.693880
     14          1           0       -1.298315    2.996215    0.709625
     15          1           0       -2.234038    3.902722   -0.498256
     16          1           0       -0.631096    3.263796   -0.905794
     17          1           0       -3.119619    1.557858   -0.274021
     18          1           0       -2.488130    1.850476   -1.884217
     19          1           0       -0.364344    0.644639   -1.345723
     20          1           0       -2.127846   -1.159998    1.985774
     21          1           0       -2.950513    0.259176    1.365286
     22          1           0       -3.185373   -2.560123    0.142734
     23          1           0       -4.395282   -1.790535    1.181801
     24          1           0       -4.039195   -1.119259   -0.423496
     25          1           0        0.306037   -1.411218    1.094219
     26          1           0       -0.790765   -2.528515    0.290687
     27          1           0        0.202876   -2.211311   -1.852443
     28          1           0        2.349709   -1.291215   -2.144701
     29          1           0        3.603910    0.483551    2.060016
     30          1           0        3.006309    1.904188    1.173557
     31          1           0        2.031436    1.221464    2.517777
 ---------------------------------------------------------------------

 SCF Done:  E(UB3LYP) =  -580.646068106     A.U. after   33 cycles
 SCF Done:  E(UB3LYP) =  -580.646068106     a.u. after    1 cycles

 The electronic state is 2-A.
 Alpha  occ. eigenvalues --  -19.03228 -18.95982 -10.14635 -10.11053 -10.06094
 Alpha  occ. eigenvalues --  -10.05833 -10.05692 -10.05532 -10.05443 -10.04824
 Alpha  occ. eigenvalues --  -10.03875 -10.03787 -10.03267  -0.97034  -0.87738
 Alpha  occ. eigenvalues --   -0.71243  -0.67021  -0.65859  -0.61979  -0.59768
 Alpha  occ. eigenvalues --   -0.56595  -0.52498  -0.49512  -0.47447  -0.43168
 Alpha  occ. eigenvalues --   -0.40105  -0.37363  -0.36093  -0.35538  -0.34630
 Alpha  occ. eigenvalues --   -0.34034  -0.32847  -0.31521  -0.30403  -0.29792
 Alpha  occ. eigenvalues --   -0.29467  -0.27386  -0.27229  -0.26574  -0.26156
 Alpha  occ. eigenvalues --   -0.25480  -0.23696  -0.23365  -0.22895  -0.21507
 Alpha  occ. eigenvalues --   -0.20044  -0.18081  -0.14408  -0.13872  -0.11958
 Alpha  occ. eigenvalues --    0.04788
 Alpha virt. eigenvalues --    0.06531   0.07335   0.07936   0.08930   0.09697
 Alpha virt. eigenvalues --    0.10077   0.10629   0.10659   0.10870   0.12201
 Alpha virt. eigenvalues --    0.12450   0.13046   0.13297   0.13595   0.13903

  Beta  occ. eigenvalues --  -19.03171 -18.95742 -10.14456 -10.11050 -10.06085
  Beta  occ. eigenvalues --  -10.05816 -10.05673 -10.05499 -10.05414 -10.04850
  Beta  occ. eigenvalues --  -10.03845 -10.03417 -10.03221  -0.96821  -0.87380
  Beta  occ. eigenvalues --   -0.71127  -0.66761  -0.65679  -0.61839  -0.59619
  Beta  occ. eigenvalues --   -0.56495  -0.52369  -0.49428  -0.46974  -0.42973
  Beta  occ. eigenvalues --   -0.40041  -0.37281  -0.35811  -0.35330  -0.34478
  Beta  occ. eigenvalues --   -0.33940  -0.32801  -0.31334  -0.30302  -0.29645
  Beta  occ. eigenvalues --   -0.29371  -0.27166  -0.26653  -0.26457  -0.26087
  Beta  occ. eigenvalues --   -0.25383  -0.23651  -0.23295  -0.22784  -0.21361
  Beta  occ. eigenvalues --   -0.19919  -0.17375  -0.14037  -0.12657  -0.11777
  Beta virt. eigenvalues --    0.06892   0.07805   0.08116   0.09014   0.09802
  Beta virt. eigenvalues --    0.09879   0.10293   0.10744   0.10901   0.10975
  Beta virt. eigenvalues --    0.12343   0.12488   0.13026   0.13329   0.13757

 Mulliken charges and spin densities:
               1          2
     1  C    0.030156  -0.646440
     2  C   -0.320433   0.014785
     3  C   -0.227720   0.032660
     4  C    0.641820  -0.010194
     5  C   -1.200517   0.925864
     6  C    0.847450  -1.502900
     7  C   -0.224402  -0.701057
     8  C    0.339965   0.254354
     9  C   -0.228439  -0.025512
    10  C   -0.129074   0.159612
    11  O   -0.354452   0.072448
    12  O   -0.114433   0.012209
    13  C   -0.125529  -0.151618
    14  H    0.041679   0.089326
    15  H   -0.231094   0.361641
    16  H    0.093990   0.040857
    17  H    0.061560   0.085790
    18  H   -0.030632   0.157110
    19  H    0.175638  -0.007070
    20  H   -0.163066   0.310369
    21  H   -0.049086   0.204989
    22  H   -0.050134   0.183932
    23  H   -0.432586   0.563274
    24  H   -0.084203   0.219651
    25  H    0.111235   0.094992
    26  H    0.084474   0.067837
    27  H    0.123595   0.013499
    28  H    0.134075   0.014655
    29  H    0.126217   0.033672
    30  H    0.131271   0.033293
    31  H    0.022675   0.097971
 Sum of Mulliken charges =  -1.00000   1.00000

 Dipole moment (field-independent basis, Debye):
    X=              1.1726    Y=              0.8414    Z=              0.4256  Tot=              1.5047
 Quadrupole moment (field-independent basis, Debye-Ang):
   XX=           -153.2742   YY=           -112.8305   ZZ=           -101.6132
   XY=             -0.3568   XZ=             10.7874   YZ=              4.8963

 Summary of Natural Population Analysis:

                                       Natural Population
                Natural  -----------------------------------------------
    Atom  No    Charge         Core      Valence    Rydberg      Total
 -----------------------------------------------------------------------
      C    1   -0.28179      0.99966     2.27678    0.00534     3.28179
      C    2   -0.20432      0.99963     2.19618    0.00851     3.20432
      C    3   -0.09897      0.99944     2.08946    0.01007     3.09897
      C    4    0.00675      0.99947     1.98231    0.01148     2.99325
      C    5   -0.20438      0.99959     2.19535    0.00944     3.20438
      C    6   -0.28057      0.99966     2.27582    0.00509     3.28057
      C    7   -0.22974      0.99957     2.21966    0.01052     3.22974
      C    8    0.01865      0.99956     1.97161    0.01019     2.98135
      C    9   -0.16379      0.99948     2.15330    0.01101     3.16379
      C   10    0.40707      0.99965     1.56948    0.02379     2.59293
      O   11   -0.30352      0.99988     3.29817    0.00547     4.30352
      O   12   -0.28145      0.99986     3.27282    0.00877     4.28145
      C   13   -0.10384      0.99960     2.09569    0.00855     3.10384
      H   14    0.09726      0.00000     0.40179    0.00095     0.40274
      H   15    0.09405      0.00000     0.40488    0.00108     0.40595
      H   16    0.09549      0.00000     0.40358    0.00093     0.40451
      H   17    0.09547      0.00000     0.40312    0.00141     0.40453
      H   18    0.09581      0.00000     0.40308    0.00112     0.40419
      H   19    0.09983      0.00000     0.39876    0.00141     0.40017
      H   20    0.09793      0.00000     0.40058    0.00149     0.40207
      H   21    0.09753      0.00000     0.40121    0.00126     0.40247
      H   22    0.09542      0.00000     0.40348    0.00110     0.40458
      H   23    0.09667      0.00000     0.40188    0.00145     0.40333
      H   24    0.09617      0.00000     0.40275    0.00108     0.40383
      H   25    0.11564      0.00000     0.38283    0.00153     0.38436
      H   26    0.10007      0.00000     0.39856    0.00137     0.39993
      H   27    0.08434      0.00000     0.41473    0.00093     0.41566
      H   28    0.09813      0.00000     0.40070    0.00117     0.40187
      H   29    0.08615      0.00000     0.41237    0.00148     0.41385
      H   30    0.08769      0.00000     0.41084    0.00147     0.41231
      H   31    0.08626      0.00000     0.41265    0.00109     0.41374
 =======================================================================
   * Total *    0.00000     12.99504    36.85441    0.15055    50.00000

 Normal termination of Gaussian 16 at Wed Dec  9 22:52:11 2020.
