 Gaussian 16, Revision A.03,

 -----------------------------------------------------------
 # opt freq B3LYP/6-31G(d) empiricaldispersion=gd3bj scf=xqc
 -----------------------------------------------------------

 ------------------------------
 CID_148402546_JID_477_neutraal
 ------------------------------
 Symbolic Z-matrix:
 Charge =  0 Multiplicity = 1

 SCF Done:  E(RB3LYP) =  -426.608896925     A.U. after   14 cycles
 SCF Done:  E(RB3LYP) =  -426.611784692     A.U. after   12 cycles
 SCF Done:  E(RB3LYP) =  -426.612023472     A.U. after   11 cycles
 SCF Done:  E(RB3LYP) =  -426.612073360     A.U. after   11 cycles
 SCF Done:  E(RB3LYP) =  -426.612092474     A.U. after    8 cycles
 SCF Done:  E(RB3LYP) =  -426.612094194     A.U. after    8 cycles
 Optimization completed.
    -- Stationary point found.

 1\1\GINC-NODE202\FOpt\RB3LYP\6-31G(d)\C9H14O1\VSC10255\08-Dec-2020\0\\
 # opt freq B3LYP/6-31G(d) empiricaldispersion=gd3bj scf=xqc\\CID_14840
 2546_JID_477_neutraal\\0,1\C,0.2356795815,-1.5807460185,0.5591145377\C
 ,-0.8345614236,-1.0899852065,-0.4372749443\C,-1.5848868278,0.198218874
 1,-0.0122372707\O,-0.9407828994,1.0540157562,0.9238463416\C,0.23389529
 73,1.786256852,0.5327160319\C,1.5124372583,1.1591130756,1.1297271286\C
 ,2.0704502845,0.2374821839,0.0190504971\C,1.6901345175,-1.2559339623,0
 .1749668912\C,1.5065601515,0.8934995253,-1.226144315\C,0.5290268187,1.

 Normal termination of Gaussian 16 at Tue Dec  8 10:37:09 2020.

 --------------------------------------------------------------------
 #N Geom=AllCheck Guess=TCheck SCRF=Check GenChk RB3LYP/6-31G(d) Freq
 --------------------------------------------------------------------

 Structure from the checkpoint file:  "JID_477.chk"
 ------------------------------
 CID_148402546_JID_477_neutraal
 ------------------------------
 Charge =  0 Multiplicity = 1

 SCF Done:  E(RB3LYP) =  -426.612094194     A.U. after    1 cycles

  Exact polarizability:  89.885   2.659  95.786  -0.656  -0.546  81.620
 Approx polarizability: 122.733   8.436 142.541   2.775   3.842 124.115

                      1                      2                      3
                      A                      A                      A
 Frequencies --    159.6199               180.0381               211.1205
 Red. masses --      2.3882                 3.2735                 3.1701
 Frc consts  --      0.0359                 0.0625                 0.0832
 IR Inten    --      0.5705                 2.6719                 1.9012

                      4                      5                      6
                      A                      A                      A
 Frequencies --    250.8001               280.2169               355.3779
 Red. masses --      2.5780                 2.7398                 1.9529
 Frc consts  --      0.0955                 0.1268                 0.1453
 IR Inten    --      0.4363                 0.2242                 0.2517

                      7                      8                      9
                      A                      A                      A
 Frequencies --    392.6393               413.8148               477.4431
 Red. masses --      2.7454                 2.1829                 2.6975
 Frc consts  --      0.2494                 0.2202                 0.3623
 IR Inten    --      3.1184                 2.0781                 3.1383

                     10                     11                     12
                      A                      A                      A
 Frequencies --    544.7167               620.2372               704.8020
 Red. masses --      2.1988                 4.2507                 2.2879
 Frc consts  --      0.3844                 0.9634                 0.6696
 IR Inten    --      0.0552                 7.4421                 1.3561

                     13                     14                     15
                      A                      A                      A
 Frequencies --    754.1862               775.8936               805.8269
 Red. masses --      2.1700                 1.7899                 2.8852
 Frc consts  --      0.7272                 0.6349                 1.1038
 IR Inten    --     13.5309                 3.5944                 1.6780

                     16                     17                     18
                      A                      A                      A
 Frequencies --    817.0514               829.6420               842.6488
 Red. masses --      2.5203                 2.3812                 2.5831
 Frc consts  --      0.9913                 0.9657                 1.0806
 IR Inten    --      2.1891                 9.6949                 2.1470

                     19                     20                     21
                      A                      A                      A
 Frequencies --    895.8830               952.7960               966.0772
 Red. masses --      1.8981                 2.2979                 2.0623
 Frc consts  --      0.8976                 1.2291                 1.1340
 IR Inten    --      1.7385                 0.4573                 4.7954

                     22                     23                     24
                      A                      A                      A
 Frequencies --    982.0437               987.1579              1006.2748
 Red. masses --      1.6484                 1.8905                 2.2466
 Frc consts  --      0.9366                 1.0854                 1.3403
 IR Inten    --      5.2085                11.2438                 8.6008

                     25                     26                     27
                      A                      A                      A
 Frequencies --   1030.2174              1058.3024              1075.5319
 Red. masses --      2.1178                 1.9596                 1.8132
 Frc consts  --      1.3243                 1.2931                 1.2358
 IR Inten    --      9.9461                 5.3084                19.7333

                     28                     29                     30
                      A                      A                      A
 Frequencies --   1118.2368              1126.9697              1138.3416
 Red. masses --      1.9156                 2.8597                 1.5350
 Frc consts  --      1.4113                 2.1399                 1.1719
 IR Inten    --      3.5713               104.0525                 1.6729

                     31                     32                     33
                      A                      A                      A
 Frequencies --   1155.0412              1213.8110              1224.9882
 Red. masses --      1.7339                 1.2450                 1.3226
 Frc consts  --      1.3629                 1.0808                 1.1693
 IR Inten    --     43.7198                14.2597                11.9107

                     34                     35                     36
                      A                      A                      A
 Frequencies --   1255.5893              1285.3414              1300.0879
 Red. masses --      1.2340                 1.6088                 1.2211
 Frc consts  --      1.1462                 1.5660                 1.2160
 IR Inten    --      2.6343                 1.4590                 2.0947

                     37                     38                     39
                      A                      A                      A
 Frequencies --   1325.0438              1334.1973              1354.4014
 Red. masses --      1.2424                 1.3050                 1.2812
 Frc consts  --      1.2852                 1.3687                 1.3847
 IR Inten    --      4.3451                 0.2880                 0.9563

                     40                     41                     42
                      A                      A                      A
 Frequencies --   1363.3178              1378.3774              1392.1161
 Red. masses --      1.5490                 1.2763                 1.3815
 Frc consts  --      1.6963                 1.4287                 1.5775
 IR Inten    --      1.5958                 0.2847                 1.6515

                     43                     44                     45
                      A                      A                      A
 Frequencies --   1398.0085              1414.3542              1418.3779
 Red. masses --      1.3639                 1.3905                 1.4192
 Frc consts  --      1.5705                 1.6389                 1.6822
 IR Inten    --     14.3063                 1.9860                 2.2519

                     46                     47                     48
                      A                      A                      A
 Frequencies --   1438.1346              1506.3612              1513.6289
 Red. masses --      1.2498                 1.0974                 1.0845
 Frc consts  --      1.5230                 1.4671                 1.4639
 IR Inten    --      8.2369                 6.3079                 1.0597

                     49                     50                     51
                      A                      A                      A
 Frequencies --   1519.4137              1527.4904              1536.0006
 Red. masses --      1.0782                 1.0861                 1.0892
 Frc consts  --      1.4665                 1.4930                 1.5140
 IR Inten    --      2.8345                 5.3843                 6.5057

                     52                     53                     54
                      A                      A                      A
 Frequencies --   1691.2109              3017.1947              3019.3920
 Red. masses --      6.1274                 1.0680                 1.0664
 Frc consts  --     10.3258                 5.7284                 5.7281
 IR Inten    --      4.0684                55.9974                11.3688

                     55                     56                     57
                      A                      A                      A
 Frequencies --   3033.5693              3041.1831              3054.3452
 Red. masses --      1.0796                 1.0708                 1.0820
 Frc consts  --      5.8534                 5.8351                 5.9474
 IR Inten    --     53.1780                30.7934                42.3700

                     58                     59                     60
                      A                      A                      A
 Frequencies --   3055.4424              3063.5308              3073.9658
 Red. masses --      1.0778                 1.0864                 1.0720
 Frc consts  --      5.9283                 6.0071                 5.9681
 IR Inten    --     39.9726                51.9287                62.6846

                     61                     62                     63
                      A                      A                      A
 Frequencies --   3081.7968              3097.2052              3104.6050
 Red. masses --      1.0919                 1.0998                 1.0979
 Frc consts  --      6.1101                 6.2158                 6.2348
 IR Inten    --      8.3948                35.0557                65.5320

                     64                     65                     66
                      A                      A                      A
 Frequencies --   3129.7944              3184.8773              3217.0900
 Red. masses --      1.0993                 1.0871                 1.1014
 Frc consts  --      6.3443                 6.4968                 6.7162
 IR Inten    --     24.1250                12.2966                18.8571

 - Thermochemistry -
 -------------------
 Temperature   298.150 Kelvin.  Pressure   1.00000 Atm.
 Atom     1 has atomic number  6 and mass  12.00000

 Molecular mass:   138.10447 amu.
 Principal axes and moments of inertia in atomic units:
                           1         2         3
     Eigenvalues --  1050.911711104.003481524.80317
           X            0.99637  -0.07946  -0.03062
           Y            0.07882   0.99665  -0.02161
           Z            0.03224   0.01912   0.99930
 This molecule is an asymmetric top.
 Rotational symmetry number  1.
 Warning -- assumption of classical behavior for rotation
           may cause significant error
 Rotational temperatures (Kelvin)      0.08242     0.07845     0.05680
 Rotational constants (GHZ):           1.71731     1.63472     1.18359
 Zero-point vibrational energy     571056.5 (Joules/Mol)
                                  136.48578 (Kcal/Mol)
 Warning -- explicit consideration of  11 degrees of freedom as
           vibrations may cause significant error
 Vibrational temperatures:    229.66   259.03   303.76   360.85   403.17
          (Kelvin)            511.31   564.92   595.39   686.93   783.73
                              892.38  1014.05  1085.11  1116.34  1159.41
                             1175.55  1193.67  1212.38  1288.98  1370.86
                             1389.97  1412.94  1420.30  1447.80  1482.25
                             1522.66  1547.45  1608.89  1621.46  1637.82
                             1661.85  1746.40  1762.48  1806.51  1849.32
                             1870.54  1906.44  1919.61  1948.68  1961.51
                             1983.18  2002.94  2011.42  2034.94  2040.73
                             2069.15  2167.32  2177.77  2186.10  2197.72
                             2209.96  2433.28  4341.07  4344.23  4364.63
                             4375.58  4394.52  4396.10  4407.74  4422.75
                             4434.02  4456.19  4466.83  4503.08  4582.33
                             4628.67

 Zero-point correction=                           0.217504 (Hartree/Particle)
 Thermal correction to Energy=                    0.225764
 Thermal correction to Enthalpy=                  0.226708
 Thermal correction to Gibbs Free Energy=         0.185088
 Sum of electronic and zero-point Energies=           -426.394590
 Sum of electronic and thermal Energies=              -426.386330
 Sum of electronic and thermal Enthalpies=            -426.385386
 Sum of electronic and thermal Free Energies=         -426.427006

                     E (Thermal)             CV                S
                      KCal/Mol        Cal/Mol-Kelvin    Cal/Mol-Kelvin
 Total                  141.669             34.504             87.597
 Electronic               0.000              0.000              0.000
 Translational            0.889              2.981             40.680
 Rotational               0.889              2.981             28.960
 Vibrational            139.891             28.542             17.956
 Vibration     1          0.621              1.892              2.554
 Vibration     2          0.629              1.867              2.328
 Vibration     3          0.643              1.824              2.034
 Vibration     4          0.663              1.761              1.725
 Vibration     5          0.680              1.710              1.532
 Vibration     6          0.731              1.564              1.142
 Vibration     7          0.760              1.486              0.990
 Vibration     8          0.777              1.440              0.913
 Vibration     9          0.834              1.300              0.717
 Vibration    10          0.900              1.151              0.555
 Vibration    11          0.980              0.989              0.416

                           ! Non-Optimized Parameters !

 1\1\GINC-NODE202\Freq\RB3LYP\6-31G(d)\C9H14O1\VSC10255\08-Dec-2020\0\\
 #N Geom=AllCheck Guess=TCheck SCRF=Check GenChk RB3LYP/6-31G(d) Freq\\
 CID_148402546_JID_477_neutraal\\0,1\C,0.2356795815,-1.5807460185,0.559
 1145377\C,-0.8345614236,-1.0899852065,-0.4372749443\C,-1.5848868278,0.
 1982188741,-0.0122372707\O,-0.9407828994,1.0540157562,0.9238463416\C,0
 .2338952973,1.786256852,0.5327160319\C,1.5124372583,1.1591130756,1.129
 7271286\C,2.0704502845,0.2374821839,0.0190504971\C,1.6901345175,-1.255
 9339623,0.1749668912\C,1.5065601515,0.8934995253,-1.226144315\C,0.5290

 Normal termination of Gaussian 16 at Tue Dec  8 10:42:24 2020.

 ----------------------------------------------------------------------
 # B3LYP/6-311++G(d,p) empiricaldispersion=gd3bj scf=xqc pop=npa geom=c
 heck
 ----------------------------------------------------------------------

 --------------------------------------
 CID_148402546_JID_477_Energie_neutraal
 --------------------------------------
 Structure from the checkpoint file:  "JID_477.chk"
 Charge =  0 Multiplicity = 1

 SCF Done:  E(RB3LYP) =  -426.728814144     A.U. after   13 cycles
 Normal termination of Gaussian 16 at Tue Dec  8 10:44:31 2020.

 ----------------------------------------------------------------------
 # B3LYP/6-311++G(d,p) empiricaldispersion=gd3bj scf=xqc pop=npa geom=c
 heck
 ----------------------------------------------------------------------

 ------------------------------------
 CID_148402546_JID_477_Energie_kation
 ------------------------------------
 Structure from the checkpoint file:  "JID_477.chk"
 Charge =  1 Multiplicity = 2

 SCF Done:  E(UB3LYP) =  -426.405864075     A.U. after   23 cycles
 Normal termination of Gaussian 16 at Tue Dec  8 10:50:19 2020.
 Gaussian 16:  ES64L-G16RevA.03 25-Dec-2016

 -----------------------------------
 CID_148402546_JID_477_Energie_anion
 -----------------------------------
 Structure from the checkpoint file:  "JID_477.chk"
 Charge = -1 Multiplicity = 2

                         Standard orientation:
 ---------------------------------------------------------------------
 Center     Atomic      Atomic             Coordinates (Angstroms)
 Number     Number       Type             X           Y           Z
 ---------------------------------------------------------------------
      1          6           0       -1.096840    1.512830   -0.422173
      2          6           0       -1.729576    0.555529    0.608494
      3          6           0       -1.758447   -0.935999    0.187037
      4          8           0       -0.820858   -1.358275   -0.795878
      5          6           0        0.580149   -1.406498   -0.473573
      6          6           0        1.345028   -0.226394   -1.111315
      7          6           0        1.423939    0.852718   -0.005117
      8          6           0        0.343066    1.957266   -0.109668
      9          6           0        1.324172    0.005122    1.248066
     10          6           0        0.896774   -1.235245    0.996916
     11          1           0       -1.135431    1.050224   -1.414250
     12          1           0       -1.701915    2.425027   -0.486545
     13          1           0       -1.212199    0.663426    1.566704
     14          1           0       -2.770585    0.850550    0.791975
     15          1           0       -1.691235   -1.568478    1.084017
     16          1           0       -2.720291   -1.153514   -0.288465
     17          1           0        0.924779   -2.366786   -0.874815
     18          1           0        2.358331   -0.559385   -1.363415
     19          1           0        0.860510    0.108861   -2.031854
     20          1           0        2.396784    1.362102   -0.030174
     21          1           0        0.658252    2.656021   -0.896052
     22          1           0        0.342527    2.533321    0.826818
     23          1           0        1.561712    0.399115    2.233507
     24          1           0        0.726028   -2.010253    1.737563
 ---------------------------------------------------------------------

 SCF Done:  E(UB3LYP) =  -426.710728102     A.U. after   31 cycles

 The electronic state is 2-A.
 Alpha  occ. eigenvalues --  -19.00861 -10.11202 -10.10547 -10.06507 -10.06398
 Alpha  occ. eigenvalues --  -10.05728 -10.05448 -10.05279 -10.05275 -10.05256
 Alpha  occ. eigenvalues --   -0.91791  -0.73915  -0.68501  -0.62820  -0.60098
 Alpha  occ. eigenvalues --   -0.58523  -0.50673  -0.49101  -0.43014  -0.42020
 Alpha  occ. eigenvalues --   -0.40137  -0.37911  -0.36124  -0.34879  -0.32612
 Alpha  occ. eigenvalues --   -0.30904  -0.29597  -0.27454  -0.26485  -0.25461
 Alpha  occ. eigenvalues --   -0.24462  -0.24013  -0.22037  -0.21276  -0.20898
 Alpha  occ. eigenvalues --   -0.18969  -0.14590  -0.14323   0.04947
 Alpha virt. eigenvalues --    0.07406   0.07557   0.08259   0.09481   0.09919
 Alpha virt. eigenvalues --    0.10084   0.10718   0.10812   0.11051   0.12700
 Alpha virt. eigenvalues --    0.13082   0.13378   0.14353   0.15336   0.17250

  Beta  occ. eigenvalues --  -19.00856 -10.11195 -10.10537 -10.06495 -10.06378
  Beta  occ. eigenvalues --  -10.05710 -10.05423 -10.05262 -10.05259 -10.05241
  Beta  occ. eigenvalues --   -0.91777  -0.73880  -0.68466  -0.62781  -0.60061
  Beta  occ. eigenvalues --   -0.58481  -0.50621  -0.49057  -0.42962  -0.41965
  Beta  occ. eigenvalues --   -0.40069  -0.37881  -0.36103  -0.34835  -0.32565
  Beta  occ. eigenvalues --   -0.30872  -0.29558  -0.27419  -0.26446  -0.25424
  Beta  occ. eigenvalues --   -0.24436  -0.23981  -0.21998  -0.21236  -0.20858
  Beta  occ. eigenvalues --   -0.18945  -0.14549  -0.14284
  Beta virt. eigenvalues --    0.07355   0.08287   0.08440   0.09008   0.10014
  Beta virt. eigenvalues --    0.10493   0.10605   0.11228   0.11323   0.11535
  Beta virt. eigenvalues --    0.13267   0.13755   0.13900   0.14751   0.15680

 Mulliken charges and spin densities:
               1          2
     1  C   -0.066823  -0.175457
     2  C    0.017317  -0.134495
     3  C    0.218769  -0.656282
     4  O   -0.144362   0.009223
     5  C   -0.052792   0.069484
     6  C    0.255810  -1.066957
     7  C   -0.880480   1.539248
     8  C    1.487042  -2.090753
     9  C    0.658370  -1.162147
    10  C    0.607187  -0.741547
    11  H    0.093075   0.060337
    12  H   -0.220569   0.384307
    13  H    0.024695   0.129436
    14  H   -0.349123   0.518891
    15  H   -0.052232   0.186514
    16  H    0.043733   0.105960
    17  H    0.014873   0.190793
    18  H   -0.309327   0.451784
    19  H    0.213685  -0.049265
    20  H   -0.402285   0.634443
    21  H   -0.390969   0.538723
    22  H   -0.362820   0.521392
    23  H   -0.838143   1.012837
    24  H   -0.564629   0.723531
 Sum of Mulliken charges =  -1.00000   1.00000

 Dipole moment (field-independent basis, Debye):
    X=             -2.4112    Y=             -2.8202    Z=             -2.7232  Tot=              4.6025
 Quadrupole moment (field-independent basis, Debye-Ang):
   XX=           -108.2122   YY=           -108.5874   ZZ=            -99.6872
   XY=             -0.4259   XZ=             -2.0646   YZ=              0.0441

 Summary of Natural Population Analysis:

                                       Natural Population
                Natural  -----------------------------------------------
    Atom  No    Charge         Core      Valence    Rydberg      Total
 -----------------------------------------------------------------------
      C    1   -0.19638      0.99962     2.18724    0.00952     3.19638
      C    2   -0.20881      0.99962     2.20104    0.00815     3.20881
      C    3   -0.00779      0.99957     1.99532    0.01290     3.00779
      O    4   -0.30961      0.99988     3.30070    0.00902     4.30961
      C    5    0.05266      0.99952     1.93229    0.01553     2.94734
      C    6   -0.19489      0.99961     2.18567    0.00961     3.19489
      C    7   -0.13154      0.99959     2.11845    0.01350     3.13154
      C    8   -0.18012      0.99960     2.17093    0.00959     3.18012
      C    9   -0.06753      0.99950     2.05648    0.01154     3.06753
      C   10   -0.12134      0.99950     2.11116    0.01068     3.12134
      H   11    0.09887      0.00000     0.39946    0.00166     0.40113
      H   12    0.09996      0.00000     0.39879    0.00125     0.40004
      H   13    0.09894      0.00000     0.39911    0.00194     0.40106
      H   14    0.09843      0.00000     0.40013    0.00145     0.40157
      H   15    0.08067      0.00000     0.41820    0.00113     0.41933
      H   16    0.08630      0.00000     0.41247    0.00124     0.41370
      H   17    0.08852      0.00000     0.41021    0.00128     0.41148
      H   18    0.10213      0.00000     0.39646    0.00141     0.39787
      H   19    0.10267      0.00000     0.39610    0.00123     0.39733
      H   20    0.10670      0.00000     0.39029    0.00302     0.39330
      H   21    0.09906      0.00000     0.39932    0.00162     0.40094
      H   22    0.09725      0.00000     0.40080    0.00195     0.40275
      H   23    0.10304      0.00000     0.39463    0.00233     0.39696
      H   24    0.10283      0.00000     0.39560    0.00157     0.39717
 =======================================================================
   * Total *    0.00000      9.99602    27.87085    0.13313    38.00000

 Normal termination of Gaussian 16 at Tue Dec  8 10:57:04 2020.
