 Gaussian 16, Revision A.03,

 -----------------------------------------------------------
 # opt freq B3LYP/6-31G(d) empiricaldispersion=gd3bj scf=xqc
 -----------------------------------------------------------

 ------------------------------
 CID_91211678_JID_2558_neutraal
 ------------------------------
 Symbolic Z-matrix:
 Charge =  0 Multiplicity = 1

 SCF Done:  E(RB3LYP) =  -534.953187167     A.U. after   15 cycles
 SCF Done:  E(RB3LYP) =  -534.958867464     A.U. after   12 cycles
 SCF Done:  E(RB3LYP) =  -534.959254129     A.U. after   12 cycles
 SCF Done:  E(RB3LYP) =  -534.959490094     A.U. after   11 cycles
 SCF Done:  E(RB3LYP) =  -534.959747349     A.U. after   11 cycles
 SCF Done:  E(RB3LYP) =  -534.958965339     A.U. after   14 cycles
 SCF Done:  E(RB3LYP) =  -534.960269560     A.U. after   11 cycles
 SCF Done:  E(RB3LYP) =  -534.960581946     A.U. after   13 cycles
 SCF Done:  E(RB3LYP) =  -534.961015865     A.U. after   12 cycles
 SCF Done:  E(RB3LYP) =  -534.961351565     A.U. after   11 cycles
 SCF Done:  E(RB3LYP) =  -534.961896009     A.U. after   10 cycles
 SCF Done:  E(RB3LYP) =  -534.961896239     A.U. after    9 cycles
 SCF Done:  E(RB3LYP) =  -534.961897278     A.U. after    9 cycles
 SCF Done:  E(RB3LYP) =  -534.961897516     A.U. after    7 cycles
 SCF Done:  E(RB3LYP) =  -534.961897666     A.U. after    7 cycles
 Optimization completed.
    -- Stationary point found.
 Normal termination of Gaussian 16 at Wed Dec  9 17:42:54 2020.

 --------------------------------------------------------------------
 #N Geom=AllCheck Guess=TCheck SCRF=Check GenChk RB3LYP/6-31G(d) Freq
 --------------------------------------------------------------------

 Structure from the checkpoint file:  "JID_2558.chk"
 ------------------------------
 CID_91211678_JID_2558_neutraal
 ------------------------------
 Charge =  0 Multiplicity = 1

 SCF Done:  E(RB3LYP) =  -534.961897666     A.U. after    1 cycles

  Exact polarizability: 134.898  -3.354 106.282 -11.237  -7.415  68.498
 Approx polarizability: 178.142  -7.968 181.688 -20.006 -17.663 101.247

                      1                      2                      3
                      A                      A                      A
 Frequencies --     39.0026                58.4748               114.6881
 Red. masses --      3.6713                 3.9017                 2.2676
 Frc consts  --      0.0033                 0.0079                 0.0176
 IR Inten    --      0.0414                 1.7054                 0.2823

                      4                      5                      6
                      A                      A                      A
 Frequencies --    144.5091               170.8195               238.2384
 Red. masses --      3.7539                 4.9095                 1.9877
 Frc consts  --      0.0462                 0.0844                 0.0665
 IR Inten    --      0.8702                 0.9791                 6.4259

                      7                      8                      9
                      A                      A                      A
 Frequencies --    238.9031               260.8005               305.4841
 Red. masses --      3.3547                 1.4075                 4.0124
 Frc consts  --      0.1128                 0.0564                 0.2206
 IR Inten    --      2.1216                 0.5215                 4.3536

                     10                     11                     12
                      A                      A                      A
 Frequencies --    333.4897               430.2178               570.9012
 Red. masses --      2.3633                 2.7763                 2.9688
 Frc consts  --      0.1549                 0.3028                 0.5701
 IR Inten    --      4.6525                 3.6886                 8.7910

                     13                     14                     15
                      A                      A                      A
 Frequencies --    583.6580               610.5272               630.0768
 Red. masses --      4.5921                 3.6984                 4.4558
 Frc consts  --      0.9217                 0.8122                 1.0422
 IR Inten    --      2.4514                 1.0433                 0.0242

                     16                     17                     18
                      A                      A                      A
 Frequencies --    685.4003               719.8581               737.2235
 Red. masses --      5.4449                 1.2681                 7.1057
 Frc consts  --      1.5071                 0.3872                 2.2754
 IR Inten    --      6.1354                42.0295                21.0510

                     19                     20                     21
                      A                      A                      A
 Frequencies --    782.4966               791.2084               797.0770
 Red. masses --      5.4373                 1.2411                 1.3488
 Frc consts  --      1.9616                 0.4578                 0.5049
 IR Inten    --      5.6092                22.6067                22.2965

                     22                     23                     24
                      A                      A                      A
 Frequencies --    860.2220               865.2440               908.5575
 Red. masses --      2.8673                 1.2769                 1.3801
 Frc consts  --      1.2501                 0.5632                 0.6712
 IR Inten    --     10.8339                 0.2901                 2.3234

                     25                     26                     27
                      A                      A                      A
 Frequencies --    919.2377               968.1475              1036.9974
 Red. masses --      4.1502                 2.9357                 1.5999
 Frc consts  --      2.0662                 1.6212                 1.0137
 IR Inten    --     14.6584                 1.8615                 0.3862

                     28                     29                     30
                      A                      A                      A
 Frequencies --   1039.0256              1057.0488              1081.2811
 Red. masses --      1.4285                 1.8387                 1.7582
 Frc consts  --      0.9086                 1.2105                 1.2112
 IR Inten    --      2.1386                 0.7222                35.4643

                     31                     32                     33
                      A                      A                      A
 Frequencies --   1104.6344              1132.5479              1174.0233
 Red. masses --      2.1281                 1.9325                 3.1698
 Frc consts  --      1.5300                 1.4605                 2.5742
 IR Inten    --      8.1640                13.6116                 4.5375

                     34                     35                     36
                      A                      A                      A
 Frequencies --   1195.0338              1224.3641              1251.1628
 Red. masses --      1.0825                 1.8288                 1.6617
 Frc consts  --      0.9108                 1.6152                 1.5326
 IR Inten    --      2.0110                19.0338                 6.0980

                     37                     38                     39
                      A                      A                      A
 Frequencies --   1292.8478              1303.5667              1316.2751
 Red. masses --      1.8911                 2.7178                 1.4431
 Frc consts  --      1.8623                 2.7210                 1.4731
 IR Inten    --     51.7607                99.5658                21.8872

                     40                     41                     42
                      A                      A                      A
 Frequencies --   1357.2163              1403.0062              1410.8248
 Red. masses --      1.7495                 1.3946                 1.4504
 Frc consts  --      1.8987                 1.6174                 1.7009
 IR Inten    --     59.5508                15.6863               104.0746

                     43                     44                     45
                      A                      A                      A
 Frequencies --   1433.9080              1443.8568              1451.6606
 Red. masses --      3.6065                 1.2866                 3.4163
 Frc consts  --      4.3689                 1.5803                 4.2417
 IR Inten    --     58.7528                18.5120                 2.8199

                     46                     47                     48
                      A                      A                      A
 Frequencies --   1475.5116              1506.5896              1513.3464
 Red. masses --      3.2559                 1.3820                 2.4938
 Frc consts  --      4.1765                 1.8481                 3.3650
 IR Inten    --    196.3323                41.4546                16.3534

                     49                     50                     51
                      A                      A                      A
 Frequencies --   1518.3656              1531.0791              1536.6504
 Red. masses --      1.0883                 1.0548                 1.0747
 Frc consts  --      1.4782                 1.4569                 1.4951
 IR Inten    --      2.1348                13.3844                 4.9926

                     52                     53                     54
                      A                      A                      A
 Frequencies --   1547.1293              1628.7910              1847.6552
 Red. masses --      1.0875                 6.6382                11.8497
 Frc consts  --      1.5336                10.3760                23.8341
 IR Inten    --     11.7742                12.0595               421.5707

                     55                     56                     57
                      A                      A                      A
 Frequencies --   3026.1363              3043.1702              3048.7382
 Red. masses --      1.0601                 1.0399                 1.0653
 Frc consts  --      5.7196                 5.6741                 5.8338
 IR Inten    --     36.8026                17.1854                24.6713

                     58                     59                     60
                      A                      A                      A
 Frequencies --   3055.5589              3061.0729              3091.8080
 Red. masses --      1.1007                 1.0619                 1.0971
 Frc consts  --      6.0548                 5.8622                 6.1792
 IR Inten    --     33.0818                37.3300                 1.8616

                     61                     62                     63
                      A                      A                      A
 Frequencies --   3107.1481              3117.8160              3121.8413
 Red. masses --      1.1039                 1.1019                 1.1022
 Frc consts  --      6.2794                 6.3110                 6.3292
 IR Inten    --     18.0806                44.0784                47.8704

                     64                     65                     66
                      A                      A                      A
 Frequencies --   3255.5407              3269.2571              3304.5096
 Red. masses --      1.0913                 1.0983                 1.1001
 Frc consts  --      6.8144                 6.9163                 7.0781
 IR Inten    --      6.0257                 5.3287                 1.6052

 - Thermochemistry -
 -------------------
 Temperature   298.150 Kelvin.  Pressure   1.00000 Atm.
 Atom     1 has atomic number  6 and mass  12.00000

 Molecular mass:   164.09496 amu.
 Principal axes and moments of inertia in atomic units:
                           1         2         3
     Eigenvalues --   907.867582812.380793262.33147
           X            0.99993   0.01074   0.00462
           Y           -0.01074   0.99994   0.00025
           Z           -0.00462  -0.00030   0.99999
 This molecule is an asymmetric top.
 Rotational symmetry number  1.
 Warning -- assumption of classical behavior for rotation
           may cause significant error
 Rotational temperatures (Kelvin)      0.09540     0.03080     0.02655
 Rotational constants (GHZ):           1.98789     0.64171     0.55321
 Zero-point vibrational energy     532825.5 (Joules/Mol)
                                  127.34834 (Kcal/Mol)
 Warning -- explicit consideration of  14 degrees of freedom as
           vibrations may cause significant error
 Vibrational temperatures:     56.12    84.13   165.01   207.92   245.77
          (Kelvin)            342.77   343.73   375.23   439.52   479.82
                              618.99   821.40   839.75   878.41   906.54
                              986.14  1035.72  1060.70  1125.84  1138.37
                             1146.82  1237.67  1244.89  1307.21  1322.58
                             1392.95  1492.01  1494.93  1520.86  1555.72
                             1589.32  1629.48  1689.16  1719.39  1761.59
                             1800.14  1860.12  1875.54  1893.83  1952.73
                             2018.61  2029.86  2063.07  2077.39  2088.62
                             2122.93  2167.65  2177.37  2184.59  2202.88
                             2210.90  2225.97  2343.47  2658.36  4353.94
                             4378.44  4386.45  4396.27  4404.20  4448.42
                             4470.49  4485.84  4491.63  4684.00  4703.73
                             4754.45

 Zero-point correction=                           0.202942 (Hartree/Particle)
 Thermal correction to Energy=                    0.213790
 Thermal correction to Enthalpy=                  0.214734
 Thermal correction to Gibbs Free Energy=         0.165552
 Sum of electronic and zero-point Energies=           -534.758955
 Sum of electronic and thermal Energies=              -534.748108
 Sum of electronic and thermal Enthalpies=            -534.747163
 Sum of electronic and thermal Free Energies=         -534.796345

                     E (Thermal)             CV                S
                      KCal/Mol        Cal/Mol-Kelvin    Cal/Mol-Kelvin
 Total                  134.155             40.873            103.512
 Electronic               0.000              0.000              0.000
 Translational            0.889              2.981             41.194
 Rotational               0.889              2.981             30.500
 Vibrational            132.378             34.912             31.817
 Vibration     1          0.594              1.981              5.309
 Vibration     2          0.596              1.974              4.508
 Vibration     3          0.608              1.937              3.188
 Vibration     4          0.616              1.909              2.743
 Vibration     5          0.626              1.878              2.426
 Vibration     6          0.656              1.782              1.816
 Vibration     7          0.657              1.781              1.811
 Vibration     8          0.669              1.744              1.656
 Vibration     9          0.696              1.663              1.387
 Vibration    10          0.715              1.609              1.243
 Vibration    11          0.791              1.404              0.858
 Vibration    12          0.927              1.094              0.503
 Vibration    13          0.941              1.067              0.479
 Vibration    14          0.970              1.010              0.432

                           ! Non-Optimized Parameters !
 Normal termination of Gaussian 16 at Wed Dec  9 17:49:34 2020.

 ----------------------------------------------------------------------
 # B3LYP/6-311++G(d,p) empiricaldispersion=gd3bj scf=xqc pop=npa geom=c
 heck
 ----------------------------------------------------------------------

 --------------------------------------
 CID_91211678_JID_2558_Energie_neutraal
 --------------------------------------
 Structure from the checkpoint file:  "JID_2558.chk"
 Charge =  0 Multiplicity = 1

 SCF Done:  E(RB3LYP) =  -535.108566796     A.U. after   14 cycles
 Normal termination of Gaussian 16 at Wed Dec  9 17:52:48 2020.

 ----------------------------------------------------------------------
 # B3LYP/6-311++G(d,p) empiricaldispersion=gd3bj scf=xqc pop=npa geom=c
 heck
 ----------------------------------------------------------------------

 ------------------------------------
 CID_91211678_JID_2558_Energie_kation
 ------------------------------------
 Structure from the checkpoint file:  "JID_2558.chk"
 Charge =  1 Multiplicity = 2

 SCF Done:  E(UB3LYP) =  -534.805728997     A.U. after   24 cycles
 Normal termination of Gaussian 16 at Wed Dec  9 17:59:02 2020.
 Gaussian 16:  ES64L-G16RevA.03 25-Dec-2016

 ----------------------------------------------------------------------
 # B3LYP/6-311++G(d,p) empiricaldispersion=gd3bj scf=xqc pop=npa geom=c
 heck
 ----------------------------------------------------------------------

 -----------------------------------
 CID_91211678_JID_2558_Energie_anion
 -----------------------------------
 Structure from the checkpoint file:  "JID_2558.chk"
 Charge = -1 Multiplicity = 2

                         Standard orientation:
 ---------------------------------------------------------------------
 Center     Atomic      Atomic             Coordinates (Angstroms)
 Number     Number       Type             X           Y           Z
 ---------------------------------------------------------------------
      1          6           0       -2.972402   -1.006463   -1.223459
      2          6           0       -3.062829    0.215475   -0.307979
      3          6           0       -2.167127    0.120872    0.933261
      4          7           0       -0.755670   -0.034237    0.617659
      5          6           0       -0.018746   -1.299230    0.697577
      6          6           0        1.346875   -0.875561    0.238424
      7          6           0        2.625340   -1.305154   -0.010993
      8          6           0        3.361880   -0.153217   -0.458358
      9          6           0        2.515561    0.934098   -0.467404
     10          7           0        1.291069    0.474696   -0.039376
     11          6           0        0.005131    1.021771    0.182752
     12          8           0       -0.332646    2.177982    0.020457
     13          1           0       -1.959259   -1.125089   -1.623566
     14          1           0       -3.652449   -0.910525   -2.076319
     15          1           0       -3.235947   -1.928321   -0.689255
     16          1           0       -2.784664    1.120623   -0.859073
     17          1           0       -4.096926    0.356357    0.033243
     18          1           0       -2.280739    1.025855    1.539424
     19          1           0       -2.455695   -0.735192    1.553877
     20          1           0       -0.026324   -1.686644    1.726097
     21          1           0       -0.472106   -2.061295    0.050503
     22          1           0        3.008635   -2.309538    0.104104
     23          1           0        4.405636   -0.138506   -0.741774
     24          1           0        2.661107    1.969655   -0.731818
 ---------------------------------------------------------------------

 SCF Done:  E(UB3LYP) =  -535.095207520     A.U. after   33 cycles
 SCF Done:  E(UB3LYP) =  -535.095207520     a.u. after    1 cycles

 The electronic state is 2-A.
 Alpha  occ. eigenvalues --  -19.00271 -14.27370 -14.25040 -10.20974 -10.12589
 Alpha  occ. eigenvalues --  -10.11220 -10.10678 -10.10576 -10.07577 -10.07150
 Alpha  occ. eigenvalues --  -10.06728 -10.05676  -0.97423  -0.90671  -0.84591
 Alpha  occ. eigenvalues --   -0.71393  -0.68850  -0.65596  -0.60490  -0.59320
 Alpha  occ. eigenvalues --   -0.52815  -0.50158  -0.48118  -0.45207  -0.40921
 Alpha  occ. eigenvalues --   -0.40667  -0.37944  -0.37176  -0.34584  -0.34114
 Alpha  occ. eigenvalues --   -0.32879  -0.32418  -0.31633  -0.30676  -0.29835
 Alpha  occ. eigenvalues --   -0.29089  -0.28737  -0.25330  -0.24851  -0.23980
 Alpha  occ. eigenvalues --   -0.18736  -0.17029  -0.14707  -0.12844   0.04574
 Alpha virt. eigenvalues --    0.06765   0.07593   0.07739   0.08489   0.09065
 Alpha virt. eigenvalues --    0.09526   0.10417   0.10767   0.11751   0.12093
 Alpha virt. eigenvalues --    0.12628   0.13090   0.14116   0.15056   0.15768

  Beta  occ. eigenvalues --  -19.00257 -14.27369 -14.25044 -10.20957 -10.12541
  Beta  occ. eigenvalues --  -10.11212 -10.10650 -10.10568 -10.07573 -10.07135
  Beta  occ. eigenvalues --  -10.06712 -10.05633  -0.97400  -0.90654  -0.84579
  Beta  occ. eigenvalues --   -0.71367  -0.68811  -0.65557  -0.60435  -0.59264
  Beta  occ. eigenvalues --   -0.52764  -0.50107  -0.48075  -0.45169  -0.40850
  Beta  occ. eigenvalues --   -0.40618  -0.37907  -0.37144  -0.34553  -0.34077
  Beta  occ. eigenvalues --   -0.32833  -0.32362  -0.31599  -0.30649  -0.29778
  Beta  occ. eigenvalues --   -0.29053  -0.28689  -0.25282  -0.24794  -0.23936
  Beta  occ. eigenvalues --   -0.18721  -0.16988  -0.14690  -0.12791
  Beta virt. eigenvalues --    0.06913   0.07495   0.08027   0.08491   0.09100
  Beta virt. eigenvalues --    0.09464   0.10100   0.11032   0.11403   0.12166
  Beta virt. eigenvalues --    0.12716   0.13035   0.13453   0.14154   0.15273

 Mulliken charges and spin densities:
               1          2
     1  C    1.458486  -2.046589
     2  C   -1.208963   1.084708
     3  C    0.812813  -1.021291
     4  N   -0.364571   0.236480
     5  C    3.052730  -4.157244
     6  C    0.281782  -0.453366
     7  C   -2.192743   2.795675
     8  C    1.024731  -1.504415
     9  C   -0.572110   0.707713
    10  N    0.033688   0.135814
    11  C    0.303103  -0.095111
    12  O   -0.383753   0.017046
    13  H   -0.091986   0.245674
    14  H   -0.352646   0.485136
    15  H   -0.296548   0.455561
    16  H    0.137254   0.030327
    17  H   -0.417073   0.562644
    18  H   -0.029641   0.220280
    19  H   -0.614810   0.788487
    20  H   -0.729200   0.945656
    21  H   -0.016060   0.232758
    22  H   -0.914542   1.096992
    23  H   -0.007603   0.156996
    24  H    0.087662   0.080068
 Sum of Mulliken charges =  -1.00000   1.00000

 Dipole moment (field-independent basis, Debye):
    X=              4.3498    Y=              4.9485    Z=             -2.3382  Tot=              6.9911
 Quadrupole moment (field-independent basis, Debye-Ang):
   XX=           -133.3779   YY=           -119.5249   ZZ=           -107.9861
   XY=             -2.2134   XZ=             -1.5062   YZ=              5.3872

 Summary of Natural Population Analysis:

                                       Natural Population
                Natural  -----------------------------------------------
    Atom  No    Charge         Core      Valence    Rydberg      Total
 -----------------------------------------------------------------------
      C    1   -0.28812      0.99967     2.28317    0.00528     3.28812
      C    2   -0.19579      0.99963     2.18781    0.00834     3.19579
      C    3   -0.08179      0.99961     2.06977    0.01241     3.08179
      N    4   -0.25427      0.99965     2.74288    0.01174     3.75427
      C    5   -0.08587      0.99958     2.07647    0.00982     3.08587
      C    6    0.08214      0.99955     1.90510    0.01321     2.91786
      C    7   -0.14183      0.99951     2.13300    0.00932     3.14183
      C    8   -0.13449      0.99958     2.12585    0.00905     3.13449
      C    9   -0.02074      0.99957     2.00972    0.01144     3.02074
      N   10   -0.22025      0.99957     2.71122    0.00946     3.72025
      C   11    0.42134      0.99964     1.55590    0.02311     2.57866
      O   12   -0.31852      0.99987     3.31378    0.00487     4.31852
      H   13    0.09591      0.00000     0.40271    0.00139     0.40409
      H   14    0.10014      0.00000     0.39878    0.00109     0.39986
      H   15    0.09988      0.00000     0.39811    0.00201     0.40012
      H   16    0.10059      0.00000     0.39830    0.00111     0.39941
      H   17    0.09786      0.00000     0.40087    0.00127     0.40214
      H   18    0.10400      0.00000     0.39485    0.00115     0.39600
      H   19    0.10227      0.00000     0.39480    0.00293     0.39773
      H   20    0.11138      0.00000     0.38349    0.00513     0.38862
      H   21    0.10865      0.00000     0.38924    0.00211     0.39135
      H   22    0.10931      0.00000     0.38932    0.00137     0.39069
      H   23    0.10234      0.00000     0.39702    0.00064     0.39766
      H   24    0.10586      0.00000     0.39322    0.00092     0.39414
 =======================================================================
   * Total *   -0.00000     11.99545    31.85538    0.14918    44.00000

 Normal termination of Gaussian 16 at Wed Dec  9 18:09:13 2020.
