 Gaussian 16, Revision A.03,

 -----------------------------------------------------------
 # opt freq B3LYP/6-31G(d) empiricaldispersion=gd3bj scf=xqc
 -----------------------------------------------------------

 ------------------------------
 CID_118210559_JID_600_neutraal
 ------------------------------
 Symbolic Z-matrix:
 Charge =  0 Multiplicity = 1

 SCF Done:  E(RB3LYP) =  -782.823374731     A.U. after   13 cycles
 SCF Done:  E(RB3LYP) =  -782.831766609     A.U. after   11 cycles
 SCF Done:  E(RB3LYP) =  -782.832589876     A.U. after   10 cycles
 SCF Done:  E(RB3LYP) =  -782.832988468     A.U. after   10 cycles
 SCF Done:  E(RB3LYP) =  -782.832822905     A.U. after   10 cycles
 SCF Done:  E(RB3LYP) =  -782.833115983     A.U. after   10 cycles
 SCF Done:  E(RB3LYP) =  -782.833128234     A.U. after    8 cycles
 SCF Done:  E(RB3LYP) =  -782.833129945     A.U. after    8 cycles
 SCF Done:  E(RB3LYP) =  -782.833130156     A.U. after    7 cycles
 SCF Done:  E(RB3LYP) =  -782.833130215     A.U. after    6 cycles
 Optimization completed.
    -- Stationary point found.
 Normal termination of Gaussian 16 at Tue Dec  8 12:16:34 2020.

 --------------------------------------------------------------------
 #N Geom=AllCheck Guess=TCheck SCRF=Check GenChk RB3LYP/6-31G(d) Freq
 --------------------------------------------------------------------

 Structure from the checkpoint file:  "JID_600.chk"
 ------------------------------
 CID_118210559_JID_600_neutraal
 ------------------------------
 Charge =  0 Multiplicity = 1

 SCF Done:  E(RB3LYP) =  -782.833130215     A.U. after    1 cycles

  Exact polarizability: 110.205  -2.612 103.954   3.403  -0.873  81.190
 Approx polarizability: 156.327  -5.106 149.398   8.220  -2.806 129.129

                      1                      2                      3
                      A                      A                      A
 Frequencies --    125.1201               168.8407               208.9437
 Red. masses --      3.1656                 2.5936                 2.6159
 Frc consts  --      0.0292                 0.0436                 0.0673
 IR Inten    --      1.9028                 3.7848                 5.0202

                      4                      5                      6
                      A                      A                      A
 Frequencies --    254.9506               276.1171               309.2084
 Red. masses --      2.3167                 4.1029                 3.0329
 Frc consts  --      0.0887                 0.1843                 0.1708
 IR Inten    --      0.3679                 0.6947                 3.3817

                      7                      8                      9
                      A                      A                      A
 Frequencies --    331.6263               352.2765               442.8640
 Red. masses --      2.9599                 3.0378                 4.4123
 Frc consts  --      0.1918                 0.2221                 0.5099
 IR Inten    --      5.4070                 3.4716                 1.5494

                     10                     11                     12
                      A                      A                      A
 Frequencies --    486.0808               516.6966               564.2319
 Red. masses --      1.9828                 3.2535                 2.3703
 Frc consts  --      0.2760                 0.5118                 0.4446
 IR Inten    --      7.5900                 0.6299                 2.1178

                     13                     14                     15
                      A                      A                      A
 Frequencies --    619.7400               643.2581               691.2518
 Red. masses --      3.8971                 2.2710                 2.1057
 Frc consts  --      0.8819                 0.5537                 0.5928
 IR Inten    --      0.7898                35.7670               138.9562

                     16                     17                     18
                      A                      A                      A
 Frequencies --    709.4828               793.7840               858.7418
 Red. masses --      3.4236                 2.0610                 2.0997
 Frc consts  --      1.0153                 0.7651                 0.9123
 IR Inten    --      7.1559                 2.2059                12.5564

                     19                     20                     21
                      A                      A                      A
 Frequencies --    890.1716               897.4571               929.7569
 Red. masses --      2.9982                 1.9423                 3.4590
 Frc consts  --      1.3998                 0.9217                 1.7617
 IR Inten    --      1.2875                31.4415                11.4248

                     22                     23                     24
                      A                      A                      A
 Frequencies --    934.3684               943.7563               967.1235
 Red. masses --      2.2064                 2.3561                 1.8688
 Frc consts  --      1.1349                 1.2364                 1.0299
 IR Inten    --      3.5079                18.4470                 3.3448

                     25                     26                     27
                      A                      A                      A
 Frequencies --   1001.2015              1021.8000              1054.3699
 Red. masses --      1.6535                 1.7798                 1.6299
 Frc consts  --      0.9766                 1.0948                 1.0676
 IR Inten    --      6.7220                16.6497                 0.0999

                     28                     29                     30
                      A                      A                      A
 Frequencies --   1090.8004              1110.8192              1147.0118
 Red. masses --      2.1529                 3.1688                 1.9687
 Frc consts  --      1.5093                 2.3037                 1.5261
 IR Inten    --     23.0934                25.2056                19.9706

                     31                     32                     33
                      A                      A                      A
 Frequencies --   1165.6516              1185.3344              1209.9312
 Red. masses --      1.4239                 1.5557                 1.2006
 Frc consts  --      1.1399                 1.2879                 1.0355
 IR Inten    --      1.0113                 2.4079                 0.9302

                     34                     35                     36
                      A                      A                      A
 Frequencies --   1222.8885              1259.1104              1271.3318
 Red. masses --      1.3376                 1.6648                 1.2138
 Frc consts  --      1.1786                 1.5550                 1.1559
 IR Inten    --      5.0319                 3.2968                 3.1318

                     37                     38                     39
                      A                      A                      A
 Frequencies --   1289.8625              1315.9197              1327.8941
 Red. masses --      1.2839                 1.3709                 1.1995
 Frc consts  --      1.2586                 1.3986                 1.2462
 IR Inten    --     42.7642                 2.9962                 7.5458

                     40                     41                     42
                      A                      A                      A
 Frequencies --   1335.0829              1350.0724              1367.4164
 Red. masses --      1.3156                 1.1824                 1.2987
 Frc consts  --      1.3816                 1.2698                 1.4307
 IR Inten    --     10.5357                 4.5889                 0.3281

                     43                     44                     45
                      A                      A                      A
 Frequencies --   1392.6316              1397.5672              1451.5825
 Red. masses --      1.3708                 1.2082                 1.4509
 Frc consts  --      1.5663                 1.3904                 1.8013
 IR Inten    --      2.0711                19.0029                 6.8033

                     46                     47                     48
                      A                      A                      A
 Frequencies --   1487.7720              1501.1995              1526.9563
 Red. masses --      1.0817                 1.0828                 1.0997
 Frc consts  --      1.4106                 1.4377                 1.5107
 IR Inten    --     10.7442                 2.7300                 7.0767

                     49                     50                     51
                      A                      A                      A
 Frequencies --   1528.3832              1531.6188              1539.9860
 Red. masses --      1.1014                 1.0949                 1.1249
 Frc consts  --      1.5159                 1.5134                 1.5719
 IR Inten    --      4.0811                 2.8492                10.8420

                     52                     53                     54
                      A                      A                      A
 Frequencies --   1542.4006              3037.3713              3040.4489
 Red. masses --      1.1383                 1.0634                 1.0658
 Frc consts  --      1.5956                 5.7800                 5.8051
 IR Inten    --      1.1159                46.2156                 8.5089

                     55                     56                     57
                      A                      A                      A
 Frequencies --   3047.1848              3054.8670              3071.5902
 Red. masses --      1.0626                 1.0661                 1.0725
 Frc consts  --      5.8132                 5.8620                 5.9616
 IR Inten    --     51.2033                44.6200                13.9025

                     58                     59                     60
                      A                      A                      A
 Frequencies --   3087.8836              3089.6297              3093.4060
 Red. masses --      1.1022                 1.1013                 1.1038
 Frc consts  --      6.1920                 6.1941                 6.2231
 IR Inten    --     33.3150                42.4930                 8.6529

                     61                     62                     63
                      A                      A                      A
 Frequencies --   3112.7250              3115.6572              3130.0138
 Red. masses --      1.0843                 1.0863                 1.0936
 Frc consts  --      6.1900                 6.2131                 6.3124
 IR Inten    --     13.8735                46.8258                21.7006

                     64                     65                     66
                      A                      A                      A
 Frequencies --   3200.2281              3476.3695              3509.8461
 Red. masses --      1.0910                 1.0749                 1.0745
 Frc consts  --      6.5832                 7.6539                 7.7988
 IR Inten    --     15.6236                 2.5466                 0.2182

 - Thermochemistry -
 -------------------
 Temperature   298.150 Kelvin.  Pressure   1.00000 Atm.
 Atom     1 has atomic number  6 and mass  12.00000

 Molecular mass:   158.08777 amu.
 Principal axes and moments of inertia in atomic units:
                           1         2         3
     Eigenvalues --  1254.201611445.196522318.48064
           X            0.99113  -0.13288   0.00246
           Y            0.13288   0.99113   0.00076
           Z           -0.00254  -0.00042   1.00000
 This molecule is an asymmetric top.
 Rotational symmetry number  1.
 Warning -- assumption of classical behavior for rotation
           may cause significant error
 Rotational temperatures (Kelvin)      0.06906     0.05993     0.03736
 Rotational constants (GHZ):           1.43896     1.24879     0.77842
 Zero-point vibrational energy     565891.5 (Joules/Mol)
                                  135.25131 (Kcal/Mol)
 Warning -- explicit consideration of  13 degrees of freedom as
           vibrations may cause significant error
 Vibrational temperatures:    180.02   242.92   300.62   366.82   397.27
          (Kelvin)            444.88   477.14   506.85   637.18   699.36
                              743.41   811.80   891.67   925.50   994.56
                             1020.79  1142.08  1235.54  1280.76  1291.24
                             1337.71  1344.35  1357.85  1391.48  1440.51
                             1470.14  1517.00  1569.42  1598.22  1650.29
                             1677.11  1705.43  1740.82  1759.46  1811.58
                             1829.16  1855.82  1893.31  1910.54  1920.89
                             1942.45  1967.41  2003.69  2010.79  2088.50
                             2140.57  2159.89  2196.95  2199.00  2203.66
                             2215.70  2219.17  4370.10  4374.53  4384.22
                             4395.27  4419.33  4442.78  4445.29  4450.72
                             4478.52  4482.74  4503.39  4604.41  5001.72
                             5049.89

 Zero-point correction=                           0.215537 (Hartree/Particle)
 Thermal correction to Energy=                    0.224519
 Thermal correction to Enthalpy=                  0.225463
 Thermal correction to Gibbs Free Energy=         0.181954
 Sum of electronic and zero-point Energies=           -782.617594
 Sum of electronic and thermal Energies=              -782.608612
 Sum of electronic and thermal Enthalpies=            -782.607667
 Sum of electronic and thermal Free Energies=         -782.651176

                     E (Thermal)             CV                S
                      KCal/Mol        Cal/Mol-Kelvin    Cal/Mol-Kelvin
 Total                  140.888             37.098             91.572
 Electronic               0.000              0.000              0.000
 Translational            0.889              2.981             41.083
 Rotational               0.889              2.981             29.820
 Vibrational            139.110             31.136             20.669
 Vibration     1          0.610              1.928              3.020
 Vibration     2          0.625              1.881              2.448
 Vibration     3          0.642              1.827              2.053
 Vibration     4          0.665              1.754              1.696
 Vibration     5          0.678              1.718              1.558
 Vibration     6          0.699              1.656              1.367
 Vibration     7          0.714              1.612              1.252
 Vibration     8          0.729              1.571              1.156
 Vibration     9          0.802              1.377              0.818
 Vibration    10          0.842              1.281              0.694
 Vibration    11          0.872              1.213              0.618
 Vibration    12          0.920              1.109              0.515
 Vibration    13          0.980              0.990              0.417

 Optimization completed.
    -- Stationary point found.
 Normal termination of Gaussian 16 at Tue Dec  8 12:22:12 2020.

 ----------------------------------------------------------------------
 # B3LYP/6-311++G(d,p) empiricaldispersion=gd3bj scf=xqc pop=npa geom=c
 heck
 ----------------------------------------------------------------------

 --------------------------------------
 CID_118210559_JID_600_Energie_neutraal
 --------------------------------------
 Structure from the checkpoint file:  "JID_600.chk"
 Charge =  0 Multiplicity = 1

 SCF Done:  E(RB3LYP) =  -782.973698557     A.U. after   13 cycles
 Normal termination of Gaussian 16 at Tue Dec  8 12:25:35 2020.

 ----------------------------------------------------------------------
 # B3LYP/6-311++G(d,p) empiricaldispersion=gd3bj scf=xqc pop=npa geom=c
 heck
 ----------------------------------------------------------------------

 ------------------------------------
 CID_118210559_JID_600_Energie_kation
 ------------------------------------
 Structure from the checkpoint file:  "JID_600.chk"
 Charge =  1 Multiplicity = 2

 SCF Done:  E(UB3LYP) =  -782.682592910     A.U. after   23 cycles
 Normal termination of Gaussian 16 at Tue Dec  8 12:32:29 2020.
 Gaussian 16:  ES64L-G16RevA.03 25-Dec-2016

 ----------------------------------------------------------------------
 # B3LYP/6-311++G(d,p) empiricaldispersion=gd3bj scf=xqc pop=npa geom=c
 heck
 ----------------------------------------------------------------------

 -----------------------------------
 CID_118210559_JID_600_Energie_anion
 -----------------------------------
 Structure from the checkpoint file:  "JID_600.chk"
 Charge = -1 Multiplicity = 2

                         Standard orientation:
 ---------------------------------------------------------------------
 Center     Atomic      Atomic             Coordinates (Angstroms)
 Number     Number       Type             X           Y           Z
 ---------------------------------------------------------------------
      1          6           0       -2.049155    0.800949    0.235048
      2          6           0       -0.945288    1.604434   -0.559352
      3         16           0        0.851185    1.869221   -0.056569
      4          6           0        1.622401    0.269708    0.540419
      5          6           0        0.521804   -0.523044    1.212736
      6          6           0       -0.047371   -1.163591   -0.058012
      7          6           0       -1.459545   -1.700629    0.108542
      8          7           0       -2.404081   -0.580401   -0.132455
      9          7           0        1.159366   -1.897572   -0.488419
     10          6           0        2.149993   -0.764272   -0.513961
     11          1           0       -2.968498    1.372370    0.055727
     12          1           0       -1.872768    0.860278    1.311041
     13          1           0       -0.970191    1.284672   -1.607220
     14          1           0       -1.258682    2.655425   -0.551133
     15          1           0        2.420656    0.627163    1.195441
     16          1           0        0.914602   -1.331705    1.840042
     17          1           0       -0.155792    0.084865    1.805403
     18          1           0       -0.191881   -0.387679   -0.809309
     19          1           0       -1.621180   -2.115188    1.111551
     20          1           0       -1.704768   -2.491077   -0.609263
     21          1           0       -2.664981   -0.584114   -1.115051
     22          1           0        1.038059   -2.251654   -1.436815
     23          1           0        3.141843   -1.130552   -0.228000
     24          1           0        2.230585   -0.295853   -1.503713
 ---------------------------------------------------------------------

 SCF Done:  E(UB3LYP) =  -782.958695895     A.U. after   29 cycles

 The electronic state is 2-A.
 Alpha  occ. eigenvalues --  -88.72910 -14.19004 -14.18921 -10.10431 -10.09552
 Alpha  occ. eigenvalues --  -10.09308 -10.09126 -10.08533 -10.08208 -10.06266
 Alpha  occ. eigenvalues --   -7.81445  -5.77867  -5.77464  -5.76816  -0.82240
 Alpha  occ. eigenvalues --   -0.78841  -0.69538  -0.65683  -0.62373  -0.59149
 Alpha  occ. eigenvalues --   -0.53728  -0.49384  -0.47824  -0.45444  -0.40961
 Alpha  occ. eigenvalues --   -0.38356  -0.37277  -0.34513  -0.32949  -0.31377
 Alpha  occ. eigenvalues --   -0.30359  -0.29147  -0.28698  -0.27292  -0.26125
 Alpha  occ. eigenvalues --   -0.25818  -0.24366  -0.22112  -0.20909  -0.19574
 Alpha  occ. eigenvalues --   -0.13004  -0.11793  -0.11155   0.04984
 Alpha virt. eigenvalues --    0.07342   0.07801   0.08699   0.09697   0.10225
 Alpha virt. eigenvalues --    0.10419   0.10785   0.11233   0.12145   0.13020
 Alpha virt. eigenvalues --    0.13483   0.14081   0.14811   0.15000   0.16179

  Beta  occ. eigenvalues --  -88.72905 -14.18970 -14.18889 -10.10429 -10.09528
  Beta  occ. eigenvalues --  -10.09270 -10.09105 -10.08511 -10.08197 -10.06255
  Beta  occ. eigenvalues --   -7.81441  -5.77865  -5.77450  -5.76813  -0.82202
  Beta  occ. eigenvalues --   -0.78779  -0.69496  -0.65632  -0.62322  -0.59100
  Beta  occ. eigenvalues --   -0.53661  -0.49296  -0.47755  -0.45405  -0.40897
  Beta  occ. eigenvalues --   -0.38302  -0.37195  -0.34472  -0.32901  -0.31339
  Beta  occ. eigenvalues --   -0.30310  -0.29100  -0.28645  -0.27235  -0.26075
  Beta  occ. eigenvalues --   -0.25775  -0.24331  -0.22061  -0.20880  -0.19535
  Beta  occ. eigenvalues --   -0.12964  -0.11747  -0.11121
  Beta virt. eigenvalues --    0.07324   0.08242   0.08943   0.08980   0.10424
  Beta virt. eigenvalues --    0.10537   0.10693   0.11129   0.11765   0.12573
  Beta virt. eigenvalues --    0.13255   0.13965   0.14380   0.15141   0.15503

 Mulliken charges and spin densities:
               1          2
     1  C    0.548409  -1.013307
     2  C   -0.032195  -0.345393
     3  S    0.014586  -0.224420
     4  C   -0.747755   1.216991
     5  C    0.380043  -0.956567
     6  C   -1.193319   1.310444
     7  C    1.691583  -2.524591
     8  N   -0.235013   0.160040
     9  N   -0.325241   0.206985
    10  C    0.419920  -1.084316
    11  H   -0.629891   0.847214
    12  H    0.138235   0.002222
    13  H   -0.301475   0.525606
    14  H   -0.126855   0.293675
    15  H    0.113257   0.147195
    16  H    0.138765   0.054702
    17  H   -0.005276   0.094062
    18  H    0.454561  -0.187746
    19  H    0.122725   0.031518
    20  H   -0.547668   0.731947
    21  H   -0.218006   0.479094
    22  H   -0.276098   0.519129
    23  H   -0.052300   0.217011
    24  H   -0.330991   0.498505
 Sum of Mulliken charges =  -1.00000   1.00000

 Dipole moment (field-independent basis, Debye):
    X=              3.7759    Y=              1.6665    Z=              5.8779  Tot=              7.1822
 Quadrupole moment (field-independent basis, Debye-Ang):
   XX=           -118.5264   YY=           -115.1851   ZZ=           -104.8605
   XY=              3.6769   XZ=             -3.9852   YZ=             -5.1799

 Summary of Natural Population Analysis:

                                       Natural Population
                Natural  -----------------------------------------------
    Atom  No    Charge         Core      Valence    Rydberg      Total
 -----------------------------------------------------------------------
      C    1   -0.09693      0.99959     2.08408    0.01326     3.09693
      C    2   -0.26948      0.99955     2.25836    0.01156     3.26948
      S    3    0.07362      4.99963     2.91056    0.01619     7.92638
      C    4   -0.16445      0.99956     2.15232    0.01258     3.16445
      C    5   -0.19966      0.99957     2.19227    0.00782     3.19966
      C    6   -0.03567      0.99955     2.02002    0.01611     3.03567
      C    7   -0.08246      0.99958     2.07028    0.01261     3.08246
      N    8   -0.33943      0.99976     2.82672    0.01296     3.83943
      N    9   -0.34058      0.99974     2.82880    0.01203     3.84058
      C   10   -0.09490      0.99960     2.08320    0.01210     3.09490
      H   11    0.10391      0.00000     0.39449    0.00160     0.39609
      H   12    0.09130      0.00000     0.40744    0.00125     0.40870
      H   13    0.10463      0.00000     0.39250    0.00287     0.39537
      H   14    0.10906      0.00000     0.38954    0.00140     0.39094
      H   15    0.10532      0.00000     0.39377    0.00091     0.39468
      H   16    0.10537      0.00000     0.39330    0.00133     0.39463
      H   17    0.10442      0.00000     0.39424    0.00134     0.39558
      H   18    0.08908      0.00000     0.40570    0.00522     0.41092
      H   19    0.08656      0.00000     0.41202    0.00141     0.41344
      H   20    0.10286      0.00000     0.39550    0.00164     0.39714
      H   21    0.17883      0.00000     0.31377    0.00740     0.32117
      H   22    0.18098      0.00000     0.31421    0.00481     0.31902
      H   23    0.09238      0.00000     0.40639    0.00123     0.40762
      H   24    0.09524      0.00000     0.40262    0.00214     0.40476
 =======================================================================
   * Total *    0.00000     13.99612    28.84211    0.16177    43.00000

 Normal termination of Gaussian 16 at Tue Dec  8 12:39:40 2020.
