 Gaussian 16, Revision A.03,

 -----------------------------------------------------------
 # opt freq B3LYP/6-31G(d) empiricaldispersion=gd3bj scf=xqc
 -----------------------------------------------------------

 -------------------------------
 CID_136139932_JID_9335_neutraal
 -------------------------------
 Symbolic Z-matrix:
 Charge =  0 Multiplicity = 1

 SCF Done:  E(RB3LYP) =  -1147.95580437     A.U. after   14 cycles
 SCF Done:  E(RB3LYP) =  -1147.95930640     A.U. after   12 cycles
 SCF Done:  E(RB3LYP) =  -1147.95573106     A.U. after   14 cycles
 SCF Done:  E(RB3LYP) =  -1147.95986225     A.U. after   12 cycles
 SCF Done:  E(RB3LYP) =  -1147.96085022     A.U. after   12 cycles
 SCF Done:  E(RB3LYP) =  -1147.96127872     A.U. after   11 cycles
 SCF Done:  E(RB3LYP) =  -1147.96136765     A.U. after   11 cycles
 SCF Done:  E(RB3LYP) =  -1147.96138539     A.U. after   10 cycles
 SCF Done:  E(RB3LYP) =  -1147.96139499     A.U. after    9 cycles
 SCF Done:  E(RB3LYP) =  -1147.96139795     A.U. after    8 cycles
 SCF Done:  E(RB3LYP) =  -1147.96139886     A.U. after    8 cycles
 SCF Done:  E(RB3LYP) =  -1147.96139939     A.U. after    7 cycles
 SCF Done:  E(RB3LYP) =  -1147.96139950     A.U. after    7 cycles
 Optimization completed.
    -- Stationary point found.
 Normal termination of Gaussian 16 at Mon Dec 14 13:28:56 2020.

 --------------------------------------------------------------------
 #N Geom=AllCheck Guess=TCheck SCRF=Check GenChk RB3LYP/6-31G(d) Freq
 --------------------------------------------------------------------

 Structure from the checkpoint file:  "JID_9335.chk"
 -------------------------------
 CID_136139932_JID_9335_neutraal
 -------------------------------
 Charge =  0 Multiplicity = 1

 SCF Done:  E(RB3LYP) =  -1147.96139950     A.U. after    1 cycles

  Exact polarizability: 211.336   2.067 212.082 -13.544  11.433 142.410
 Approx polarizability: 291.370   6.647 325.390 -22.218  15.874 228.742

                      1                      2                      3
                      A                      A                      A
 Frequencies --     19.5781                26.8293                36.6455
 Red. masses --      4.6963                 3.6097                 3.4827
 Frc consts  --      0.0011                 0.0015                 0.0028
 IR Inten    --      0.0124                 0.0629                 0.1159

                      4                      5                      6
                      A                      A                      A
 Frequencies --     47.4317                60.3653                73.8864
 Red. masses --      4.2830                 3.8266                 5.9172
 Frc consts  --      0.0057                 0.0082                 0.0190
 IR Inten    --      0.5206                 0.5695                 0.4948

                      7                      8                      9
                      A                      A                      A
 Frequencies --    112.4559               141.3800               144.2357
 Red. masses --      3.3441                 2.8870                 4.8333
 Frc consts  --      0.0249                 0.0340                 0.0592
 IR Inten    --      0.6148                 2.3410                 0.0360

                     10                     11                     12
                      A                      A                      A
 Frequencies --    150.2281               187.6405               216.0304
 Red. masses --      2.6770                 2.2189                 1.8639
 Frc consts  --      0.0356                 0.0460                 0.0513
 IR Inten    --      0.8495                 0.3892                 4.2736

                     13                     14                     15
                      A                      A                      A
 Frequencies --    242.8665               262.4463               283.2205
 Red. masses --      1.8983                 3.5774                 1.4856
 Frc consts  --      0.0660                 0.1452                 0.0702
 IR Inten    --      0.3351                 0.4564                 1.2893

                     16                     17                     18
                      A                      A                      A
 Frequencies --    301.4979               321.3837               328.8846
 Red. masses --      2.7433                 2.3059                 2.8498
 Frc consts  --      0.1469                 0.1403                 0.1816
 IR Inten    --      0.5287                 0.2180                 0.5407

                     19                     20                     21
                      A                      A                      A
 Frequencies --    351.9550               416.1237               417.9318
 Red. masses --      2.3951                 3.3193                 3.0115
 Frc consts  --      0.1748                 0.3386                 0.3099
 IR Inten    --      0.4892                 7.0313                 0.2081

                     22                     23                     24
                      A                      A                      A
 Frequencies --    443.7985               449.8141               485.0424
 Red. masses --      2.6932                 2.7870                 2.4056
 Frc consts  --      0.3125                 0.3322                 0.3334
 IR Inten    --      1.3639                 1.0275                 1.8927

                     25                     26                     27
                      A                      A                      A
 Frequencies --    493.0858               501.6335               534.5681
 Red. masses --      3.0460                 1.7410                 3.1557
 Frc consts  --      0.4363                 0.2581                 0.5313
 IR Inten    --     14.6840                41.5628                34.1105

                     28                     29                     30
                      A                      A                      A
 Frequencies --    556.0894               597.0209               635.9271
 Red. masses --      2.7417                 3.5157                 4.5644
 Frc consts  --      0.4995                 0.7383                 1.0875
 IR Inten    --      6.0854                 9.2318                 2.1174

                     31                     32                     33
                      A                      A                      A
 Frequencies --    640.2123               670.7763               718.9629
 Red. masses --      4.6773                 3.5425                 1.7723
 Frc consts  --      1.1295                 0.9391                 0.5398
 IR Inten    --      2.6850                34.7584                24.8224

                     34                     35                     36
                      A                      A                      A
 Frequencies --    736.8774               749.7499               761.9031
 Red. masses --      4.2450                 3.9802                 3.4210
 Frc consts  --      1.3581                 1.3182                 1.1700
 IR Inten    --     16.6657                 9.4083                 7.9121

                     37                     38                     39
                      A                      A                      A
 Frequencies --    775.0172               831.9148               837.7893
 Red. masses --      1.9555                 1.1351                 3.8494
 Frc consts  --      0.6920                 0.4629                 1.5919
 IR Inten    --     21.6032                 4.1791                 0.3704

                     40                     41                     42
                      A                      A                      A
 Frequencies --    863.6466               867.2953               904.1494
 Red. masses --      1.2511                 2.7005                 1.6659
 Frc consts  --      0.5498                 1.1968                 0.8024
 IR Inten    --      0.3304                 5.9670                 3.5898

                     43                     44                     45
                      A                      A                      A
 Frequencies --    912.6197               924.2001               941.9610
 Red. masses --      1.7321                 1.6460                 2.0662
 Frc consts  --      0.8500                 0.8283                 1.0802
 IR Inten    --      2.2380                10.2557                13.0033

                     46                     47                     48
                      A                      A                      A
 Frequencies --    970.7061               998.3926              1005.6043
 Red. masses --      1.3493                 1.2518                 2.3106
 Frc consts  --      0.7491                 0.7352                 1.3767
 IR Inten    --      0.3239                 0.2024                 2.6237

                     49                     50                     51
                      A                      A                      A
 Frequencies --   1008.8973              1021.9880              1047.2134
 Red. masses --      1.8592                 6.2383                 3.1635
 Frc consts  --      1.1150                 3.8389                 2.0440
 IR Inten    --     11.6530                 0.7061                 1.2378

                     52                     53                     54
                      A                      A                      A
 Frequencies --   1060.9004              1068.4086              1076.7602
 Red. masses --      2.2389                 2.4774                 2.2805
 Frc consts  --      1.4847                 1.6662                 1.5578
 IR Inten    --      2.2114                13.3269                23.4023

                     55                     56                     57
                      A                      A                      A
 Frequencies --   1099.5208              1101.9513              1114.4993
 Red. masses --      2.4998                 1.5686                 1.7132
 Frc consts  --      1.7806                 1.1222                 1.2538
 IR Inten    --     14.9132                12.1573                 3.6234

                     58                     59                     60
                      A                      A                      A
 Frequencies --   1138.7556              1144.2907              1166.2889
 Red. masses --      1.6115                 1.6496                 1.6634
 Frc consts  --      1.2312                 1.2726                 1.3331
 IR Inten    --      4.3788                20.3677                15.8794

                     61                     62                     63
                      A                      A                      A
 Frequencies --   1192.2942              1194.8081              1214.7985
 Red. masses --      1.6565                 1.0985                 1.6870
 Frc consts  --      1.3875                 0.9239                 1.4668
 IR Inten    --      4.0876                 0.1103                 6.1341

                     64                     65                     66
                      A                      A                      A
 Frequencies --   1215.6936              1218.2961              1236.4618
 Red. masses --      1.2579                 2.7603                 2.4456
 Frc consts  --      1.0953                 2.4139                 2.2029
 IR Inten    --      9.2819                88.0424                 0.0921

                     67                     68                     69
                      A                      A                      A
 Frequencies --   1240.9147              1273.0940              1276.7255
 Red. masses --      1.3251                 1.3654                 1.4278
 Frc consts  --      1.2022                 1.3039                 1.3713
 IR Inten    --     12.8409                 4.4120                17.7333

                     70                     71                     72
                      A                      A                      A
 Frequencies --   1289.2029              1341.9700              1348.1051
 Red. masses --      1.5873                 1.3361                 1.3183
 Frc consts  --      1.5544                 1.4177                 1.4116
 IR Inten    --     28.2993                16.4977                13.8420

                     73                     74                     75
                      A                      A                      A
 Frequencies --   1361.2607              1363.5361              1370.9096
 Red. masses --      1.5231                 3.7415                 1.3170
 Frc consts  --      1.6629                 4.0985                 1.4583
 IR Inten    --      4.2452                 0.2634                 1.0486

                     76                     77                     78
                      A                      A                      A
 Frequencies --   1384.0727              1393.4334              1402.6570
 Red. masses --      1.5059                 1.2647                 1.2971
 Frc consts  --      1.6997                 1.4468                 1.5036
 IR Inten    --     16.5419                52.9124                26.1616

                     79                     80                     81
                      A                      A                      A
 Frequencies --   1418.5194              1423.5362              1446.1140
 Red. masses --      1.2527                 1.2629                 1.3639
 Frc consts  --      1.4851                 1.5079                 1.6805
 IR Inten    --      8.5652                10.0460                25.1838

                     82                     83                     84
                      A                      A                      A
 Frequencies --   1450.6968              1483.8634              1503.5732
 Red. masses --      1.5373                 1.1677                 1.8843
 Frc consts  --      1.9062                 1.5148                 2.5099
 IR Inten    --     43.6568                 2.9673                 5.5118

                     85                     86                     87
                      A                      A                      A
 Frequencies --   1506.3575              1508.8145              1514.4419
 Red. masses --      1.1085                 1.1792                 1.0657
 Frc consts  --      1.4819                 1.5816                 1.4402
 IR Inten    --      5.5117                 1.9945                 8.2755

                     88                     89                     90
                      A                      A                      A
 Frequencies --   1515.3471              1526.9211              1531.5433
 Red. masses --      1.1057                 1.0533                 1.0619
 Frc consts  --      1.4959                 1.4469                 1.4675
 IR Inten    --      5.8048                 2.2463                 0.7098

                     91                     92                     93
                      A                      A                      A
 Frequencies --   1541.2875              1547.9675              1551.4641
 Red. masses --      1.0812                 2.2190                 1.0687
 Frc consts  --      1.5133                 3.1328                 1.5156
 IR Inten    --     50.7735                10.4627                 2.8288

                     94                     95                     96
                      A                      A                      A
 Frequencies --   1557.3329              1646.0038              1667.3758
 Red. masses --      1.0692                 5.4881                 5.5938
 Frc consts  --      1.5278                 8.7606                 9.1627
 IR Inten    --      4.7567                 1.1823                 4.4029

                     97                     98                     99
                      A                      A                      A
 Frequencies --   1738.0891              2933.4713              2958.7742
 Red. masses --      8.6183                 1.0747                 1.0588
 Frc consts  --     15.3396                 5.4486                 5.4614
 IR Inten    --    482.7363                65.6512                64.6775

                    100                    101                    102
                      A                      A                      A
 Frequencies --   2991.9066              2998.3585              3030.1186
 Red. masses --      1.0835                 1.0661                 1.0713
 Frc consts  --      5.7146                 5.6472                 5.7954
 IR Inten    --     41.9093                45.3304                48.2317

                    103                    104                    105
                      A                      A                      A
 Frequencies --   3046.2084              3054.7760              3055.2534
 Red. masses --      1.0910                 1.0420                 1.0587
 Frc consts  --      5.9646                 5.7291                 5.8224
 IR Inten    --     43.4793                16.1279                27.1980

                    106                    107                    108
                      A                      A                      A
 Frequencies --   3063.9024              3081.8616              3086.8733
 Red. masses --      1.0725                 1.0626                 1.0864
 Frc consts  --      5.9320                 5.9464                 6.0992
 IR Inten    --     67.3616                24.9037                17.2640

                    109                    110                    111
                      A                      A                      A
 Frequencies --   3102.9207              3106.2885              3111.8571
 Red. masses --      1.1043                 1.1027                 1.0939
 Frc consts  --      6.2644                 6.2691                 6.2412
 IR Inten    --     19.0231                34.6094                56.5077

                    112                    113                    114
                      A                      A                      A
 Frequencies --   3118.9950              3135.4291              3151.9590
 Red. masses --      1.1022                 1.1001                 1.1044
 Frc consts  --      6.3175                 6.3717                 6.4643
 IR Inten    --     27.5489                39.2851                10.3010

                    115                    116                    117
                      A                      A                      A
 Frequencies --   3176.5214              3183.1163              3193.0619
 Red. masses --      1.0872                 1.0867                 1.0899
 Frc consts  --      6.4633                 6.4876                 6.5471
 IR Inten    --      8.1073                 4.1681                 7.3001

                    118                    119                    120
                      A                      A                      A
 Frequencies --   3201.8683              3213.3792              3573.6960
 Red. masses --      1.0938                 1.0979                 1.0753
 Frc consts  --      6.6071                 6.6796                 8.0912
 IR Inten    --     32.6507                18.1233                20.2821

 - Thermochemistry -
 -------------------
 Temperature   298.150 Kelvin.  Pressure   1.00000 Atm.
 Atom     1 has atomic number  6 and mass  12.00000

 Molecular mass:   277.16127 amu.
 Principal axes and moments of inertia in atomic units:
                           1         2         3
     Eigenvalues --  3944.287698167.68277**********
           X            0.99957   0.02849  -0.00671
           Y           -0.02831   0.99928   0.02533
           Z            0.00742  -0.02513   0.99966
 This molecule is an asymmetric top.
 Rotational symmetry number  1.
 Warning -- assumption of classical behavior for rotation
           may cause significant error
 Rotational temperatures (Kelvin)      0.02196     0.01060     0.00831
 Rotational constants (GHZ):           0.45756     0.22096     0.17307
 Zero-point vibrational energy     962810.4 (Joules/Mol)
                                  230.11721 (Kcal/Mol)
 Warning -- explicit consideration of  29 degrees of freedom as
           vibrations may cause significant error
 Vibrational temperatures:     28.17    38.60    52.72    68.24    86.85
          (Kelvin)            106.31   161.80   203.41   207.52   216.14
                              269.97   310.82   349.43   377.60   407.49
                              433.79   462.40   473.19   506.38   598.71
                              601.31   638.53   647.18   697.87   709.44
                              721.74   769.12   800.09   858.98   914.96
                              921.12   965.10  1034.43  1060.20  1078.72
                             1096.21  1115.08  1196.94  1205.39  1242.59
                             1247.84  1300.87  1313.06  1329.72  1355.27
                             1396.63  1436.46  1446.84  1451.58  1470.41
                             1506.71  1526.40  1537.20  1549.22  1581.97
                             1585.46  1603.52  1638.42  1646.38  1678.03
                             1715.45  1719.06  1747.82  1749.11  1752.86
                             1778.99  1785.40  1831.70  1836.92  1854.88
                             1930.80  1939.62  1958.55  1961.82  1972.43
                             1991.37  2004.84  2018.11  2040.93  2048.15
                             2080.64  2087.23  2134.95  2163.31  2167.31
                             2170.85  2178.94  2180.25  2196.90  2203.55
                             2217.57  2227.18  2232.21  2240.65  2368.23
                             2398.98  2500.72  4220.61  4257.02  4304.69
                             4313.97  4359.66  4382.81  4395.14  4395.83
                             4408.27  4434.11  4441.32  4464.41  4469.26
                             4477.27  4487.54  4511.18  4534.97  4570.31
                             4579.79  4594.10  4606.77  4623.34  5141.75

 Zero-point correction=                           0.366715 (Hartree/Particle)
 Thermal correction to Energy=                    0.385810
 Thermal correction to Enthalpy=                  0.386754
 Thermal correction to Gibbs Free Energy=         0.317068
 Sum of electronic and zero-point Energies=          -1147.594684
 Sum of electronic and thermal Energies=             -1147.575590
 Sum of electronic and thermal Enthalpies=           -1147.574645
 Sum of electronic and thermal Free Energies=        -1147.644331

                     E (Thermal)             CV                S
                      KCal/Mol        Cal/Mol-Kelvin    Cal/Mol-Kelvin
 Total                  242.099             73.066            146.667
 Electronic               0.000              0.000              0.000
 Translational            0.889              2.981             42.757
 Rotational               0.889              2.981             34.173
 Vibrational            240.322             67.105             69.737
 Vibration     1          0.593              1.986              6.677
 Vibration     2          0.593              1.984              6.051
 Vibration     3          0.594              1.982              5.433
 Vibration     4          0.595              1.979              4.922
 Vibration     5          0.597              1.973              4.445
 Vibration     6          0.599              1.966              4.047
 Vibration     7          0.607              1.939              3.226
 Vibration     8          0.615              1.912              2.785
 Vibration     9          0.616              1.909              2.747
 Vibration    10          0.618              1.902              2.669
 Vibration    11          0.632              1.857              2.251
 Vibration    12          0.645              1.817              1.992
 Vibration    13          0.659              1.775              1.782
 Vibration    14          0.670              1.742              1.645
 Vibration    15          0.682              1.705              1.514
 Vibration    16          0.693              1.671              1.409
 Vibration    17          0.707              1.633              1.303
 Vibration    18          0.712              1.618              1.266
 Vibration    19          0.729              1.571              1.157
 Vibration    20          0.779              1.435              0.905
 Vibration    21          0.781              1.431              0.899
 Vibration    22          0.803              1.375              0.815
 Vibration    23          0.809              1.361              0.796
 Vibration    24          0.841              1.283              0.697
 Vibration    25          0.849              1.265              0.676
 Vibration    26          0.857              1.246              0.654
 Vibration    27          0.890              1.174              0.577
 Vibration    28          0.912              1.126              0.532
 Vibration    29          0.955              1.038              0.455

 Optimization completed.
    -- Stationary point found.
 Normal termination of Gaussian 16 at Mon Dec 14 13:53:45 2020.

 ----------------------------------------------------------------------
 # B3LYP/6-311++G(d,p) empiricaldispersion=gd3bj scf=xqc pop=npa geom=c
 heck
 ----------------------------------------------------------------------

 ---------------------------------------
 CID_136139932_JID_9335_Energie_neutraal
 ---------------------------------------
 Structure from the checkpoint file:  "JID_9335.chk"
 Charge =  0 Multiplicity = 1

 SCF Done:  E(RB3LYP) =  -1148.19037356     A.U. after   15 cycles
 Normal termination of Gaussian 16 at Mon Dec 14 14:05:47 2020.

 ----------------------------------------------------------------------
 # B3LYP/6-311++G(d,p) empiricaldispersion=gd3bj scf=xqc pop=npa geom=c
 heck
 ----------------------------------------------------------------------

 -------------------------------------
 CID_136139932_JID_9335_Energie_kation
 -------------------------------------
 Structure from the checkpoint file:  "JID_9335.chk"
 Charge =  1 Multiplicity = 2

 SCF Done:  E(UB3LYP) =  -1147.92950052     A.U. after   25 cycles
 Normal termination of Gaussian 16 at Mon Dec 14 14:34:11 2020.
 Gaussian 16:  ES64L-G16RevA.03 25-Dec-2016

 ----------------------------------------------------------------------
 # B3LYP/6-311++G(d,p) empiricaldispersion=gd3bj scf=xqc pop=npa geom=c
 heck
 ----------------------------------------------------------------------

 ------------------------------------
 CID_136139932_JID_9335_Energie_anion
 ------------------------------------
 Structure from the checkpoint file:  "JID_9335.chk"
 Charge = -1 Multiplicity = 2

                         Standard orientation:
 ---------------------------------------------------------------------
 Center     Atomic      Atomic             Coordinates (Angstroms)
 Number     Number       Type             X           Y           Z
 ---------------------------------------------------------------------
      1          6           0       -2.601133   -0.069084    2.105629
      2          6           0       -3.583236   -0.520702    1.026137
      3          7           0       -3.201391   -1.781245    0.380190
      4          6           0       -4.262997   -2.277079   -0.479667
      5          6           0       -1.893662   -1.809326   -0.259709
      6          6           0       -1.701311   -0.987329   -1.559877
      7          7           0       -1.902632    0.445145   -1.393451
      8          6           0       -0.991771    1.122366   -0.824706
      9          7           0        0.218080    0.702757   -0.279393
     10          6           0        1.191972    1.757834   -0.023232
     11          6           0        0.350748    2.951069    0.442653
     12         16           0       -1.179595    2.890252   -0.571153
     13          6           0        2.224647    1.302063    1.020347
     14          6           0        2.948427    0.050893    0.579039
     15          6           0        2.470843   -1.213942    0.948355
     16          6           0        3.089586   -2.374430    0.481896
     17          6           0        4.198375   -2.285825   -0.360604
     18          6           0        4.684449   -1.031136   -0.732331
     19          6           0        4.062021    0.126589   -0.266496
     20          1           0       -2.414811   -0.879834    2.819211
     21          1           0       -3.020311    0.783443    2.651155
     22          1           0       -1.642372    0.250968    1.687349
     23          1           0       -4.557958   -0.703876    1.497747
     24          1           0       -3.726197    0.289764    0.293138
     25          1           0       -4.529365   -1.593807   -1.307178
     26          1           0       -3.966183   -3.238454   -0.915178
     27          1           0       -5.167536   -2.440859    0.117499
     28          1           0       -1.146298   -1.497861    0.475891
     29          1           0       -1.671803   -2.857145   -0.507576
     30          1           0       -0.694906   -1.224961   -1.955236
     31          1           0       -2.410463   -1.335601   -2.317557
     32          1           0        0.589372   -0.168949   -0.640302
     33          1           0        1.719732    2.032026   -0.951049
     34          1           0        0.093519    2.852692    1.501863
     35          1           0        0.867341    3.899254    0.282946
     36          1           0        2.936436    2.120354    1.182500
     37          1           0        1.701759    1.122001    1.966165
     38          1           0        1.608566   -1.285038    1.606548
     39          1           0        2.707200   -3.346440    0.780503
     40          1           0        4.682969   -3.188036   -0.722397
     41          1           0        5.550070   -0.953729   -1.384236
     42          1           0        4.444616    1.101684   -0.559378
 ---------------------------------------------------------------------

 SCF Done:  E(UB3LYP) =  -1148.18188795     A.U. after   33 cycles
 SCF Done:  E(UB3LYP) =  -1148.18188795     a.u. after    1 cycles

 The electronic state is 2-A.
 Alpha  occ. eigenvalues --  -88.76484 -14.24841 -14.21755 -14.19590 -10.17451
 Alpha  occ. eigenvalues --  -10.13607 -10.11829 -10.10777 -10.10616 -10.10595
 Alpha  occ. eigenvalues --  -10.10118 -10.09463 -10.08999 -10.08685 -10.08566
 Alpha  occ. eigenvalues --  -10.08530 -10.08400 -10.08299 -10.07026  -7.85128
 Alpha  occ. eigenvalues --   -5.81491  -5.81156  -5.80520  -0.89008  -0.83895
 Alpha  occ. eigenvalues --   -0.80737  -0.77106  -0.71081  -0.70145  -0.67177
 Alpha  occ. eigenvalues --   -0.65852  -0.65736  -0.63657  -0.59200  -0.57244
 Alpha  occ. eigenvalues --   -0.54770  -0.52342  -0.51883  -0.49603  -0.48776
 Alpha  occ. eigenvalues --   -0.47855  -0.43348  -0.42620  -0.41194  -0.40222
 Alpha  occ. eigenvalues --   -0.38592  -0.37170  -0.37053  -0.36546  -0.34989
 Alpha  occ. eigenvalues --   -0.34411  -0.33620  -0.33364  -0.32985  -0.32340
 Alpha  occ. eigenvalues --   -0.31464  -0.31068  -0.30509  -0.29864  -0.29125
 Alpha  occ. eigenvalues --   -0.28001  -0.27570  -0.27054  -0.26722  -0.26067
 Alpha  occ. eigenvalues --   -0.25870  -0.25253  -0.25145  -0.23876  -0.17016
 Alpha  occ. eigenvalues --   -0.16844  -0.16369  -0.15986  -0.14815  -0.11934
 Alpha  occ. eigenvalues --    0.03812
 Alpha virt. eigenvalues --    0.05652   0.06045   0.06663   0.06957   0.07143
 Alpha virt. eigenvalues --    0.07376   0.08112   0.08347   0.08531   0.09095
 Alpha virt. eigenvalues --    0.09503   0.09732   0.10124   0.10406   0.10619

  Beta  occ. eigenvalues --  -88.76481 -14.24833 -14.21755 -14.19590 -10.17446
  Beta  occ. eigenvalues --  -10.13593 -10.11794 -10.10769 -10.10608 -10.10591
  Beta  occ. eigenvalues --  -10.10116 -10.09445 -10.08975 -10.08670 -10.08555
  Beta  occ. eigenvalues --  -10.08516 -10.08371 -10.08270 -10.07017  -7.85125
  Beta  occ. eigenvalues --   -5.81484  -5.81154  -5.80517  -0.88991  -0.83890
  Beta  occ. eigenvalues --   -0.80727  -0.77062  -0.71044  -0.70102  -0.67160
  Beta  occ. eigenvalues --   -0.65804  -0.65714  -0.63625  -0.59168  -0.57212
  Beta  occ. eigenvalues --   -0.54748  -0.52276  -0.51832  -0.49548  -0.48746
  Beta  occ. eigenvalues --   -0.47836  -0.43316  -0.42556  -0.41174  -0.40213
  Beta  occ. eigenvalues --   -0.38578  -0.37127  -0.36995  -0.36532  -0.34959
  Beta  occ. eigenvalues --   -0.34389  -0.33558  -0.33322  -0.32972  -0.32319
  Beta  occ. eigenvalues --   -0.31430  -0.31050  -0.30456  -0.29847  -0.29092
  Beta  occ. eigenvalues --   -0.27945  -0.27553  -0.27041  -0.26706  -0.26030
  Beta  occ. eigenvalues --   -0.25826  -0.25222  -0.25129  -0.23836  -0.17006
  Beta  occ. eigenvalues --   -0.16788  -0.16320  -0.15925  -0.14800  -0.11927
  Beta virt. eigenvalues --    0.05657   0.06356   0.06610   0.07032   0.07222
  Beta virt. eigenvalues --    0.07310   0.07662   0.08474   0.08634   0.08872
  Beta virt. eigenvalues --    0.09260   0.09728   0.09888   0.10236   0.10606

 Mulliken charges and spin densities:
               1          2
     1  C   -0.429970  -0.134704
     2  C   -0.534625   0.231053
     3  N    0.224895  -0.006736
     4  C   -0.211980  -0.081770
     5  C   -0.483442   0.117443
     6  C   -0.058710  -0.307072
     7  N    0.061892  -0.010144
     8  C   -0.331717   0.125896
     9  N    0.256890  -0.145900
    10  C   -1.230306   0.719396
    11  C    1.074996  -1.493026
    12  S   -0.218965   0.086754
    13  C    3.346287  -4.080043
    14  C   -1.087523   1.925532
    15  C   -1.112077   0.921797
    16  C   -0.160193  -0.112064
    17  C    1.197569  -1.527036
    18  C    1.089390  -1.409026
    19  C   -1.537659   1.461565
    20  H    0.054351   0.092730
    21  H   -0.034459   0.152666
    22  H    0.697426  -0.567309
    23  H    0.113747   0.023096
    24  H    0.140660   0.001994
    25  H    0.115793   0.010430
    26  H    0.046973   0.080487
    27  H    0.083983   0.035127
    28  H    0.189262  -0.024485
    29  H    0.003850   0.149782
    30  H   -0.113203   0.242087
    31  H    0.195928   0.002720
    32  H    0.615305  -0.387170
    33  H    0.008831   0.220617
    34  H    0.101189   0.115185
    35  H   -0.467364   0.701223
    36  H   -0.344505   0.550070
    37  H   -0.204817   0.382987
    38  H   -0.039241   0.200933
    39  H   -0.397046   0.580998
    40  H   -0.345545   0.510082
    41  H   -0.480251   0.662686
    42  H   -0.795617   0.981148
 Sum of Mulliken charges =  -1.00000   1.00000

 Dipole moment (field-independent basis, Debye):
    X=             -8.2219    Y=             -1.7048    Z=              0.6220  Tot=              8.4198
 Quadrupole moment (field-independent basis, Debye-Ang):
   XX=           -217.5873   YY=           -188.5498   ZZ=           -159.7069
   XY=              0.0110   XZ=              2.6739   YZ=              1.3616

 Summary of Natural Population Analysis:

                                       Natural Population
                Natural  -----------------------------------------------
    Atom  No    Charge         Core      Valence    Rydberg      Total
 -----------------------------------------------------------------------
      C    1   -0.29271      0.99966     2.28851    0.00454     3.29271
      C    2   -0.08596      0.99963     2.07692    0.00942     3.08596
      N    3   -0.27912      0.99972     2.76730    0.01209     3.77912
      C    4   -0.17674      0.99965     2.17029    0.00680     3.17674
      C    5   -0.09257      0.99960     2.07950    0.01347     3.09257
      C    6   -0.11169      0.99960     2.09862    0.01346     3.11169
      N    7   -0.29001      0.99961     2.77946    0.01094     3.79001
      C    8    0.16561      0.99955     1.81141    0.02343     2.83439
      N    9   -0.34394      0.99964     2.83391    0.01039     3.84394
      C   10   -0.00497      0.99958     1.99276    0.01263     3.00497
      C   11   -0.24333      0.99957     2.23280    0.01096     3.24333
      S   12    0.11838      4.99955     2.86469    0.01738     7.88162
      C   13   -0.19899      0.99957     2.18759    0.01182     3.19899
      C   14   -0.01955      0.99950     2.00823    0.01181     3.01955
      C   15   -0.10751      0.99950     2.09834    0.00967     3.10751
      C   16   -0.09846      0.99956     2.08814    0.01076     3.09846
      C   17   -0.10030      0.99956     2.09081    0.00993     3.10030
      C   18   -0.09616      0.99956     2.08630    0.01030     3.09616
      C   19   -0.09693      0.99950     2.08712    0.01031     3.09693
      H   20    0.09732      0.00000     0.40129    0.00139     0.40268
      H   21    0.09918      0.00000     0.39996    0.00086     0.40082
      H   22    0.10208      0.00000     0.39610    0.00182     0.39792
      H   23    0.08631      0.00000     0.41228    0.00141     0.41369
      H   24    0.09277      0.00000     0.40535    0.00188     0.40723
      H   25    0.08173      0.00000     0.41667    0.00160     0.41827
      H   26    0.09290      0.00000     0.40613    0.00097     0.40710
      H   27    0.09169      0.00000     0.40724    0.00108     0.40831
      H   28    0.09807      0.00000     0.39976    0.00217     0.40193
      H   29    0.09494      0.00000     0.40386    0.00120     0.40506
      H   30    0.08537      0.00000     0.41303    0.00160     0.41463
      H   31    0.09375      0.00000     0.40502    0.00122     0.40625
      H   32    0.20126      0.00000     0.29553    0.00322     0.29874
      H   33    0.09202      0.00000     0.40579    0.00220     0.40798
      H   34    0.10179      0.00000     0.39649    0.00172     0.39821
      H   35    0.11427      0.00000     0.38374    0.00199     0.38573
      H   36    0.11233      0.00000     0.38515    0.00251     0.38767
      H   37    0.10365      0.00000     0.39461    0.00174     0.39635
      H   38    0.10204      0.00000     0.39609    0.00186     0.39796
      H   39    0.10184      0.00000     0.39705    0.00111     0.39816
      H   40    0.10206      0.00000     0.39657    0.00137     0.39794
      H   41    0.10271      0.00000     0.39593    0.00136     0.39729
      H   42    0.10487      0.00000     0.39296    0.00217     0.39513
 =======================================================================
   * Total *   -0.00000     22.99213    51.74933    0.25854    75.00000

 Normal termination of Gaussian 16 at Mon Dec 14 15:11:09 2020.
