 Gaussian 16, Revision A.03,

 -----------------------------------------------------------
 # opt freq B3LYP/6-31G(d) empiricaldispersion=gd3bj scf=xqc
 -----------------------------------------------------------

 -------------------------------
 CID_133677229_JID_1506_neutraal
 -------------------------------
 Symbolic Z-matrix:
 Charge =  0 Multiplicity = 1

 SCF Done:  E(RB3LYP) =  -547.548831964     A.U. after   16 cycles
 SCF Done:  E(RB3LYP) =  -547.575947476     A.U. after   14 cycles
 SCF Done:  E(RB3LYP) =  -547.576612079     A.U. after   13 cycles
 SCF Done:  E(RB3LYP) =  -547.576725417     A.U. after   12 cycles
 SCF Done:  E(RB3LYP) =  -547.576747460     A.U. after   11 cycles
 SCF Done:  E(RB3LYP) =  -547.576751557     A.U. after   10 cycles
 SCF Done:  E(RB3LYP) =  -547.576751599     A.U. after    9 cycles
 SCF Done:  E(RB3LYP) =  -547.576752461     A.U. after    9 cycles
 Optimization completed.
    -- Stationary point found.
 Normal termination of Gaussian 16 at Sun Dec 13 19:58:05 2020.

 --------------------------------------------------------------------
 #N Geom=AllCheck Guess=TCheck SCRF=Check GenChk RB3LYP/6-31G(d) Freq
 --------------------------------------------------------------------

 Structure from the checkpoint file:  "JID_1506.chk"
 -------------------------------
 CID_133677229_JID_1506_neutraal
 -------------------------------
 Charge =  0 Multiplicity = 1

 SCF Done:  E(RB3LYP) =  -547.576752461     A.U. after    1 cycles

  Exact polarizability: 133.688  -4.799  98.920   0.000  -0.000  39.772
 Approx polarizability: 209.420 -12.650 160.148   0.000  -0.000  59.016

 ******    1 imaginary frequencies (negative Signs) ******

                      1                      2                      3
                      A                      A                      A
 Frequencies --   -336.3390                41.4578                63.6745
 Red. masses --      1.1501                 7.2174                 6.5662
 Frc consts  --      0.0767                 0.0073                 0.0157
 IR Inten    --    225.8955                 0.3370                 2.7076

                      4                      5                      6
                      A                      A                      A
 Frequencies --     90.6616                91.5222               138.6559
 Red. masses --      7.2781                 5.2549                 7.2294
 Frc consts  --      0.0352                 0.0259                 0.0819
 IR Inten    --      2.6542                 0.1758                 4.2890

                      7                      8                      9
                      A                      A                      A
 Frequencies --    147.6357               194.5581               259.0461
 Red. masses --      1.0625                 4.6584                 5.0157
 Frc consts  --      0.0136                 0.1039                 0.1983
 IR Inten    --      0.0023                10.9059                15.8073

                     10                     11                     12
                      A                      A                      A
 Frequencies --    314.9871               320.7203               417.8086
 Red. masses --      2.7431                 7.5278                 3.9960
 Frc consts  --      0.1604                 0.4562                 0.4110
 IR Inten    --      1.7781                 0.5570                 0.1588

                     13                     14                     15
                      A                      A                      A
 Frequencies --    448.4060               487.2281               539.6227
 Red. masses --      8.3748                 1.2119                 3.0144
 Frc consts  --      0.9921                 0.1695                 0.5172
 IR Inten    --      2.0692                19.8835                 2.3100

                     16                     17                     18
                      A                      A                      A
 Frequencies --    552.0506               591.6738               631.0248
 Red. masses --      2.9921                 5.5364                 4.0316
 Frc consts  --      0.5373                 1.1419                 0.9458
 IR Inten    --      5.1050                41.4389                22.6496

                     19                     20                     21
                      A                      A                      A
 Frequencies --    646.3577               707.2632               757.1733
 Red. masses --      2.7813                 1.8456                 4.1771
 Frc consts  --      0.6846                 0.5439                 1.4110
 IR Inten    --      0.3709                48.6589                67.6770

                     22                     23                     24
                      A                      A                      A
 Frequencies --    805.6209               911.8270               944.2781
 Red. masses --      5.3172                 1.3176                 3.5966
 Frc consts  --      2.0333                 0.6454                 1.8895
 IR Inten    --     10.2786                24.4398                 3.7281

                     25                     26                     27
                      A                      A                      A
 Frequencies --    967.2227              1055.3009              1091.5764
 Red. masses --      2.8097                 1.7635                 2.2182
 Frc consts  --      1.5487                 1.1572                 1.5572
 IR Inten    --     68.1475                 1.9898                18.9733

                     28                     29                     30
                      A                      A                      A
 Frequencies --   1096.7550              1289.1437              1324.6681
 Red. masses --      1.9296                 2.9874                 2.4099
 Frc consts  --      1.3675                 2.9252                 2.4915
 IR Inten    --     25.0530               337.6123               345.7955

                     31                     32                     33
                      A                      A                      A
 Frequencies --   1389.9045              1408.5273              1430.5258
 Red. masses --      1.4387                 1.6939                 3.0223
 Frc consts  --      1.6376                 1.9800                 3.6440
 IR Inten    --     54.2830               162.4757               251.9287

                     34                     35                     36
                      A                      A                      A
 Frequencies --   1470.4858              1503.7660              1512.1093
 Red. masses --      2.2760                 1.0652                 1.0472
 Frc consts  --      2.8997                 1.4192                 1.4108
 IR Inten    --     32.3105                 4.8801                11.2789

                     37                     38                     39
                      A                      A                      A
 Frequencies --   1650.7326              1685.1401              1779.6424
 Red. masses --      1.2454                 4.0814                10.8103
 Frc consts  --      1.9994                 6.8285                20.1722
 IR Inten    --    188.4703               490.4577               153.6266

                     40                     41                     42
                      A                      A                      A
 Frequencies --   1846.3562              2342.5879              3051.3503
 Red. masses --      7.2516                12.6703                 1.0390
 Frc consts  --     14.5651                40.9664                 5.6998
 IR Inten    --    449.3377                20.9495                 4.6302

                     43                     44                     45
                      A                      A                      A
 Frequencies --   3111.9060              3175.0035              3247.9978
 Red. masses --      1.1009                 1.0997                 1.0892
 Frc consts  --      6.2814                 6.5314                 6.7699
 IR Inten    --     11.7655                 5.0138                 3.1107

                     46                     47                     48
                      A                      A                      A
 Frequencies --   3556.6798              3629.7308              3749.2916
 Red. masses --      1.0768                 1.0456                 1.1051
 Frc consts  --      8.0253                 8.1166                 9.1531
 IR Inten    --     53.9361                65.9964                56.8665

 - Thermochemistry -
 -------------------
 Temperature   298.150 Kelvin.  Pressure   1.00000 Atm.
 Atom     1 has atomic number  6 and mass  12.00000

 Molecular mass:   153.05383 amu.
 Principal axes and moments of inertia in atomic units:
                           1         2         3
     Eigenvalues --   970.564192958.868873918.09405
           X            0.99993   0.01152  -0.00000
           Y           -0.01152   0.99993   0.00000
           Z            0.00000  -0.00000   1.00000
 This molecule is an asymmetric top.
 Rotational symmetry number  1.
 Warning -- assumption of classical behavior for rotation
           may cause significant error
 Rotational temperatures (Kelvin)      0.08924     0.02927     0.02211
 Rotational constants (GHZ):           1.85948     0.60994     0.46062
    1 imaginary frequencies ignored.
 Zero-point vibrational energy     349726.2 (Joules/Mol)
                                   83.58657 (Kcal/Mol)
 Warning -- explicit consideration of  16 degrees of freedom as
           vibrations may cause significant error
 Vibrational temperatures:     59.65    91.61   130.44   131.68   199.49
          (Kelvin)            212.41   279.93   372.71   453.20   461.45
                              601.13   645.16   701.01   776.40   794.28
                              851.29   907.90   929.96  1017.59  1089.40
                             1159.11  1311.92  1358.61  1391.62  1518.34
                             1570.53  1577.99  1854.79  1905.90  1999.76
                             2026.56  2058.21  2115.70  2163.58  2175.59
                             2375.04  2424.54  2560.51  2656.49  3370.46
                             4390.21  4477.34  4568.12  4673.14  5117.27
                             5222.37  5394.39

 Zero-point correction=                           0.133204 (Hartree/Particle)
 Thermal correction to Energy=                    0.144535
 Thermal correction to Enthalpy=                  0.145479
 Thermal correction to Gibbs Free Energy=         0.094731
 Sum of electronic and zero-point Energies=           -547.443549
 Sum of electronic and thermal Energies=              -547.432218
 Sum of electronic and thermal Enthalpies=            -547.431274
 Sum of electronic and thermal Free Energies=         -547.482021

                     E (Thermal)             CV                S
                      KCal/Mol        Cal/Mol-Kelvin    Cal/Mol-Kelvin
 Total                   90.697             39.215            106.807
 Electronic               0.000              0.000              0.000
 Translational            0.889              2.981             40.987
 Rotational               0.889              2.981             30.799
 Vibrational             88.919             33.254             35.022
 Vibration     1          0.594              1.981              5.188
 Vibration     2          0.597              1.972              4.340
 Vibration     3          0.602              1.956              3.646
 Vibration     4          0.602              1.955              3.627
 Vibration     5          0.614              1.915              2.822
 Vibration     6          0.617              1.905              2.702
 Vibration     7          0.635              1.847              2.184
 Vibration     8          0.668              1.747              1.668
 Vibration     9          0.702              1.645              1.336
 Vibration    10          0.706              1.634              1.306
 Vibration    11          0.781              1.432              0.899
 Vibration    12          0.807              1.364              0.801
 Vibration    13          0.843              1.278              0.691
 Vibration    14          0.895              1.162              0.566
 Vibration    15          0.907              1.135              0.540
 Vibration    16          0.949              1.050              0.464

 Optimization completed.
    -- Stationary point found.
 Normal termination of Gaussian 16 at Sun Dec 13 20:00:47 2020.

 ----------------------------------------------------------------------
 # B3LYP/6-311++G(d,p) empiricaldispersion=gd3bj scf=xqc pop=npa geom=c
 heck
 ----------------------------------------------------------------------

 ---------------------------------------
 CID_133677229_JID_1506_Energie_neutraal
 ---------------------------------------
 Structure from the checkpoint file:  "JID_1506.chk"
 Charge =  0 Multiplicity = 1

 SCF Done:  E(RB3LYP) =  -547.749272327     A.U. after   16 cycles
 Normal termination of Gaussian 16 at Sun Dec 13 20:01:59 2020.

 ----------------------------------------------------------------------
 # B3LYP/6-311++G(d,p) empiricaldispersion=gd3bj scf=xqc pop=npa geom=c
 heck
 ----------------------------------------------------------------------

 -------------------------------------
 CID_133677229_JID_1506_Energie_kation
 -------------------------------------
 Structure from the checkpoint file:  "JID_1506.chk"
 Charge =  1 Multiplicity = 2

 SCF Done:  E(UB3LYP) =  -547.404804128     A.U. after   28 cycles
 Normal termination of Gaussian 16 at Sun Dec 13 20:04:52 2020.
 Gaussian 16:  ES64L-G16RevA.03 25-Dec-2016

 ----------------------------------------------------------------------
 # B3LYP/6-311++G(d,p) empiricaldispersion=gd3bj scf=xqc pop=npa geom=c
 heck
 ----------------------------------------------------------------------

 ------------------------------------
 CID_133677229_JID_1506_Energie_anion
 ------------------------------------
 Structure from the checkpoint file:  "JID_1506.chk"
 Charge = -1 Multiplicity = 2

                         Standard orientation:
 ---------------------------------------------------------------------
 Center     Atomic      Atomic             Coordinates (Angstroms)
 Number     Number       Type             X           Y           Z
 ---------------------------------------------------------------------
      1          6           0       -2.220260   -2.078120   -0.000000
      2          6           0       -2.323528   -0.560146    0.000010
      3          8           0       -3.405819    0.001393   -0.000006
      4          6           0       -1.070092    0.233682    0.000004
      5          6           0        0.176823   -0.325132    0.000003
      6          7           0        1.338842    0.376205   -0.000001
      7          6           0        2.675690   -0.082526   -0.000001
      8          8           0        3.582204    0.728274    0.000003
      9          7           0        2.860563   -1.433408   -0.000003
     10          6           0       -1.175111    1.657619   -0.000002
     11          7           0       -1.153742    2.821263   -0.000001
     12          1           0       -3.231378   -2.487098   -0.000009
     13          1           0       -1.688822   -2.441987    0.887496
     14          1           0       -1.688811   -2.441975   -0.887495
     15          1           0        0.266121   -1.404031    0.000007
     16          1           0        1.284299    1.391466   -0.000002
     17          1           0        2.129067   -2.124042   -0.000013
     18          1           0        3.817662   -1.750364   -0.000004
 ---------------------------------------------------------------------

 SCF Done:  E(UB3LYP) =  -547.781554408     A.U. after   22 cycles

 The electronic state is 2-A.
 Alpha  occ. eigenvalues --  -18.96445 -18.93371 -14.23161 -14.22202 -14.15369
 Alpha  occ. eigenvalues --  -10.17901 -10.09360 -10.06191 -10.05781 -10.04560
 Alpha  occ. eigenvalues --  -10.03602  -0.93754  -0.87771  -0.82306  -0.79394
 Alpha  occ. eigenvalues --   -0.75304  -0.65462  -0.60150  -0.53102  -0.50519
 Alpha  occ. eigenvalues --   -0.46240  -0.42858  -0.38997  -0.37919  -0.33180
 Alpha  occ. eigenvalues --   -0.32862  -0.31137  -0.30813  -0.28735  -0.27546
 Alpha  occ. eigenvalues --   -0.25647  -0.24860  -0.21799  -0.21389  -0.19575
 Alpha  occ. eigenvalues --   -0.18560  -0.17274  -0.16072  -0.09941  -0.09867
 Alpha  occ. eigenvalues --    0.03224
 Alpha virt. eigenvalues --    0.06838   0.08951   0.11309   0.11765   0.12620
 Alpha virt. eigenvalues --    0.14068   0.14207   0.15016   0.15152   0.15946
 Alpha virt. eigenvalues --    0.16562   0.16854   0.17317   0.18532   0.18798

  Beta  occ. eigenvalues --  -18.96261 -18.92953 -14.23165 -14.22183 -14.15284
  Beta  occ. eigenvalues --  -10.17750 -10.09174 -10.05772 -10.05451 -10.04576
  Beta  occ. eigenvalues --  -10.03585  -0.93434  -0.87047  -0.81957  -0.79215
  Beta  occ. eigenvalues --   -0.75170  -0.64869  -0.59952  -0.52403  -0.50020
  Beta  occ. eigenvalues --   -0.46128  -0.42569  -0.38479  -0.37792  -0.32998
  Beta  occ. eigenvalues --   -0.31925  -0.30696  -0.30563  -0.28337  -0.27397
  Beta  occ. eigenvalues --   -0.25316  -0.23714  -0.21646  -0.19631  -0.18695
  Beta  occ. eigenvalues --   -0.18464  -0.16688  -0.15896  -0.09565  -0.08187
  Beta virt. eigenvalues --    0.06784   0.08908   0.09837   0.11246   0.12474
  Beta virt. eigenvalues --    0.12605   0.14166   0.15030   0.15124   0.15576
  Beta virt. eigenvalues --    0.16448   0.16593   0.17310   0.17962   0.18577

 Mulliken charges and spin densities:
               1          2
     1  C   -0.379926  -0.029353
     2  C   -0.563268   0.093213
     3  O   -0.375975   0.144202
     4  C    2.733223   0.004364
     5  C   -2.298528   0.584855
     6  N   -0.112128  -0.025657
     7  C    0.341042   0.073389
     8  O   -0.445580   0.065544
     9  N   -0.524359   0.017415
    10  C   -0.339162   0.017957
    11  N   -0.347444   0.040823
    12  H    0.164401  -0.000940
    13  H    0.099380   0.031724
    14  H    0.099369   0.031737
    15  H    0.062599  -0.046490
    16  H    0.338223  -0.002166
    17  H    0.238427  -0.000648
    18  H    0.309706   0.000031
 Sum of Mulliken charges =  -1.00000   1.00000

 Dipole moment (field-independent basis, Debye):
    X=              4.2509    Y=             -7.6857    Z=              0.0000  Tot=              8.7829
 Quadrupole moment (field-independent basis, Debye-Ang):
   XX=           -115.4043   YY=            -83.1145   ZZ=            -70.9987
   XY=             -2.7406   XZ=             -0.0001   YZ=             -0.0001

 Summary of Natural Population Analysis:

                                       Natural Population
                Natural  -----------------------------------------------
    Atom  No    Charge         Core      Valence    Rydberg      Total
 -----------------------------------------------------------------------
      C    1   -0.33166      0.99964     2.32789    0.00413     3.33166
      C    2    0.28746      0.99966     1.69266    0.02022     2.71254
      O    3   -0.26480      0.99988     3.25779    0.00713     4.26480
      C    4   -0.18527      0.99939     2.17362    0.01227     3.18527
      C    5    0.19467      0.99954     1.79244    0.01335     2.80533
      N    6   -0.30585      0.99966     2.79723    0.00896     3.80585
      C    7    0.41919      0.99975     1.55912    0.02194     2.58081
      O    8   -0.32150      0.99987     3.31533    0.00630     4.32150
      N    9   -0.42187      0.99971     2.91539    0.00677     3.92187
      C   10    0.16384      0.99964     1.81626    0.02026     2.83616
      N   11   -0.20972      0.99978     2.69848    0.01145     3.70972
      H   12    0.10407      0.00000     0.39444    0.00148     0.39593
      H   13    0.10077      0.00000     0.39819    0.00105     0.39923
      H   14    0.10077      0.00000     0.39819    0.00105     0.39923
      H   15    0.07618      0.00000     0.42297    0.00085     0.42382
      H   16    0.20523      0.00000     0.29310    0.00167     0.29477
      H   17    0.19418      0.00000     0.30463    0.00119     0.30582
      H   18    0.19431      0.00000     0.30442    0.00128     0.30569
 =======================================================================
   * Total *   -0.00000     10.99652    28.86215    0.14133    40.00000

 Normal termination of Gaussian 16 at Sun Dec 13 20:07:11 2020.
