 Gaussian 16, Revision A.03,

 -----------------------------------------------------------
 # opt freq B3LYP/6-31G(d) empiricaldispersion=gd3bj scf=xqc
 -----------------------------------------------------------

 ------------------------------
 CID_19017692_JID_3248_neutraal
 ------------------------------
 Symbolic Z-matrix:
 Charge =  0 Multiplicity = 1

 SCF Done:  E(RB3LYP) =  -970.264961787     A.U. after   15 cycles
 SCF Done:  E(RB3LYP) =  -970.270158902     A.U. after   12 cycles
 SCF Done:  E(RB3LYP) =  -970.270599631     A.U. after   12 cycles
 SCF Done:  E(RB3LYP) =  -970.270483931     A.U. after   12 cycles
 SCF Done:  E(RB3LYP) =  -970.270702551     A.U. after   11 cycles
 SCF Done:  E(RB3LYP) =  -970.270720992     A.U. after   10 cycles
 SCF Done:  E(RB3LYP) =  -970.270736231     A.U. after   10 cycles
 SCF Done:  E(RB3LYP) =  -970.270748456     A.U. after   10 cycles
 SCF Done:  E(RB3LYP) =  -970.270753830     A.U. after   10 cycles
 SCF Done:  E(RB3LYP) =  -970.270761719     A.U. after   10 cycles
 SCF Done:  E(RB3LYP) =  -970.272594975     A.U. after   12 cycles
 SCF Done:  E(RB3LYP) =  -970.272710281     A.U. after   12 cycles
 SCF Done:  E(RB3LYP) =  -970.272733065     A.U. after   11 cycles
 SCF Done:  E(RB3LYP) =  -970.272735076     A.U. after    9 cycles
 SCF Done:  E(RB3LYP) =  -970.272735377     A.U. after    8 cycles
 SCF Done:  E(RB3LYP) =  -970.272735586     A.U. after    8 cycles
 Optimization completed.
    -- Stationary point found.
 Normal termination of Gaussian 16 at Wed Dec  9 22:36:03 2020.

 --------------------------------------------------------------------
 #N Geom=AllCheck Guess=TCheck SCRF=Check GenChk RB3LYP/6-31G(d) Freq
 --------------------------------------------------------------------

 Structure from the checkpoint file:  "JID_3248.chk"
 ------------------------------
 CID_19017692_JID_3248_neutraal
 ------------------------------
 Charge =  0 Multiplicity = 1

 SCF Done:  E(RB3LYP) =  -970.272735586     A.U. after    1 cycles

  Exact polarizability: 188.069   0.924 111.750  10.815   4.623  75.922
 Approx polarizability: 248.572  14.976 206.086  25.878  14.532 112.213

                      1                      2                      3
                      A                      A                      A
 Frequencies --     34.0706                46.4553                71.0473
 Red. masses --      3.6821                 4.6241                 3.5971
 Frc consts  --      0.0025                 0.0059                 0.0107
 IR Inten    --      0.5344                 0.1898                 2.6648

                      4                      5                      6
                      A                      A                      A
 Frequencies --     86.6498                97.8766               125.4561
 Red. masses --      4.6961                 3.1764                 2.2534
 Frc consts  --      0.0208                 0.0179                 0.0209
 IR Inten    --      1.1456                 0.9123                 2.6941

                      7                      8                      9
                      A                      A                      A
 Frequencies --    135.0333               159.1682               206.6266
 Red. masses --      1.4264                 3.0436                 2.4592
 Frc consts  --      0.0153                 0.0454                 0.0619
 IR Inten    --      1.0964                 1.6101                 1.3503

                     10                     11                     12
                      A                      A                      A
 Frequencies --    240.6275               269.6379               294.0676
 Red. masses --      1.7085                 3.9286                 5.1081
 Frc consts  --      0.0583                 0.1683                 0.2603
 IR Inten    --      3.3809                 6.4916                 2.7477

                     13                     14                     15
                      A                      A                      A
 Frequencies --    323.2173               339.2960               367.3907
 Red. masses --      3.2696                 3.8693                 1.4762
 Frc consts  --      0.2013                 0.2624                 0.1174
 IR Inten    --      6.8374                21.5938                90.6260

                     16                     17                     18
                      A                      A                      A
 Frequencies --    432.5901               461.4541               502.0426
 Red. masses --      2.6105                 7.1925                 3.0922
 Frc consts  --      0.2878                 0.9024                 0.4592
 IR Inten    --     46.8385                 7.2745                12.9143

                     19                     20                     21
                      A                      A                      A
 Frequencies --    529.9132               627.3908               647.1217
 Red. masses --      2.9602                 9.0517                 7.5006
 Frc consts  --      0.4898                 2.0992                 1.8506
 IR Inten    --      6.3540                 8.7200                 7.6001

                     22                     23                     24
                      A                      A                      A
 Frequencies --    744.6726               748.9899               769.0105
 Red. masses --      3.5154                 9.8178                 2.3554
 Frc consts  --      1.1486                 3.2450                 0.8207
 IR Inten    --      7.4272                19.6656                10.3856

                     25                     26                     27
                      A                      A                      A
 Frequencies --    799.0979               810.1366               872.4258
 Red. masses --      2.9023                 2.7998                 2.7013
 Frc consts  --      1.0919                 1.0826                 1.2114
 IR Inten    --      0.0875                 5.8669                 6.5100

                     28                     29                     30
                      A                      A                      A
 Frequencies --    911.2130               927.0041               969.7395
 Red. masses --      1.4155                 1.4688                 7.1476
 Frc consts  --      0.6925                 0.7437                 3.9602
 IR Inten    --      3.9583                 0.9917                12.3813

                     31                     32                     33
                      A                      A                      A
 Frequencies --   1001.2298              1084.2044              1120.2819
 Red. masses --      1.9460                 3.0366                 2.1154
 Frc consts  --      1.1494                 2.1031                 1.5642
 IR Inten    --     10.9797                 6.1755                23.9270

                     34                     35                     36
                      A                      A                      A
 Frequencies --   1128.8043              1155.9898              1185.7239
 Red. masses --      6.2236                 1.7628                 1.2690
 Frc consts  --      4.6723                 1.3879                 1.0512
 IR Inten    --    172.8969               101.8347                 0.7468

                     37                     38                     39
                      A                      A                      A
 Frequencies --   1207.5412              1220.1883              1282.3015
 Red. masses --      2.1384                 1.5352                 2.0277
 Frc consts  --      1.8372                 1.3467                 1.9644
 IR Inten    --     85.8918                66.9682                99.0739

                     40                     41                     42
                      A                      A                      A
 Frequencies --   1298.9591              1313.7077              1326.3105
 Red. masses --      1.3467                 3.4689                 1.3258
 Frc consts  --      1.3388                 3.5272                 1.3741
 IR Inten    --     10.1873               454.1205               140.8023

                     43                     44                     45
                      A                      A                      A
 Frequencies --   1359.9015              1396.8487              1409.7132
 Red. masses --      4.1793                 1.3473                 1.3395
 Frc consts  --      4.5537                 1.5489                 1.5684
 IR Inten    --    125.4623                 7.5130                38.9754

                     46                     47                     48
                      A                      A                      A
 Frequencies --   1443.8724              1493.2075              1498.5311
 Red. masses --      1.2740                 1.2259                 1.2268
 Frc consts  --      1.5649                 1.6105                 1.6231
 IR Inten    --     21.8796                20.6523                54.4058

                     49                     50                     51
                      A                      A                      A
 Frequencies --   1511.7618              1516.6429              1518.2665
 Red. masses --      1.0484                 1.4400                 1.1688
 Frc consts  --      1.4116                 1.9516                 1.5875
 IR Inten    --      5.3655                41.0246                34.2973

                     52                     53                     54
                      A                      A                      A
 Frequencies --   1527.1444              1532.7059              1538.8755
 Red. masses --      1.0653                 1.0646                 1.0576
 Frc consts  --      1.4639                 1.4735                 1.4756
 IR Inten    --      4.0959                 6.2026                 6.8694

                     55                     56                     57
                      A                      A                      A
 Frequencies --   1582.9867              1599.4529              1787.3388
 Red. masses --      3.2920                 5.7010                11.7501
 Frc consts  --      4.8603                 8.5930                22.1160
 IR Inten    --    503.3932               234.8388               320.6212

                     58                     59                     60
                      A                      A                      A
 Frequencies --   3042.2838              3051.3639              3070.7166
 Red. masses --      1.0385                 1.0658                 1.0662
 Frc consts  --      5.6631                 5.8465                 5.9233
 IR Inten    --     23.3660                26.9027                46.0569

                     61                     62                     63
                      A                      A                      A
 Frequencies --   3073.3400              3093.7055              3114.9880
 Red. masses --      1.0297                 1.0961                 1.1002
 Frc consts  --      5.7302                 6.1812                 6.2895
 IR Inten    --     40.9228                 0.3502                69.6567

                     64                     65                     66
                      A                      A                      A
 Frequencies --   3121.6963              3135.6466              3146.5041
 Red. masses --      1.1003                 1.1024                 1.1074
 Frc consts  --      6.3177                 6.3860                 6.4597
 IR Inten    --     32.9757                12.6410                22.8888

                     67                     68                     69
                      A                      A                      A
 Frequencies --   3179.5512              3243.3246              3635.0313
 Red. masses --      1.1069                 1.0937                 1.0771
 Frc consts  --      6.5930                 6.7783                 8.3854
 IR Inten    --     18.7309                 4.2287                46.7309

 - Thermochemistry -
 -------------------
 Temperature   298.150 Kelvin.  Pressure   1.00000 Atm.
 Atom     1 has atomic number  6 and mass  12.00000

 Molecular mass:   200.06195 amu.
 Principal axes and moments of inertia in atomic units:
                           1         2         3
     Eigenvalues --   927.222386019.651126361.32010
           X            0.99997  -0.00528  -0.00645
           Y            0.00526   0.99998  -0.00329
           Z            0.00646   0.00326   0.99997
 This molecule is an asymmetric top.
 Rotational symmetry number  1.
 Warning -- assumption of classical behavior for rotation
           may cause significant error
 Rotational temperatures (Kelvin)      0.09341     0.01439     0.01362
 Rotational constants (GHZ):           1.94640     0.29981     0.28371
 Zero-point vibrational energy     529348.0 (Joules/Mol)
                                  126.51720 (Kcal/Mol)
 Warning -- explicit consideration of  19 degrees of freedom as
           vibrations may cause significant error
 Vibrational temperatures:     49.02    66.84   102.22   124.67   140.82
          (Kelvin)            180.50   194.28   229.01   297.29   346.21
                              387.95   423.10   465.04   488.17   528.59
                              622.40   663.93   722.33   762.43   902.68
                              931.06  1071.42  1077.63  1106.43  1149.72
                             1165.61  1255.23  1311.03  1333.75  1395.24
                             1440.55  1559.93  1611.84  1624.10  1663.21
                             1705.99  1737.38  1755.58  1844.95  1868.91
                             1890.13  1908.26  1956.59  2009.75  2028.26
                             2077.41  2148.39  2156.05  2175.09  2182.11
                             2184.45  2197.22  2205.22  2214.10  2277.56
                             2301.26  2571.58  4377.17  4390.23  4418.08
                             4421.85  4451.15  4481.77  4491.42  4511.50
                             4527.12  4574.67  4666.42  5230.00

 Zero-point correction=                           0.201618 (Hartree/Particle)
 Thermal correction to Energy=                    0.215652
 Thermal correction to Enthalpy=                  0.216596
 Thermal correction to Gibbs Free Energy=         0.159285
 Sum of electronic and zero-point Energies=           -970.071118
 Sum of electronic and thermal Energies=              -970.057083
 Sum of electronic and thermal Enthalpies=            -970.056139
 Sum of electronic and thermal Free Energies=         -970.113451

                     E (Thermal)             CV                S
                      KCal/Mol        Cal/Mol-Kelvin    Cal/Mol-Kelvin
 Total                  135.324             49.509            120.622
 Electronic               0.000              0.000              0.000
 Translational            0.889              2.981             41.785
 Rotational               0.889              2.981             31.940
 Vibrational            133.546             43.547             46.897
 Vibration     1          0.594              1.983              5.577
 Vibration     2          0.595              1.979              4.963
 Vibration     3          0.598              1.968              4.124
 Vibration     4          0.601              1.959              3.734
 Vibration     5          0.603              1.951              3.496
 Vibration     6          0.610              1.928              3.015
 Vibration     7          0.613              1.918              2.873
 Vibration     8          0.621              1.892              2.560
 Vibration     9          0.641              1.830              2.073
 Vibration    10          0.658              1.778              1.798
 Vibration    11          0.674              1.729              1.599
 Vibration    12          0.689              1.685              1.450
 Vibration    13          0.708              1.629              1.294
 Vibration    14          0.719              1.597              1.215
 Vibration    15          0.740              1.539              1.091
 Vibration    16          0.793              1.399              0.850
 Vibration    17          0.819              1.336              0.762
 Vibration    18          0.857              1.245              0.653
 Vibration    19          0.885              1.184              0.587

 Optimization completed.
    -- Stationary point found.
 Normal termination of Gaussian 16 at Wed Dec  9 22:41:31 2020.

 ----------------------------------------------------------------------
 # B3LYP/6-311++G(d,p) empiricaldispersion=gd3bj scf=xqc pop=npa geom=c
 heck
 ----------------------------------------------------------------------

 --------------------------------------
 CID_19017692_JID_3248_Energie_neutraal
 --------------------------------------
 Structure from the checkpoint file:  "JID_3248.chk"
 Charge =  0 Multiplicity = 1

 SCF Done:  E(RB3LYP) =  -970.464980187     A.U. after   16 cycles
 Normal termination of Gaussian 16 at Wed Dec  9 22:44:24 2020.

 ----------------------------------------------------------------------
 # B3LYP/6-311++G(d,p) empiricaldispersion=gd3bj scf=xqc pop=npa geom=c
 heck
 ----------------------------------------------------------------------

 ------------------------------------
 CID_19017692_JID_3248_Energie_kation
 ------------------------------------
 Structure from the checkpoint file:  "JID_3248.chk"
 Charge =  1 Multiplicity = 2

 SCF Done:  E(UB3LYP) =  -970.175687303     A.U. after   24 cycles
 Normal termination of Gaussian 16 at Wed Dec  9 22:50:35 2020.
 Gaussian 16:  ES64L-G16RevA.03 25-Dec-2016

 ----------------------------------------------------------------------
 # B3LYP/6-311++G(d,p) empiricaldispersion=gd3bj scf=xqc pop=npa geom=c
 heck
 ----------------------------------------------------------------------

 -----------------------------------
 CID_19017692_JID_3248_Energie_anion
 -----------------------------------
 Structure from the checkpoint file:  "JID_3248.chk"
 Charge = -1 Multiplicity = 2

                         Standard orientation:
 ---------------------------------------------------------------------
 Center     Atomic      Atomic             Coordinates (Angstroms)
 Number     Number       Type             X           Y           Z
 ---------------------------------------------------------------------
      1          6           0       -4.321760    0.065736    1.536041
      2          6           0       -3.874145   -0.950002    0.483352
      3          6           0       -3.475111   -0.307310   -0.850795
      4          7           0       -2.371345    0.647562   -0.742764
      5          6           0       -1.099512    0.226451   -0.530806
      6          7           0       -0.729156   -1.036697   -0.617281
      7          6           0        0.613569   -1.147927   -0.398695
      8          6           0        1.304170    0.006318   -0.133321
      9         16           0        0.194237    1.373181   -0.162125
     10          6           0        2.716163    0.221154    0.148069
     11          8           0        3.222596    1.305487    0.376161
     12          8           0        3.411431   -0.944089    0.126381
     13          6           0        4.813724   -0.811160    0.395018
     14          1           0       -3.511646    0.759985    1.788112
     15          1           0       -4.623188   -0.432856    2.462936
     16          1           0       -5.176217    0.657650    1.183291
     17          1           0       -3.022662   -1.531561    0.852948
     18          1           0       -4.683510   -1.664075    0.282316
     19          1           0       -3.168785   -1.077602   -1.562624
     20          1           0       -4.320462    0.238177   -1.284801
     21          1           0       -2.595913    1.591754   -0.465406
     22          1           0        1.079149   -2.125776   -0.435852
     23          1           0        5.289279   -0.166169   -0.348770
     24          1           0        4.977316   -0.384720    1.388394
     25          1           0        5.217550   -1.822508    0.340262
 ---------------------------------------------------------------------

 SCF Done:  E(UB3LYP) =  -970.463828199     A.U. after   32 cycles

 The electronic state is 2-A.
 Alpha  occ. eigenvalues --  -88.74124 -19.04025 -18.96488 -14.21913 -14.17225
 Alpha  occ. eigenvalues --  -10.15515 -10.12929 -10.12130 -10.09481 -10.06368
 Alpha  occ. eigenvalues --  -10.05846 -10.05704 -10.05245  -7.82754  -5.79065
 Alpha  occ. eigenvalues --   -5.78732  -5.78279  -0.97679  -0.88362  -0.85811
 Alpha  occ. eigenvalues --   -0.79350  -0.67437  -0.67000  -0.62920  -0.59847
 Alpha  occ. eigenvalues --   -0.56729  -0.50911  -0.49146  -0.44858  -0.43310
 Alpha  occ. eigenvalues --   -0.39837  -0.38787  -0.36945  -0.35787  -0.34556
 Alpha  occ. eigenvalues --   -0.33181  -0.32098  -0.31551  -0.30086  -0.29316
 Alpha  occ. eigenvalues --   -0.27969  -0.27526  -0.24852  -0.24591  -0.24192
 Alpha  occ. eigenvalues --   -0.23237  -0.22849  -0.18773  -0.18158  -0.16441
 Alpha  occ. eigenvalues --   -0.14926  -0.13833  -0.08612   0.04485
 Alpha virt. eigenvalues --    0.06564   0.07473   0.08349   0.08917   0.10183
 Alpha virt. eigenvalues --    0.10720   0.11229   0.11637   0.11705   0.12287
 Alpha virt. eigenvalues --    0.13249   0.13330   0.13933   0.14647   0.15238

  Beta  occ. eigenvalues --  -88.74106 -19.03980 -18.96288 -14.21850 -14.17346
  Beta  occ. eigenvalues --  -10.15324 -10.12631 -10.12132 -10.09472 -10.06095
  Beta  occ. eigenvalues --  -10.05833 -10.05647 -10.05202  -7.82738  -5.79060
  Beta  occ. eigenvalues --   -5.78727  -5.78213  -0.97487  -0.88056  -0.85580
  Beta  occ. eigenvalues --   -0.79228  -0.67366  -0.66844  -0.62762  -0.59628
  Beta  occ. eigenvalues --   -0.56539  -0.50543  -0.48995  -0.44678  -0.43136
  Beta  occ. eigenvalues --   -0.39660  -0.38668  -0.36680  -0.35657  -0.34393
  Beta  occ. eigenvalues --   -0.33088  -0.31930  -0.31433  -0.29644  -0.28969
  Beta  occ. eigenvalues --   -0.27700  -0.27008  -0.24638  -0.24494  -0.24119
  Beta  occ. eigenvalues --   -0.23186  -0.22691  -0.18208  -0.17374  -0.16365
  Beta  occ. eigenvalues --   -0.14602  -0.13767  -0.07771
  Beta virt. eigenvalues --    0.07185   0.07459   0.08857   0.09105   0.09497
  Beta virt. eigenvalues --    0.10315   0.10869   0.11404   0.11624   0.11930
  Beta virt. eigenvalues --    0.12472   0.13304   0.13485   0.14161   0.14999

 Mulliken charges and spin densities:
               1          2
     1  C    0.830771  -1.490283
     2  C   -0.498747   0.558429
     3  C    0.084851  -0.409542
     4  N   -0.025728   0.025146
     5  C    0.035952   0.016789
     6  N   -0.073472  -0.074749
     7  C   -0.020032   0.317161
     8  C    0.332953  -0.050902
     9  S   -0.225716  -0.097101
    10  C   -0.533175   0.035518
    11  O   -0.369233   0.066801
    12  O   -0.134263   0.007309
    13  C   -0.213926  -0.005564
    14  H   -0.121941   0.280208
    15  H   -0.249339   0.371799
    16  H   -0.261230   0.395814
    17  H    0.147228  -0.000811
    18  H   -0.221861   0.351288
    19  H    0.199537  -0.014851
    20  H   -0.276664   0.439812
    21  H   -0.009378   0.280873
    22  H    0.160671  -0.006741
    23  H    0.157532   0.002793
    24  H    0.159477   0.001827
    25  H    0.125733  -0.001020
 Sum of Mulliken charges =  -1.00000   1.00000

 Dipole moment (field-independent basis, Debye):
    X=              4.7322    Y=             -2.2384    Z=             -1.2028  Tot=              5.3713
 Quadrupole moment (field-independent basis, Debye-Ang):
   XX=           -153.6508   YY=           -108.2753   ZZ=           -102.5621
   XY=             -6.7465   XZ=              6.4329   YZ=             -2.4057

 Summary of Natural Population Analysis:

                                       Natural Population
                Natural  -----------------------------------------------
    Atom  No    Charge         Core      Valence    Rydberg      Total
 -----------------------------------------------------------------------
      C    1   -0.28913      0.99967     2.28422    0.00524     3.28913
      C    2   -0.19998      0.99964     2.19188    0.00847     3.19998
      C    3   -0.08517      0.99962     2.07300    0.01255     3.08517
      N    4   -0.30986      0.99965     2.79855    0.01167     3.80986
      C    5    0.18904      0.99961     1.78987    0.02148     2.81096
      N    6   -0.31052      0.99966     2.80003    0.01083     3.81052
      C    7    0.07269      0.99951     1.91506    0.01274     2.92731
      C    8   -0.17696      0.99944     2.16450    0.01302     3.17696
      S    9    0.16846      4.99946     2.81179    0.02029     7.83154
      C   10    0.40415      0.99957     1.57341    0.02287     2.59585
      O   11   -0.30928      0.99988     3.30395    0.00545     4.30928
      O   12   -0.28093      0.99986     3.27336    0.00771     4.28093
      C   13   -0.10454      0.99961     2.09643    0.00849     3.10454
      H   14    0.09924      0.00000     0.39951    0.00125     0.40076
      H   15    0.09807      0.00000     0.40104    0.00089     0.40193
      H   16    0.09553      0.00000     0.40252    0.00195     0.40447
      H   17    0.10450      0.00000     0.39390    0.00161     0.39550
      H   18    0.09304      0.00000     0.40580    0.00117     0.40696
      H   19    0.10355      0.00000     0.39496    0.00149     0.39645
      H   20    0.09229      0.00000     0.40666    0.00104     0.40771
      H   21    0.19319      0.00000     0.30470    0.00211     0.30681
      H   22    0.09484      0.00000     0.40422    0.00094     0.40516
      H   23    0.08713      0.00000     0.41167    0.00120     0.41287
      H   24    0.08737      0.00000     0.41143    0.00120     0.41263
      H   25    0.08327      0.00000     0.41593    0.00080     0.41673
 =======================================================================
   * Total *   -0.00000     16.99516    35.82838    0.17647    53.00000

 Normal termination of Gaussian 16 at Wed Dec  9 22:59:27 2020.
