 Gaussian 16, Revision A.03,

 -----------------------------------------------------------
 # opt freq B3LYP/6-31G(d) empiricaldispersion=gd3bj scf=xqc
 -----------------------------------------------------------

 -------------------------------
 CID_152405573_JID_4781_neutraal
 -------------------------------
 Symbolic Z-matrix:
 Charge =  0 Multiplicity = 1

 SCF Done:  E(RB3LYP) =  -1029.37452164     A.U. after   15 cycles
 SCF Done:  E(RB3LYP) =  -1029.38159949     A.U. after   12 cycles
 SCF Done:  E(RB3LYP) =  -1029.38283002     A.U. after   11 cycles
 SCF Done:  E(RB3LYP) =  -1029.38308934     A.U. after   12 cycles
 SCF Done:  E(RB3LYP) =  -1029.38320046     A.U. after   12 cycles
 SCF Done:  E(RB3LYP) =  -1029.38322964     A.U. after   11 cycles
 SCF Done:  E(RB3LYP) =  -1029.38324017     A.U. after   10 cycles
 SCF Done:  E(RB3LYP) =  -1029.38325050     A.U. after   11 cycles
 SCF Done:  E(RB3LYP) =  -1029.38325996     A.U. after   11 cycles
 SCF Done:  E(RB3LYP) =  -1029.38327085     A.U. after   11 cycles
 SCF Done:  E(RB3LYP) =  -1029.38569350     A.U. after   11 cycles
 SCF Done:  E(RB3LYP) =  -1029.38570023     A.U. after    9 cycles
 SCF Done:  E(RB3LYP) =  -1029.38570136     A.U. after    8 cycles
 SCF Done:  E(RB3LYP) =  -1029.38570157     A.U. after    7 cycles
 Optimization completed.
    -- Stationary point found.
 Normal termination of Gaussian 16 at Thu Dec 10 10:54:29 2020.

 --------------------------------------------------------------------
 #N Geom=AllCheck Guess=TCheck SCRF=Check GenChk RB3LYP/6-31G(d) Freq
 --------------------------------------------------------------------

 Structure from the checkpoint file:  "JID_4781.chk"
 -------------------------------
 CID_152405573_JID_4781_neutraal
 -------------------------------
 Charge =  0 Multiplicity = 1

 SCF Done:  E(RB3LYP) =  -1029.38570157     A.U. after    1 cycles

  Exact polarizability: 158.998 -10.517 104.531  -8.468 -13.891 104.076
 Approx polarizability: 207.018 -20.738 171.554 -17.269 -34.625 177.456

                      1                      2                      3
                      A                      A                      A
 Frequencies --     34.3703                35.5189                63.9312
 Red. masses --      4.4837                 3.3638                 4.6604
 Frc consts  --      0.0031                 0.0025                 0.0112
 IR Inten    --      3.0986                 0.5744                 1.4510

                      4                      5                      6
                      A                      A                      A
 Frequencies --     94.6732               164.3556               196.2153
 Red. masses --      5.1712                 6.4023                 5.3063
 Frc consts  --      0.0273                 0.1019                 0.1204
 IR Inten    --      0.2297                 0.9286                 5.2871

                      7                      8                      9
                      A                      A                      A
 Frequencies --    219.8376               233.4838               266.9866
 Red. masses --      1.0197                 4.7982                 1.1833
 Frc consts  --      0.0290                 0.1541                 0.0497
 IR Inten    --      0.0543                 0.9628                 0.6934

                     10                     11                     12
                      A                      A                      A
 Frequencies --    276.1790               293.7453               296.0419
 Red. masses --      2.6961                 2.9322                 1.1986
 Frc consts  --      0.1212                 0.1491                 0.0619
 IR Inten    --      1.2880                 4.8833                 0.4751

                     13                     14                     15
                      A                      A                      A
 Frequencies --    313.2169               357.1184               393.0410
 Red. masses --      4.8140                 3.6086                 2.6201
 Frc consts  --      0.2783                 0.2711                 0.2385
 IR Inten    --      2.5120                 0.7968                 0.3861

                     16                     17                     18
                      A                      A                      A
 Frequencies --    409.7185               419.8942               447.5668
 Red. masses --      3.3042                 3.6308                 3.0020
 Frc consts  --      0.3268                 0.3772                 0.3543
 IR Inten    --      0.2201                 4.4582                 7.7446

                     19                     20                     21
                      A                      A                      A
 Frequencies --    492.7345               496.8936               539.0627
 Red. masses --      6.3875                 3.7183                 5.7757
 Frc consts  --      0.9137                 0.5409                 0.9889
 IR Inten    --     14.4798                 5.7905                31.8368

                     22                     23                     24
                      A                      A                      A
 Frequencies --    618.1892               633.8214               693.6125
 Red. masses --      8.0941                 7.6883                 5.9832
 Frc consts  --      1.8225                 1.8198                 1.6960
 IR Inten    --     81.7244                38.8178                34.6517

                     25                     26                     27
                      A                      A                      A
 Frequencies --    751.9356               754.6930               792.8653
 Red. masses --      5.1391                 3.6524                 1.5204
 Frc consts  --      1.7120                 1.2257                 0.5631
 IR Inten    --     10.3641                 4.7589                19.0864

                     28                     29                     30
                      A                      A                      A
 Frequencies --    817.9470               877.4545               925.1217
 Red. masses --      3.6485                 6.1884                 1.2730
 Frc consts  --      1.4382                 2.8073                 0.6419
 IR Inten    --     97.7328               511.9623                 1.3546

                     31                     32                     33
                      A                      A                      A
 Frequencies --    938.0172               946.4164               983.6521
 Red. masses --      1.6341                 1.6767                 1.4059
 Frc consts  --      0.8471                 0.8848                 0.8015
 IR Inten    --      0.4988                29.3761                 0.3121

                     34                     35                     36
                      A                      A                      A
 Frequencies --    987.4386              1012.9036              1017.3549
 Red. masses --      1.2028                 7.3374                 1.3020
 Frc consts  --      0.6910                 4.4354                 0.7940
 IR Inten    --      0.9017                 6.5879                 0.0555

                     37                     38                     39
                      A                      A                      A
 Frequencies --   1067.8770              1072.4407              1073.7116
 Red. masses --      1.4132                 2.5084                 1.4374
 Frc consts  --      0.9495                 1.6998                 0.9763
 IR Inten    --      0.8670                 3.4954                 1.0022

                     40                     41                     42
                      A                      A                      A
 Frequencies --   1102.1996              1131.2273              1178.2338
 Red. masses --      3.0692                 2.0233                 4.0716
 Frc consts  --      2.1969                 1.5255                 3.3303
 IR Inten    --     65.8550                44.5555                35.3194

                     43                     44                     45
                      A                      A                      A
 Frequencies --   1185.0697              1224.5699              1287.0924
 Red. masses --      1.1479                 2.1970                 2.7492
 Frc consts  --      0.9498                 1.9411                 2.6833
 IR Inten    --      1.4443               114.0428                 4.9714

                     46                     47                     48
                      A                      A                      A
 Frequencies --   1300.3648              1317.9811              1326.2310
 Red. masses --      2.7747                 3.9874                 4.2753
 Frc consts  --      2.7644                 4.0809                 4.4306
 IR Inten    --     21.7001                63.2899               112.6721

                     49                     50                     51
                      A                      A                      A
 Frequencies --   1337.7969              1430.1754              1433.6819
 Red. masses --      2.4745                 1.2796                 1.2700
 Frc consts  --      2.6093                 1.5421                 1.5381
 IR Inten    --      6.4202                10.7666                14.5992

                     52                     53                     54
                      A                      A                      A
 Frequencies --   1459.0191              1472.6637              1500.3280
 Red. masses --      1.2266                 2.1261                 1.0468
 Frc consts  --      1.5385                 2.7167                 1.3883
 IR Inten    --     15.1374                27.5509                 1.0020

                     55                     56                     57
                      A                      A                      A
 Frequencies --   1505.1354              1515.7024              1518.7117
 Red. masses --      2.1234                 1.0499                 1.0479
 Frc consts  --      2.8342                 1.4211                 1.4240
 IR Inten    --     12.8922                 1.0198                 0.4183

                     58                     59                     60
                      A                      A                      A
 Frequencies --   1527.0496              1534.4670              1551.6317
 Red. masses --      1.0619                 1.0566                 1.0529
 Frc consts  --      1.4590                 1.4658                 1.4935
 IR Inten    --      2.6861                 2.4283                 9.0006

                     61                     62                     63
                      A                      A                      A
 Frequencies --   1629.4841              1638.8253              3060.8898
 Red. masses --      5.3133                 5.9820                 1.0360
 Frc consts  --      8.3121                 9.4659                 5.7186
 IR Inten    --     18.1125                15.7986                 8.4357

                     64                     65                     66
                      A                      A                      A
 Frequencies --   3063.8426              3071.5592              3127.5994
 Red. masses --      1.0366                 1.0373                 1.1022
 Frc consts  --      5.7333                 5.7662                 6.3523
 IR Inten    --     15.6915                17.7729                 7.5665

                     67                     68                     69
                      A                      A                      A
 Frequencies --   3134.9771              3140.3766              3145.5747
 Red. masses --      1.1012                 1.1011                 1.1037
 Frc consts  --      6.3764                 6.3981                 6.4342
 IR Inten    --      8.5749                47.7479                17.7832

                     70                     71                     72
                      A                      A                      A
 Frequencies --   3160.2647              3167.9274              3190.2241
 Red. masses --      1.1041                 1.1009                 1.0892
 Frc consts  --      6.4968                 6.5096                 6.5316
 IR Inten    --      9.1684                 7.6962                12.9722

                     73                     74                     75
                      A                      A                      A
 Frequencies --   3206.3342              3223.0195              3249.9988
 Red. masses --      1.0898                 1.0965                 1.0937
 Frc consts  --      6.6009                 6.7110                 6.8061
 IR Inten    --     10.2850                15.5875                 1.8651

 - Thermochemistry -
 -------------------
 Temperature   298.150 Kelvin.  Pressure   1.00000 Atm.
 Atom     1 has atomic number  6 and mass  12.00000

 Molecular mass:   215.06162 amu.
 Principal axes and moments of inertia in atomic units:
                           1         2         3
     Eigenvalues --  1442.898204662.265704817.89539
           X            0.99996   0.00886   0.00060
           Y           -0.00878   0.99665  -0.08131
           Z           -0.00132   0.08131   0.99669
 This molecule is an asymmetric top.
 Rotational symmetry number  1.
 Warning -- assumption of classical behavior for rotation
           may cause significant error
 Rotational temperatures (Kelvin)      0.06003     0.01858     0.01798
 Rotational constants (GHZ):           1.25078     0.38710     0.37459
 Zero-point vibrational energy     568586.7 (Joules/Mol)
                                  135.89547 (Kcal/Mol)
 Warning -- explicit consideration of  22 degrees of freedom as
           vibrations may cause significant error
 Vibrational temperatures:     49.45    51.10    91.98   136.21   236.47
          (Kelvin)            282.31   316.30   335.93   384.13   397.36
                              422.63   425.94   450.65   513.81   565.50
                              589.49   604.13   643.95   708.94   714.92
                              775.59   889.44   911.93   997.95  1081.87
                             1085.83  1140.76  1176.84  1262.46  1331.04
                             1349.60  1361.68  1415.26  1420.70  1457.34
                             1463.75  1536.44  1543.00  1544.83  1585.82
                             1627.58  1695.22  1705.05  1761.88  1851.84
                             1870.93  1896.28  1908.15  1924.79  2057.70
                             2062.75  2099.20  2118.83  2158.64  2165.55
                             2180.76  2185.09  2197.08  2207.76  2232.45
                             2344.46  2357.90  4403.94  4408.19  4419.29
                             4499.92  4510.53  4518.30  4525.78  4546.92
                             4557.94  4590.02  4613.20  4637.21  4676.02

 Zero-point correction=                           0.216563 (Hartree/Particle)
 Thermal correction to Energy=                    0.230647
 Thermal correction to Enthalpy=                  0.231591
 Thermal correction to Gibbs Free Energy=         0.175053
 Sum of electronic and zero-point Energies=          -1029.169138
 Sum of electronic and thermal Energies=             -1029.155055
 Sum of electronic and thermal Enthalpies=           -1029.154110
 Sum of electronic and thermal Free Energies=        -1029.210649

                     E (Thermal)             CV                S
                      KCal/Mol        Cal/Mol-Kelvin    Cal/Mol-Kelvin
 Total                  144.733             53.282            118.995
 Electronic               0.000              0.000              0.000
 Translational            0.889              2.981             42.001
 Rotational               0.889              2.981             31.850
 Vibrational            142.956             47.320             45.144
 Vibration     1          0.594              1.983              5.560
 Vibration     2          0.594              1.982              5.495
 Vibration     3          0.597              1.972              4.332
 Vibration     4          0.603              1.953              3.561
 Vibration     5          0.623              1.886              2.499
 Vibration     6          0.636              1.845              2.168
 Vibration     7          0.647              1.811              1.960
 Vibration     8          0.654              1.790              1.852
 Vibration     9          0.672              1.734              1.616
 Vibration    10          0.678              1.717              1.557
 Vibration    11          0.689              1.685              1.452
 Vibration    12          0.690              1.681              1.439
 Vibration    13          0.701              1.648              1.345
 Vibration    14          0.732              1.561              1.135
 Vibration    15          0.760              1.485              0.989
 Vibration    16          0.774              1.449              0.928
 Vibration    17          0.783              1.427              0.892
 Vibration    18          0.807              1.366              0.803
 Vibration    19          0.848              1.266              0.677
 Vibration    20          0.852              1.257              0.666
 Vibration    21          0.894              1.164              0.567
 Vibration    22          0.978              0.993              0.419

 Optimization completed.
    -- Stationary point found.
 Normal termination of Gaussian 16 at Thu Dec 10 11:01:58 2020.

 ----------------------------------------------------------------------
 # B3LYP/6-311++G(d,p) empiricaldispersion=gd3bj scf=xqc pop=npa geom=c
 heck
 ----------------------------------------------------------------------

 ---------------------------------------
 CID_152405573_JID_4781_Energie_neutraal
 ---------------------------------------
 Structure from the checkpoint file:  "JID_4781.chk"
 Charge =  0 Multiplicity = 1

 SCF Done:  E(RB3LYP) =  -1029.58702349     A.U. after   16 cycles
 Normal termination of Gaussian 16 at Thu Dec 10 11:05:39 2020.

 ----------------------------------------------------------------------
 # B3LYP/6-311++G(d,p) empiricaldispersion=gd3bj scf=xqc pop=npa geom=c
 heck
 ----------------------------------------------------------------------

 -------------------------------------
 CID_152405573_JID_4781_Energie_kation
 -------------------------------------
 Structure from the checkpoint file:  "JID_4781.chk"
 Charge =  1 Multiplicity = 2

 SCF Done:  E(UB3LYP) =  -1029.23557424     A.U. after   33 cycles
 SCF Done:  E(UB3LYP) =  -1029.23557424     a.u. after    1 cycles
 Normal termination of Gaussian 16 at Thu Dec 10 11:13:52 2020.
 Gaussian 16:  ES64L-G16RevA.03 25-Dec-2016

 ----------------------------------------------------------------------
 # B3LYP/6-311++G(d,p) empiricaldispersion=gd3bj scf=xqc pop=npa geom=c
 heck
 ----------------------------------------------------------------------

 ------------------------------------
 CID_152405573_JID_4781_Energie_anion
 ------------------------------------
 Structure from the checkpoint file:  "JID_4781.chk"
 Charge = -1 Multiplicity = 2

                         Standard orientation:
 ---------------------------------------------------------------------
 Center     Atomic      Atomic             Coordinates (Angstroms)
 Number     Number       Type             X           Y           Z
 ---------------------------------------------------------------------
      1          6           0        2.848245    2.006518    0.149384
      2          6           0        2.462811    0.538813    0.310589
      3          6           0        3.231495   -0.344087   -0.671814
      4          6           0        2.621819    0.070332    1.755739
      5          8           0        1.006764    0.565221   -0.009558
      6         16           0        0.210589   -0.777370   -0.458149
      7          8           0        0.374301   -1.004633   -1.889860
      8          8           0        0.484129   -1.870975    0.482084
      9          6           0       -1.452354   -0.157251   -0.117647
     10          6           0       -2.187121   -0.757587    0.900860
     11          6           0       -3.478114   -0.273918    1.115074
     12          6           0       -3.948433    0.765794    0.315558
     13          6           0       -3.109950    1.284764   -0.674822
     14          7           0       -1.873394    0.829932   -0.897846
     15          1           0        3.902975    2.142306    0.410915
     16          1           0        2.242282    2.636548    0.807307
     17          1           0        2.695896    2.332174   -0.883492
     18          1           0        4.303983   -0.231963   -0.480266
     19          1           0        2.974442   -1.399326   -0.549726
     20          1           0        3.025830   -0.050988   -1.704180
     21          1           0        2.029634    0.702183    2.425068
     22          1           0        2.293503   -0.964559    1.867434
     23          1           0        3.674006    0.142903    2.052375
     24          1           0       -1.757277   -1.561367    1.485673
     25          1           0       -4.102859   -0.703038    1.892663
     26          1           0       -4.946453    1.170316    0.450204
     27          1           0       -3.443550    2.096056   -1.317524
 ---------------------------------------------------------------------

 SCF Done:  E(UB3LYP) =  -1029.59156555     A.U. after   33 cycles
 SCF Done:  E(UB3LYP) =  -1029.59156555     a.u. after    1 cycles

 The electronic state is 2-A.
 Alpha  occ. eigenvalues --  -88.93020 -19.03300 -18.98538 -18.98202 -14.15025
 Alpha  occ. eigenvalues --  -10.13996 -10.06978 -10.06708 -10.06289 -10.05999
 Alpha  occ. eigenvalues --  -10.05746 -10.04692 -10.03486 -10.02811  -7.99125
 Alpha  occ. eigenvalues --   -5.95539  -5.95345  -5.95112  -1.00598  -0.90635
 Alpha  occ. eigenvalues --   -0.87604  -0.80328  -0.70863  -0.66171  -0.63329
 Alpha  occ. eigenvalues --   -0.59731  -0.59392  -0.55201  -0.49379  -0.48635
 Alpha  occ. eigenvalues --   -0.43634  -0.40547  -0.38462  -0.36430  -0.35948
 Alpha  occ. eigenvalues --   -0.34672  -0.34032  -0.32799  -0.32096  -0.31334
 Alpha  occ. eigenvalues --   -0.29975  -0.29392  -0.27148  -0.26870  -0.26754
 Alpha  occ. eigenvalues --   -0.25570  -0.25517  -0.24894  -0.24095  -0.21941
 Alpha  occ. eigenvalues --   -0.20451  -0.18917  -0.18250  -0.15925  -0.15535
 Alpha  occ. eigenvalues --   -0.13264  -0.11784   0.04925
 Alpha virt. eigenvalues --    0.06503   0.08698   0.09292   0.09629   0.10323
 Alpha virt. eigenvalues --    0.10412   0.11108   0.11922   0.12512   0.12985
 Alpha virt. eigenvalues --    0.13227   0.13787   0.14597   0.15679   0.16320

  Beta  occ. eigenvalues --  -88.93007 -19.03240 -18.98507 -18.98156 -14.14505
  Beta  occ. eigenvalues --  -10.13960 -10.06812 -10.06657 -10.06277 -10.05994
  Beta  occ. eigenvalues --  -10.05741 -10.04783 -10.03205 -10.02532  -7.99111
  Beta  occ. eigenvalues --   -5.95487  -5.95333  -5.95113  -1.00476  -0.90510
  Beta  occ. eigenvalues --   -0.87528  -0.79568  -0.70786  -0.65537  -0.62843
  Beta  occ. eigenvalues --   -0.59708  -0.59373  -0.54899  -0.49132  -0.48153
  Beta  occ. eigenvalues --   -0.43410  -0.40385  -0.38366  -0.36319  -0.35877
  Beta  occ. eigenvalues --   -0.34488  -0.33852  -0.32674  -0.32022  -0.31221
  Beta  occ. eigenvalues --   -0.29933  -0.29292  -0.27072  -0.26564  -0.26200
  Beta  occ. eigenvalues --   -0.25502  -0.24842  -0.24681  -0.23915  -0.21822
  Beta  occ. eigenvalues --   -0.20306  -0.18832  -0.17946  -0.15770  -0.13494
  Beta  occ. eigenvalues --   -0.11864  -0.11196
  Beta virt. eigenvalues --    0.07077   0.08662   0.09421   0.09648   0.10295
  Beta virt. eigenvalues --    0.10409   0.11280   0.11393   0.11839   0.12402
  Beta virt. eigenvalues --    0.12839   0.13217   0.13804   0.14591   0.15607

 Mulliken charges and spin densities:
               1          2
     1  C    0.009857  -0.457455
     2  C   -0.479078   0.355396
     3  C   -0.252877  -0.176974
     4  C   -0.232713  -0.169582
     5  O    0.206177  -0.024983
     6  S    0.038602   0.034052
     7  O   -0.034934  -0.016778
     8  O   -0.196188   0.002759
     9  C   -1.611829   0.168143
    10  C    1.085648  -0.031108
    11  C   -0.683629   0.193940
    12  C    0.021558   0.271013
    13  C   -0.237297  -0.070573
    14  N    0.047567   0.241303
    15  H   -0.154182   0.291316
    16  H    0.110686   0.040717
    17  H    0.127192   0.034245
    18  H   -0.011192   0.147065
    19  H    0.185633   0.023601
    20  H    0.179640  -0.004333
    21  H    0.138519  -0.000689
    22  H    0.166672   0.012343
    23  H   -0.022061   0.155857
    24  H    0.218723   0.006606
    25  H    0.120859  -0.016951
    26  H    0.113628  -0.013461
    27  H    0.145018   0.004531
 Sum of Mulliken charges =  -1.00000   1.00000

 Dipole moment (field-independent basis, Debye):
    X=              1.4172    Y=              0.5714    Z=              2.0242  Tot=              2.5362
 Quadrupole moment (field-independent basis, Debye-Ang):
   XX=           -133.8339   YY=           -110.3545   ZZ=           -108.8496
   XY=             -1.8237   XZ=             -3.6083   YZ=             -2.6838

 Summary of Natural Population Analysis:

                                       Natural Population
                Natural  -----------------------------------------------
    Atom  No    Charge         Core      Valence    Rydberg      Total
 -----------------------------------------------------------------------
      C    1   -0.29070      0.99960     2.28325    0.00785     3.29070
      C    2    0.13670      0.99955     1.85026    0.01349     2.86330
      C    3   -0.30805      0.99960     2.30054    0.00791     3.30805
      C    4   -0.30118      0.99960     2.29425    0.00733     3.30118
      O    5   -0.38056      0.99989     3.37048    0.01020     4.38056
      S    6    1.13381      4.99925     1.76732    0.09963     6.86619
      O    7   -0.45341      0.99990     3.44817    0.00534     4.45341
      O    8   -0.47506      0.99990     3.47030    0.00485     4.47506
      C    9    0.04419      0.99939     1.93708    0.01934     2.95581
      C   10   -0.13511      0.99950     2.12691    0.00870     3.13511
      C   11   -0.04673      0.99958     2.03764    0.00951     3.04673
      C   12   -0.07682      0.99957     2.06808    0.00917     3.07682
      C   13    0.00047      0.99960     1.98492    0.01501     2.99953
      N   14   -0.15822      0.99965     2.64764    0.01094     3.65822
      H   15    0.09948      0.00000     0.39931    0.00121     0.40052
      H   16    0.10408      0.00000     0.39506    0.00086     0.39592
      H   17    0.10451      0.00000     0.39453    0.00095     0.39549
      H   18    0.09999      0.00000     0.39903    0.00098     0.40001
      H   19    0.10980      0.00000     0.38888    0.00132     0.39020
      H   20    0.10986      0.00000     0.38919    0.00094     0.39014
      H   21    0.10242      0.00000     0.39678    0.00080     0.39758
      H   22    0.11516      0.00000     0.38387    0.00097     0.38484
      H   23    0.09720      0.00000     0.40196    0.00084     0.40280
      H   24    0.10994      0.00000     0.38891    0.00115     0.39006
      H   25    0.08851      0.00000     0.41043    0.00106     0.41149
      H   26    0.08919      0.00000     0.40967    0.00114     0.41081
      H   27    0.08052      0.00000     0.41822    0.00126     0.41948
 =======================================================================
   * Total *   -0.00000     17.99458    38.76267    0.24275    57.00000

 Normal termination of Gaussian 16 at Thu Dec 10 11:21:48 2020.
