 Gaussian 16, Revision A.03,

 -----------------------------------------------------------
 # opt freq B3LYP/6-31G(d) empiricaldispersion=gd3bj scf=xqc
 -----------------------------------------------------------

 -------------------------------
 CID_154142877_JID_1919_neutraal
 -------------------------------
 Symbolic Z-matrix:
 Charge =  0 Multiplicity = 1

 SCF Done:  E(RB3LYP) =  -1502.96454025     A.U. after   16 cycles
 SCF Done:  E(RB3LYP) =  -1502.98908785     A.U. after   13 cycles
 SCF Done:  E(RB3LYP) =  -1502.99379226     A.U. after   13 cycles
 SCF Done:  E(RB3LYP) =  -1502.99410072     A.U. after   11 cycles
 SCF Done:  E(RB3LYP) =  -1502.99416985     A.U. after   10 cycles
 SCF Done:  E(RB3LYP) =  -1502.99417607     A.U. after    9 cycles
 SCF Done:  E(RB3LYP) =  -1502.99417793     A.U. after    9 cycles
 Optimization completed.
    -- Stationary point found.
 Normal termination of Gaussian 16 at Tue Dec  8 21:38:59 2020.

 --------------------------------------------------------------------
 #N Geom=AllCheck Guess=TCheck SCRF=Check GenChk RB3LYP/6-31G(d) Freq
 --------------------------------------------------------------------

 Structure from the checkpoint file:  "JID_1919.chk"
 -------------------------------
 CID_154142877_JID_1919_neutraal
 -------------------------------
 Charge =  0 Multiplicity = 1

 SCF Done:  E(RB3LYP) =  -1502.99417793     A.U. after    1 cycles

  Exact polarizability: 179.854  -4.640 124.394  -0.000   0.000 107.200
 Approx polarizability: 296.515 -16.119 224.739  -0.000   0.001 218.611

                      1                      2                      3
                      A                      A                      A
 Frequencies --     80.5652                87.6502               162.3554
 Red. masses --     10.0897                 5.6855                 9.9669
 Frc consts  --      0.0386                 0.0257                 0.1548
 IR Inten    --      0.0003                 0.4237                 3.2728

                      4                      5                      6
                      A                      A                      A
 Frequencies --    203.8079               221.0101               241.4560
 Red. masses --     14.3142                 3.8925                 5.1668
 Frc consts  --      0.3503                 0.1120                 0.1775
 IR Inten    --      2.0001                 1.1959                 2.3323

                      7                      8                      9
                      A                      A                      A
 Frequencies --    368.1798               399.3813               406.6808
 Red. masses --      9.4157                 6.9891                 3.2369
 Frc consts  --      0.7520                 0.6568                 0.3154
 IR Inten    --      2.1520                 0.8548                 0.5008

                     10                     11                     12
                      A                      A                      A
 Frequencies --    467.7415               504.2786               551.5975
 Red. masses --      4.2094                 7.0424                 3.3261
 Frc consts  --      0.5426                 1.0551                 0.5963
 IR Inten    --      4.6459                 7.3449                 1.9039

                     13                     14                     15
                      A                      A                      A
 Frequencies --    558.4958               628.4201               634.2562
 Red. masses --      9.3238                10.8703                10.7477
 Frc consts  --      1.7135                 2.5293                 2.5474
 IR Inten    --     22.9596                42.9641               136.7318

                     16                     17                     18
                      A                      A                      A
 Frequencies --    697.3328               711.1931               757.3336
 Red. masses --      2.0792                 7.1609                 1.5494
 Frc consts  --      0.5957                 2.1340                 0.5236
 IR Inten    --     63.8769                 9.4265                 1.4488

                     19                     20                     21
                      A                      A                      A
 Frequencies --    770.2281               774.4584               872.4074
 Red. masses --      6.4530                 1.5708                 3.8405
 Frc consts  --      2.2555                 0.5551                 1.7222
 IR Inten    --      4.5813                66.0569                 1.0569

                     22                     23                     24
                      A                      A                      A
 Frequencies --    881.8325               930.5295               952.3409
 Red. masses --      1.3208                 1.3358                 1.3919
 Frc consts  --      0.6051                 0.6815                 0.7438
 IR Inten    --      2.4920                 5.9209                 1.9395

                     25                     26                     27
                      A                      A                      A
 Frequencies --    993.8280              1048.9255              1054.0878
 Red. masses --      1.2927                 4.6989                 2.2165
 Frc consts  --      0.7523                 3.0460                 1.4510
 IR Inten    --      0.1659                 0.2123                 0.5249

                     28                     29                     30
                      A                      A                      A
 Frequencies --   1102.8536              1154.9566              1194.9227
 Red. masses --      1.1776                 1.4610                 1.1304
 Frc consts  --      0.8439                 1.1482                 0.9510
 IR Inten    --      3.4396                 0.8336                 1.0350

                     31                     32                     33
                      A                      A                      A
 Frequencies --   1227.8096              1295.3955              1334.0511
 Red. masses --      1.7950                 1.6343                 2.0396
 Frc consts  --      1.5944                 1.6158                 2.1386
 IR Inten    --     14.1740                 4.2243                 1.4660

                     34                     35                     36
                      A                      A                      A
 Frequencies --   1386.5832              1489.5569              1508.3168
 Red. masses --      4.5323                 2.3884                 2.4872
 Frc consts  --      5.1340                 3.1222                 3.3338
 IR Inten    --      3.4378                 8.1496                 8.1990

                     37                     38                     39
                      A                      A                      A
 Frequencies --   1611.9267              1646.0877              1659.3581
 Red. masses --      5.4502                 6.3836                 6.5655
 Frc consts  --      8.3435                10.1911                10.6512
 IR Inten    --      1.2737                 0.8916                 0.0638

                     40                     41                     42
                      A                      A                      A
 Frequencies --   3197.5879              3207.7410              3217.2640
 Red. masses --      1.0871                 1.0899                 1.0918
 Frc consts  --      6.5491                 6.6075                 6.6581
 IR Inten    --      1.1624                 8.4306                 6.9424

                     43                     44                     45
                      A                      A                      A
 Frequencies --   3218.2054              3226.6453              3290.9022
 Red. masses --      1.0932                 1.0965                 1.1003
 Frc consts  --      6.6709                 6.7262                 7.0206
 IR Inten    --      6.6635                10.7858                11.2725

 - Thermochemistry -
 -------------------
 Temperature   298.150 Kelvin.  Pressure   1.00000 Atm.
 Atom     1 has atomic number  6 and mass  12.00000

 Molecular mass:   197.96317 amu.
 Principal axes and moments of inertia in atomic units:
                           1         2         3
     Eigenvalues --  1453.438913161.310353279.22536
           X            0.99991   0.01339  -0.00000
           Y           -0.01339   0.99991  -0.00001
           Z            0.00000   0.00001   1.00000
 This molecule is an asymmetric top.
 Rotational symmetry number  1.
 Warning -- assumption of classical behavior for rotation
           may cause significant error
 Rotational temperatures (Kelvin)      0.05959     0.02740     0.02641
 Rotational constants (GHZ):           1.24170     0.57088     0.55036
 Zero-point vibrational energy     310613.6 (Joules/Mol)
                                   74.23843 (Kcal/Mol)
 Warning -- explicit consideration of  13 degrees of freedom as
           vibrations may cause significant error
 Vibrational temperatures:    115.92   126.11   233.59   293.23   317.98
          (Kelvin)            347.40   529.73   574.62   585.12   672.98
                              725.54   793.63   803.55   904.16   912.55
                             1003.31  1023.25  1089.63  1108.19  1114.27
                             1255.20  1268.76  1338.82  1370.21  1429.90
                             1509.17  1516.60  1586.76  1661.72  1719.23
                             1766.54  1863.79  1919.40  1994.98  2143.14
                             2170.13  2319.20  2368.35  2387.45  4600.62
                             4615.22  4628.93  4630.28  4642.42  4734.87

 Zero-point correction=                           0.118306 (Hartree/Particle)
 Thermal correction to Energy=                    0.127878
 Thermal correction to Enthalpy=                  0.128822
 Thermal correction to Gibbs Free Energy=         0.082522
 Sum of electronic and zero-point Energies=          -1502.875871
 Sum of electronic and thermal Energies=             -1502.866300
 Sum of electronic and thermal Enthalpies=           -1502.865356
 Sum of electronic and thermal Free Energies=        -1502.911656

                     E (Thermal)             CV                S
                      KCal/Mol        Cal/Mol-Kelvin    Cal/Mol-Kelvin
 Total                   80.245             36.747             97.447
 Electronic               0.000              0.000              0.000
 Translational            0.889              2.981             41.754
 Rotational               0.889              2.981             31.089
 Vibrational             78.467             30.786             24.604
 Vibration     1          0.600              1.962              3.877
 Vibration     2          0.601              1.958              3.712
 Vibration     3          0.622              1.889              2.522
 Vibration     4          0.639              1.834              2.098
 Vibration     5          0.648              1.809              1.951
 Vibration     6          0.658              1.777              1.792
 Vibration     7          0.741              1.538              1.087
 Vibration     8          0.765              1.471              0.965
 Vibration     9          0.771              1.456              0.938
 Vibration    10          0.825              1.322              0.744
 Vibration    11          0.860              1.241              0.648
 Vibration    12          0.907              1.136              0.541
 Vibration    13          0.914              1.121              0.527

 Optimization completed.
    -- Stationary point found.
 Normal termination of Gaussian 16 at Tue Dec  8 21:43:11 2020.

 ----------------------------------------------------------------------
 # B3LYP/6-311++G(d,p) empiricaldispersion=gd3bj scf=xqc pop=npa geom=c
 heck
 ----------------------------------------------------------------------

 ---------------------------------------
 CID_154142877_JID_1919_Energie_neutraal
 ---------------------------------------
 Structure from the checkpoint file:  "JID_1919.chk"
 Charge =  0 Multiplicity = 1

 SCF Done:  E(RB3LYP) =  -1503.14840542     A.U. after   17 cycles
 Normal termination of Gaussian 16 at Tue Dec  8 21:45:54 2020.

 ----------------------------------------------------------------------
 # B3LYP/6-311++G(d,p) empiricaldispersion=gd3bj scf=xqc pop=npa geom=c
 heck
 ----------------------------------------------------------------------

 -------------------------------------
 CID_154142877_JID_1919_Energie_kation
 -------------------------------------
 Structure from the checkpoint file:  "JID_1919.chk"
 Charge =  1 Multiplicity = 2

 SCF Done:  E(UB3LYP) =  -1502.84657819     A.U. after   33 cycles
 SCF Done:  E(UB3LYP) =  -1502.84657819     a.u. after    1 cycles
 Normal termination of Gaussian 16 at Tue Dec  8 21:52:44 2020.
 Gaussian 16:  ES64L-G16RevA.03 25-Dec-2016

 ----------------------------------------------------------------------
 # B3LYP/6-311++G(d,p) empiricaldispersion=gd3bj scf=xqc pop=npa geom=c
 heck
 ----------------------------------------------------------------------

 ------------------------------------
 CID_154142877_JID_1919_Energie_anion
 ------------------------------------
 Structure from the checkpoint file:  "JID_1919.chk"
 Charge = -1 Multiplicity = 2

                         Standard orientation:
 ---------------------------------------------------------------------
 Center     Atomic      Atomic             Coordinates (Angstroms)
 Number     Number       Type             X           Y           Z
 ---------------------------------------------------------------------
      1          6           0       -3.384149   -0.330855    0.000009
      2          6           0       -2.653440   -1.522945    0.000012
      3          6           0       -1.253451   -1.500154    0.000008
      4          6           0       -0.645445   -0.261173   -0.000002
      5          6           0       -1.346039    0.951451   -0.000009
      6          6           0       -2.740569    0.910299   -0.000004
      7          6           0       -0.462052    2.120618   -0.000025
      8          6           0        0.845359    1.832799   -0.000024
      9         16           0        1.137821    0.050740   -0.000001
     10         16           0        1.949660   -0.506004   -1.710053
     11         16           0        1.949660   -0.505957    1.710069
     12          1           0       -4.469095   -0.368573    0.000016
     13          1           0       -3.173014   -2.475902    0.000022
     14          1           0       -0.666708   -2.412866    0.000012
     15          1           0       -3.315667    1.831662   -0.000008
     16          1           0       -0.849067    3.134597   -0.000038
     17          1           0        1.718014    2.470373   -0.000029
 ---------------------------------------------------------------------

 SCF Done:  E(UB3LYP) =  -1503.18661220     A.U. after   24 cycles

 The electronic state is 2-A.
 Alpha  occ. eigenvalues --  -88.86701 -88.67500 -88.67500 -10.06365 -10.06052
 Alpha  occ. eigenvalues --  -10.05562 -10.05336 -10.05257 -10.05156 -10.04678
 Alpha  occ. eigenvalues --  -10.04470  -7.93956  -7.76223  -7.76223  -5.90074
 Alpha  occ. eigenvalues --   -5.90056  -5.90006  -5.72922  -5.72922  -5.71777
 Alpha  occ. eigenvalues --   -5.71777  -5.71759  -5.71759  -0.79140  -0.72734
 Alpha  occ. eigenvalues --   -0.66943  -0.62677  -0.60219  -0.56534  -0.51554
 Alpha  occ. eigenvalues --   -0.49310  -0.45633  -0.43783  -0.37590  -0.35717
 Alpha  occ. eigenvalues --   -0.34608  -0.31688  -0.30729  -0.29285  -0.28753
 Alpha  occ. eigenvalues --   -0.26916  -0.25008  -0.24242  -0.22980  -0.19153
 Alpha  occ. eigenvalues --   -0.14837  -0.12396  -0.11592  -0.10470  -0.08893
 Alpha  occ. eigenvalues --   -0.08624   0.01998
 Alpha virt. eigenvalues --    0.08146   0.08905   0.09423   0.09537   0.10288
 Alpha virt. eigenvalues --    0.11581   0.12471   0.12827   0.13244   0.13879
 Alpha virt. eigenvalues --    0.14176   0.15139   0.16130   0.16219   0.16743

  Beta  occ. eigenvalues --  -88.86704 -88.67444 -88.67444 -10.06149 -10.06084
  Beta  occ. eigenvalues --  -10.05569 -10.05178 -10.05068 -10.04892 -10.04488
  Beta  occ. eigenvalues --  -10.04251  -7.93956  -7.76169  -7.76169  -5.90072
  Beta  occ. eigenvalues --   -5.90045  -5.90015  -5.72817  -5.72817  -5.71744
  Beta  occ. eigenvalues --   -5.71744  -5.71671  -5.71671  -0.78689  -0.72476
  Beta  occ. eigenvalues --   -0.66424  -0.62443  -0.59703  -0.56162  -0.51014
  Beta  occ. eigenvalues --   -0.48955  -0.45196  -0.43500  -0.37400  -0.35478
  Beta  occ. eigenvalues --   -0.34333  -0.31622  -0.30561  -0.28518  -0.28427
  Beta  occ. eigenvalues --   -0.26696  -0.24283  -0.24102  -0.22808  -0.17492
  Beta  occ. eigenvalues --   -0.14051  -0.11295  -0.11096  -0.10280  -0.08404
  Beta  occ. eigenvalues --   -0.08070
  Beta virt. eigenvalues --    0.07651   0.08123   0.09090   0.09422   0.09974
  Beta virt. eigenvalues --    0.10278   0.11569   0.12468   0.13016   0.13691
  Beta virt. eigenvalues --    0.14176   0.14669   0.15168   0.16188   0.16434

 Mulliken charges and spin densities:
               1          2
     1  C   -0.379373   0.061931
     2  C   -0.060697   0.153754
     3  C   -0.649888  -0.027292
     4  C    2.309545   0.171972
     5  C    0.403044   0.105647
     6  C   -0.605733   0.019041
     7  C   -0.875748   0.136353
     8  C    0.260413   0.293431
     9  S   -0.898071   0.027158
    10  S   -0.663419   0.052186
    11  S   -0.663425   0.052189
    12  H    0.115589  -0.006244
    13  H    0.131546  -0.012117
    14  H    0.145159   0.004007
    15  H    0.110705   0.001885
    16  H    0.088938  -0.017306
    17  H    0.231416  -0.016596
 Sum of Mulliken charges =  -1.00000   1.00000

 Dipole moment (field-independent basis, Debye):
    X=             -4.1533    Y=              1.5330    Z=             -0.0000  Tot=              4.4272
 Quadrupole moment (field-independent basis, Debye-Ang):
   XX=           -114.8934   YY=            -93.2658   ZZ=           -108.6933
   XY=              3.7202   XZ=             -0.0001   YZ=             -0.0002

 Summary of Natural Population Analysis:

                                       Natural Population
                Natural  -----------------------------------------------
    Atom  No    Charge         Core      Valence    Rydberg      Total
 -----------------------------------------------------------------------
      C    1   -0.09121      0.99958     2.08236    0.00927     3.09121
      C    2   -0.07465      0.99958     2.06559    0.00948     3.07465
      C    3   -0.11122      0.99949     2.10225    0.00948     3.11122
      C    4   -0.04310      0.99934     2.02931    0.01445     3.04310
      C    5   -0.00735      0.99944     1.99878    0.00913     3.00735
      C    6   -0.09850      0.99953     2.09023    0.00875     3.09850
      C    7   -0.06301      0.99949     2.05472    0.00880     3.06301
      C    8   -0.10719      0.99946     2.09638    0.01135     3.10719
      S    9    0.47389      4.99913     2.45736    0.06961     7.52611
      S   10   -0.23010      4.99977     3.22012    0.01021     8.23010
      S   11   -0.23010      4.99977     3.22012    0.01021     8.23010
      H   12    0.09073      0.00000     0.40824    0.00103     0.40927
      H   13    0.09105      0.00000     0.40796    0.00099     0.40895
      H   14    0.10695      0.00000     0.39191    0.00114     0.39305
      H   15    0.09348      0.00000     0.40494    0.00158     0.40652
      H   16    0.09724      0.00000     0.40159    0.00117     0.40276
      H   17    0.10309      0.00000     0.39575    0.00115     0.39691
 =======================================================================
   * Total *   -0.00000     22.99459    27.82762    0.17779    51.00000

 Normal termination of Gaussian 16 at Tue Dec  8 21:56:24 2020.
