 Gaussian 16, Revision A.03,

 -----------------------------------------------------------
 # opt freq B3LYP/6-31G(d) empiricaldispersion=gd3bj scf=xqc
 -----------------------------------------------------------

 -------------------------------
 CID_145141552_JID_5103_neutraal
 -------------------------------
 Symbolic Z-matrix:
 Charge =  0 Multiplicity = 1

 SCF Done:  E(RB3LYP) =  -604.525338706     A.U. after   14 cycles
 SCF Done:  E(RB3LYP) =  -604.530113168     A.U. after   12 cycles
 SCF Done:  E(RB3LYP) =  -604.530513293     A.U. after   10 cycles
 SCF Done:  E(RB3LYP) =  -604.530719257     A.U. after   11 cycles
 SCF Done:  E(RB3LYP) =  -604.530903014     A.U. after   10 cycles
 SCF Done:  E(RB3LYP) =  -604.531367291     A.U. after   11 cycles
 SCF Done:  E(RB3LYP) =  -604.531667302     A.U. after   11 cycles
 SCF Done:  E(RB3LYP) =  -604.531898168     A.U. after   11 cycles
 SCF Done:  E(RB3LYP) =  -604.532041935     A.U. after   11 cycles
 SCF Done:  E(RB3LYP) =  -604.532036532     A.U. after    9 cycles
 SCF Done:  E(RB3LYP) =  -604.532150432     A.U. after    7 cycles
 SCF Done:  E(RB3LYP) =  -604.532150498     A.U. after    7 cycles
 SCF Done:  E(RB3LYP) =  -604.532150580     A.U. after    7 cycles
 SCF Done:  E(RB3LYP) =  -604.532150670     A.U. after    7 cycles
 SCF Done:  E(RB3LYP) =  -604.532150721     A.U. after    6 cycles
 SCF Done:  E(RB3LYP) =  -604.532150753     A.U. after    6 cycles
 Optimization completed.
    -- Stationary point found.
 Normal termination of Gaussian 16 at Thu Dec 10 15:15:04 2020.

 --------------------------------------------------------------------
 #N Geom=AllCheck Guess=TCheck SCRF=Check GenChk RB3LYP/6-31G(d) Freq
 --------------------------------------------------------------------

 Structure from the checkpoint file:  "JID_5103.chk"
 -------------------------------
 CID_145141552_JID_5103_neutraal
 -------------------------------
 Charge =  0 Multiplicity = 1

 SCF Done:  E(RB3LYP) =  -604.532150753     A.U. after    1 cycles

  Exact polarizability: 180.951 -17.934 160.059   4.466   0.674 128.364
 Approx polarizability: 248.406 -28.646 218.718  13.131   1.587 184.756

                      1                      2                      3
                      A                      A                      A
 Frequencies --     14.0690                35.2050                37.9595
 Red. masses --      3.5048                 2.0675                 2.4868
 Frc consts  --      0.0004                 0.0015                 0.0021
 IR Inten    --      0.0615                 0.3405                 0.8808

                      4                      5                      6
                      A                      A                      A
 Frequencies --     46.1890                60.4111                77.5305
 Red. masses --      3.3704                 3.0804                 2.5392
 Frc consts  --      0.0042                 0.0066                 0.0090
 IR Inten    --      0.0652                 0.0440                 0.0093

                      7                      8                      9
                      A                      A                      A
 Frequencies --     84.9875                90.8848                96.7385
 Red. masses --      2.6589                 1.8154                 1.6177
 Frc consts  --      0.0113                 0.0088                 0.0089
 IR Inten    --      0.1182                 1.2872                 0.2240

                     10                     11                     12
                      A                      A                      A
 Frequencies --    104.9962               145.3592               157.3953
 Red. masses --      1.7953                 2.7305                 2.0249
 Frc consts  --      0.0117                 0.0340                 0.0296
 IR Inten    --      0.1345                 0.0136                 1.2335

                     13                     14                     15
                      A                      A                      A
 Frequencies --    219.6178               226.4651               242.8131
 Red. masses --      1.4682                 1.3027                 1.2881
 Frc consts  --      0.0417                 0.0394                 0.0447
 IR Inten    --      0.1782                 0.9403                 0.3071

                     16                     17                     18
                      A                      A                      A
 Frequencies --    257.2463               267.9855               290.1224
 Red. masses --      2.0050                 1.9562                 1.1762
 Frc consts  --      0.0782                 0.0828                 0.0583
 IR Inten    --      0.5965                 0.9462                 0.3669

                     19                     20                     21
                      A                      A                      A
 Frequencies --    291.8114               322.7015               324.9423
 Red. masses --      1.7722                 1.0317                 2.3845
 Frc consts  --      0.0889                 0.0633                 0.1483
 IR Inten    --      1.6917                 0.0279                 1.1237

                     22                     23                     24
                      A                      A                      A
 Frequencies --    350.8136               380.9565               392.2528
 Red. masses --      2.3687                 2.5129                 2.6589
 Frc consts  --      0.1718                 0.2149                 0.2410
 IR Inten    --      0.2205                 3.8157                 1.3610

                     25                     26                     27
                      A                      A                      A
 Frequencies --    429.3038               477.6303               487.7428
 Red. masses --      2.8090                 3.1271                 3.6706
 Frc consts  --      0.3050                 0.4203                 0.5145
 IR Inten    --      5.5435                 0.3658                 0.1868

                     28                     29                     30
                      A                      A                      A
 Frequencies --    556.6831               584.0650               656.2855
 Red. masses --      3.4889                 3.2693                 4.4565
 Frc consts  --      0.6370                 0.6571                 1.1309
 IR Inten    --      4.6534                 0.2703                 3.4997

                     31                     32                     33
                      A                      A                      A
 Frequencies --    693.2586               750.8253               764.9789
 Red. masses --      3.2458                 1.5374                 1.4614
 Frc consts  --      0.9191                 0.5106                 0.5039
 IR Inten    --      3.6129                19.9612                21.2326

                     34                     35                     36
                      A                      A                      A
 Frequencies --    785.4689               798.2858               834.7209
 Red. masses --      1.4702                 1.2069                 1.0572
 Frc consts  --      0.5344                 0.4531                 0.4340
 IR Inten    --     22.3460                 3.2588                 3.2355

                     37                     38                     39
                      A                      A                      A
 Frequencies --    837.4317               859.0843               881.5511
 Red. masses --      1.0564                 3.3152                 1.9087
 Frc consts  --      0.4365                 1.4416                 0.8739
 IR Inten    --     11.2045                 9.0691                 1.0524

                     40                     41                     42
                      A                      A                      A
 Frequencies --    897.5918               941.9472               949.5748
 Red. masses --      2.0385                 1.5835                 2.0982
 Frc consts  --      0.9676                 0.8278                 1.1147
 IR Inten    --      5.1166                 0.5472                 8.1085

                     43                     44                     45
                      A                      A                      A
 Frequencies --    957.7823               967.0386               975.5275
 Red. masses --      2.1960                 1.3759                 1.8351
 Frc consts  --      1.1869                 0.7581                 1.0290
 IR Inten    --      9.4031                17.7503                 1.2475

                     46                     47                     48
                      A                      A                      A
 Frequencies --   1003.9153              1011.5886              1020.4926
 Red. masses --      1.5323                 3.1983                 1.6114
 Frc consts  --      0.9099                 1.9283                 0.9887
 IR Inten    --      2.6598                 0.1557                 3.2190

                     49                     50                     51
                      A                      A                      A
 Frequencies --   1043.8987              1048.8585              1094.6021
 Red. masses --      1.3142                 2.1697                 2.0637
 Frc consts  --      0.8438                 1.4063                 1.4569
 IR Inten    --      1.0181                 6.9155                 7.1726

                     52                     53                     54
                      A                      A                      A
 Frequencies --   1113.6221              1128.8515              1142.6300
 Red. masses --      1.9444                 2.1779                 1.7792
 Frc consts  --      1.4207                 1.6351                 1.3686
 IR Inten    --     50.1461                 8.9992                 7.0988

                     55                     56                     57
                      A                      A                      A
 Frequencies --   1158.1259              1199.0770              1204.5147
 Red. masses --      2.8307                 2.4063                 2.4614
 Frc consts  --      2.2370                 2.0384                 2.1041
 IR Inten    --     17.5523                60.3993                21.4780

                     58                     59                     60
                      A                      A                      A
 Frequencies --   1236.4780              1236.9069              1239.5470
 Red. masses --      1.4629                 1.4771                 1.8835
 Frc consts  --      1.3178                 1.3315                 1.7050
 IR Inten    --      0.0610                 0.2786                 3.4782

                     61                     62                     63
                      A                      A                      A
 Frequencies --   1270.9624              1307.4218              1320.6798
 Red. masses --      1.4400                 1.3651                 1.1326
 Frc consts  --      1.3705                 1.3749                 1.1639
 IR Inten    --     13.3746                 0.6711                11.5214

                     64                     65                     66
                      A                      A                      A
 Frequencies --   1334.6783              1356.1278              1392.3115
 Red. masses --      1.1854                 1.5413                 1.3840
 Frc consts  --      1.2442                 1.6700                 1.5807
 IR Inten    --      3.7397                 9.1969                 4.7128

                     67                     68                     69
                      A                      A                      A
 Frequencies --   1396.9371              1417.7179              1419.1921
 Red. masses --      1.4058                 1.2204                 1.3868
 Frc consts  --      1.6163                 1.4452                 1.6457
 IR Inten    --     21.1712                 6.9284                27.7514

                     70                     71                     72
                      A                      A                      A
 Frequencies --   1430.8755              1431.4747              1433.2189
 Red. masses --      1.2722                 1.2551                 1.2284
 Frc consts  --      1.5346                 1.5153                 1.4867
 IR Inten    --      2.9453                 0.5908                 0.5322

                     73                     74                     75
                      A                      A                      A
 Frequencies --   1434.3240              1446.4186              1455.0708
 Red. masses --      1.2657                 1.3743                 1.2542
 Frc consts  --      1.5342                 1.6940                 1.5646
 IR Inten    --      6.1004                33.7059                 3.2365

                     76                     77                     78
                      A                      A                      A
 Frequencies --   1459.4609              1489.1407              1509.9553
 Red. masses --      1.3762                 1.4618                 1.0660
 Frc consts  --      1.7271                 1.9099                 1.4320
 IR Inten    --      4.0964                27.1721                 1.4635

                     79                     80                     81
                      A                      A                      A
 Frequencies --   1514.0854              1515.8479              1519.6951
 Red. masses --      1.0495                 1.0517                 1.0764
 Frc consts  --      1.4175                 1.4238                 1.4647
 IR Inten    --      1.0631                 2.3633                 0.6497

                     82                     83                     84
                      A                      A                      A
 Frequencies --   1521.2953              1525.8500              1530.9180
 Red. masses --      1.0482                 1.0460                 1.0654
 Frc consts  --      1.4293                 1.4348                 1.4712
 IR Inten    --      0.4961                 7.5300                 6.2811

                     85                     86                     87
                      A                      A                      A
 Frequencies --   1532.0112              1533.9757              1535.1329
 Red. masses --      1.0217                 1.0661                 1.0367
 Frc consts  --      1.4129                 1.4780                 1.4394
 IR Inten    --      2.8200                 7.9317                 5.7919

                     88                     89                     90
                      A                      A                      A
 Frequencies --   1536.7244              1538.0858              1539.5266
 Red. masses --      1.0610                 1.0687                 1.0581
 Frc consts  --      1.4763                 1.4896                 1.4776
 IR Inten    --     10.1420                 5.6991                 4.5214

                     91                     92                     93
                      A                      A                      A
 Frequencies --   1541.1957              1735.3724              1754.3703
 Red. masses --      1.0602                 7.4218                 6.9878
 Frc consts  --      1.4837                13.1688                12.6717
 IR Inten    --      0.7801               102.7965                 4.2322

                     94                     95                     96
                      A                      A                      A
 Frequencies --   2980.8425              3038.7928              3043.4726
 Red. masses --      1.0738                 1.0357                 1.0393
 Frc consts  --      5.6214                 5.6350                 5.6719
 IR Inten    --     59.5994                21.7530                47.4535

                     97                     98                     99
                      A                      A                      A
 Frequencies --   3043.9828              3047.8867              3050.7633
 Red. masses --      1.0367                 1.0365                 1.0353
 Frc consts  --      5.6594                 5.6729                 5.6774
 IR Inten    --     28.5834                14.4795                34.2708

                    100                    101                    102
                      A                      A                      A
 Frequencies --   3053.8928              3069.0913              3077.3924
 Red. masses --      1.0365                 1.0622                 1.0834
 Frc consts  --      5.6954                 5.8949                 6.0449
 IR Inten    --     19.3793                16.6526                32.6086

                    103                    104                    105
                      A                      A                      A
 Frequencies --   3086.4921              3098.9039              3099.5602
 Red. masses --      1.0897                 1.1009                 1.0979
 Frc consts  --      6.1162                 6.2292                 6.2144
 IR Inten    --      6.3881                 2.4955                15.6564

                    106                    107                    108
                      A                      A                      A
 Frequencies --   3102.4294              3104.1239              3108.0983
 Red. masses --      1.1021                 1.1015                 1.1008
 Frc consts  --      6.2499                 6.2532                 6.2652
 IR Inten    --      2.0428                 4.2632                55.7725

                    109                    110                    111
                      A                      A                      A
 Frequencies --   3115.4096              3116.5780              3121.4968
 Red. masses --      1.0890                 1.0974                 1.0993
 Frc consts  --      6.2275                 6.2804                 6.3107
 IR Inten    --     17.5157                48.3028                51.0368

                    112                    113                    114
                      A                      A                      A
 Frequencies --   3123.3294              3124.6721              3127.0392
 Red. masses --      1.1010                 1.0879                 1.1024
 Frc consts  --      6.3280                 6.2580                 6.3513
 IR Inten    --     66.1205                13.9273                30.3141

                    115                    116                    117
                      A                      A                      A
 Frequencies --   3128.0694              3131.2098              3134.9928
 Red. masses --      1.1012                 1.1027                 1.1013
 Frc consts  --      6.3484                 6.3698                 6.3773
 IR Inten    --     92.8437                21.7412                43.5414

                    118                    119                    120
                      A                      A                      A
 Frequencies --   3137.2993              3149.0241              3160.2737
 Red. masses --      1.0999                 1.0904                 1.0929
 Frc consts  --      6.3782                 6.3709                 6.4309
 IR Inten    --     22.0641                59.8784                34.7274

 - Thermochemistry -
 -------------------
 Temperature   298.150 Kelvin.  Pressure   1.00000 Atm.
 Atom     1 has atomic number  6 and mass  12.00000

 Molecular mass:   209.21435 amu.
 Principal axes and moments of inertia in atomic units:
                           1         2         3
     Eigenvalues --  3049.958354222.214255790.03577
           X            1.00000  -0.00151   0.00151
           Y            0.00152   1.00000  -0.00126
           Z           -0.00151   0.00126   1.00000
 This molecule is an asymmetric top.
 Rotational symmetry number  1.
 Warning -- assumption of classical behavior for rotation
           may cause significant error
 Rotational temperatures (Kelvin)      0.02840     0.02051     0.01496
 Rotational constants (GHZ):           0.59173     0.42744     0.31170
 Zero-point vibrational energy    1015297.7 (Joules/Mol)
                                  242.66197 (Kcal/Mol)
 Warning -- explicit consideration of  29 degrees of freedom as
           vibrations may cause significant error
 Vibrational temperatures:     20.24    50.65    54.62    66.46    86.92
          (Kelvin)            111.55   122.28   130.76   139.19   151.07
                              209.14   226.46   315.98   325.83   349.35
                              370.12   385.57   417.42   419.85   464.30
                              467.52   504.74   548.11   564.36   617.67
                              687.20   701.75   800.94   840.34   944.25
                              997.44  1080.27  1100.63  1130.11  1148.56
                             1200.98  1204.88  1236.03  1268.36  1291.43
                             1355.25  1366.23  1378.04  1391.35  1403.57
                             1444.41  1455.45  1468.26  1501.94  1509.07
                             1574.89  1602.25  1624.17  1643.99  1666.28
                             1725.20  1733.03  1779.02  1779.63  1783.43
                             1828.63  1881.09  1900.16  1920.30  1951.17
                             2003.23  2009.88  2039.78  2041.90  2058.71
                             2059.57  2062.08  2063.67  2081.07  2093.52
                             2099.84  2142.54  2172.49  2178.43  2180.97
                             2186.50  2188.80  2195.36  2202.65  2204.22
                             2207.05  2208.71  2211.00  2212.96  2215.04
                             2217.44  2496.81  2524.15  4288.77  4372.15
                             4378.88  4379.61  4385.23  4389.37  4393.87
                             4415.74  4427.68  4440.77  4458.63  4459.58
                             4463.70  4466.14  4471.86  4482.38  4484.06
                             4491.14  4493.77  4495.71  4499.11  4500.59
                             4505.11  4510.56  4513.87  4530.74  4546.93

 Zero-point correction=                           0.386706 (Hartree/Particle)
 Thermal correction to Energy=                    0.406796
 Thermal correction to Enthalpy=                  0.407740
 Thermal correction to Gibbs Free Energy=         0.335983
 Sum of electronic and zero-point Energies=           -604.145444
 Sum of electronic and thermal Energies=              -604.125355
 Sum of electronic and thermal Enthalpies=            -604.124410
 Sum of electronic and thermal Free Energies=         -604.196168

                     E (Thermal)             CV                S
                      KCal/Mol        Cal/Mol-Kelvin    Cal/Mol-Kelvin
 Total                  255.268             71.968            151.026
 Electronic               0.000              0.000              0.000
 Translational            0.889              2.981             41.918
 Rotational               0.889              2.981             32.678
 Vibrational            253.491             66.007             76.430
 Vibration     1          0.593              1.986              7.333
 Vibration     2          0.594              1.982              5.512
 Vibration     3          0.594              1.982              5.363
 Vibration     4          0.595              1.979              4.974
 Vibration     5          0.597              1.973              4.444
 Vibration     6          0.599              1.964              3.952
 Vibration     7          0.601              1.960              3.772
 Vibration     8          0.602              1.956              3.641
 Vibration     9          0.603              1.952              3.519
 Vibration    10          0.605              1.945              3.359
 Vibration    11          0.617              1.908              2.732
 Vibration    12          0.621              1.894              2.581
 Vibration    13          0.647              1.811              1.962
 Vibration    14          0.650              1.801              1.907
 Vibration    15          0.659              1.775              1.782
 Vibration    16          0.667              1.751              1.680
 Vibration    17          0.673              1.732              1.609
 Vibration    18          0.686              1.692              1.473
 Vibration    19          0.687              1.689              1.463
 Vibration    20          0.708              1.630              1.296
 Vibration    21          0.709              1.626              1.285
 Vibration    22          0.728              1.574              1.163
 Vibration    23          0.751              1.511              1.035
 Vibration    24          0.760              1.487              0.992
 Vibration    25          0.791              1.406              0.861
 Vibration    26          0.834              1.300              0.716
 Vibration    27          0.844              1.277              0.689
 Vibration    28          0.912              1.125              0.530
 Vibration    29          0.941              1.066              0.478

                           ! Non-Optimized Parameters !
 Normal termination of Gaussian 16 at Thu Dec 10 15:30:43 2020.

 ----------------------------------------------------------------------
 # B3LYP/6-311++G(d,p) empiricaldispersion=gd3bj scf=xqc pop=npa geom=c
 heck
 ----------------------------------------------------------------------

 ---------------------------------------
 CID_145141552_JID_5103_Energie_neutraal
 ---------------------------------------
 Structure from the checkpoint file:  "JID_5103.chk"
 Charge =  0 Multiplicity = 1

 SCF Done:  E(RB3LYP) =  -604.700728049     A.U. after   14 cycles
 Normal termination of Gaussian 16 at Thu Dec 10 15:37:38 2020.

 ----------------------------------------------------------------------
 # B3LYP/6-311++G(d,p) empiricaldispersion=gd3bj scf=xqc pop=npa geom=c
 heck
 ----------------------------------------------------------------------

 -------------------------------------
 CID_145141552_JID_5103_Energie_kation
 -------------------------------------
 Structure from the checkpoint file:  "JID_5103.chk"
 Charge =  1 Multiplicity = 2

 SCF Done:  E(UB3LYP) =  -604.445344922     A.U. after   21 cycles
 Normal termination of Gaussian 16 at Thu Dec 10 15:50:58 2020.
 Gaussian 16:  ES64L-G16RevA.03 25-Dec-2016

 ----------------------------------------------------------------------
 # B3LYP/6-311++G(d,p) empiricaldispersion=gd3bj scf=xqc pop=npa geom=c
 heck
 ----------------------------------------------------------------------

 ------------------------------------
 CID_145141552_JID_5103_Energie_anion
 ------------------------------------
 Structure from the checkpoint file:  "JID_5103.chk"
 Charge = -1 Multiplicity = 2

                         Standard orientation:
 ---------------------------------------------------------------------
 Center     Atomic      Atomic             Coordinates (Angstroms)
 Number     Number       Type             X           Y           Z
 ---------------------------------------------------------------------
      1          6           0       -3.772436   -1.596208   -0.642708
      2          6           0       -3.142249   -2.956034   -0.335703
      3          6           0       -1.757312    0.885918    2.156159
      4          6           0       -0.911845   -0.114076    1.368929
      5          6           0       -0.628289    0.341906   -0.080591
      6          6           0       -0.060625   -0.790999   -0.909842
      7          6           0        1.178244   -1.283797   -0.867552
      8          6           0        2.371959   -0.849779   -0.044941
      9          6           0        2.362318    0.577915    0.459792
     10          6           0        1.476290    1.580953    0.341524
     11          7           0        0.149920    1.580713   -0.080852
     12          6           0       -0.241600    2.613133   -1.037666
     13          6           0       -1.571334    3.290340   -0.702766
     14          6           0        2.534523   -1.837178    1.140054
     15          6           0        3.624711   -0.982870   -0.950224
     16          1           0       -3.640163   -0.898431    0.191661
     17          1           0       -4.848326   -1.687230   -0.830064
     18          1           0       -3.321369   -1.138957   -1.531351
     19          1           0       -2.064072   -2.865609   -0.164734
     20          1           0       -3.585141   -3.405521    0.560278
     21          1           0       -3.288226   -3.657831   -1.164855
     22          1           0       -1.260851    1.859709    2.201198
     23          1           0       -1.926051    0.538536    3.181451
     24          1           0       -2.739000    1.031930    1.687402
     25          1           0        0.046624   -0.273325    1.873222
     26          1           0       -1.412333   -1.088262    1.332089
     27          1           0       -1.595404    0.604485   -0.520069
     28          1           0       -0.775757   -1.292723   -1.560240
     29          1           0        1.384335   -2.153952   -1.492908
     30          1           0        3.296443    0.854778    0.947486
     31          1           0        1.802749    2.570460    0.667028
     32          1           0        0.552436    3.367103   -1.045015
     33          1           0       -0.273767    2.196123   -2.058466
     34          1           0       -1.523727    3.762304    0.283836
     35          1           0       -1.801925    4.059858   -1.448515
     36          1           0       -2.403861    2.579106   -0.694202
     37          1           0        2.629447   -2.868876    0.780297
     38          1           0        3.435460   -1.595223    1.716826
     39          1           0        1.672730   -1.788836    1.811264
     40          1           0        3.548123   -0.315955   -1.814791
     41          1           0        4.533284   -0.721661   -0.396028
     42          1           0        3.734768   -2.012330   -1.313632
 ---------------------------------------------------------------------

 SCF Done:  E(UB3LYP) =  -604.685767132     A.U. after   32 cycles

 The electronic state is 2-A.
 Alpha  occ. eigenvalues --  -14.21963 -10.10956 -10.10435 -10.09966 -10.09866
 Alpha  occ. eigenvalues --  -10.07396 -10.07047 -10.06934 -10.06908 -10.06877
 Alpha  occ. eigenvalues --  -10.06507 -10.06450 -10.06449 -10.06110 -10.05885
 Alpha  occ. eigenvalues --   -0.84446  -0.73829  -0.70259  -0.66808  -0.66044
 Alpha  occ. eigenvalues --   -0.65303  -0.61908  -0.59431  -0.58410  -0.52550
 Alpha  occ. eigenvalues --   -0.52378  -0.51830  -0.51129  -0.44339  -0.43247
 Alpha  occ. eigenvalues --   -0.41410  -0.37543  -0.36527  -0.35657  -0.34831
 Alpha  occ. eigenvalues --   -0.34314  -0.34045  -0.33614  -0.33069  -0.32304
 Alpha  occ. eigenvalues --   -0.31225  -0.30508  -0.30273  -0.29678  -0.28503
 Alpha  occ. eigenvalues --   -0.27744  -0.27626  -0.26325  -0.25944  -0.25539
 Alpha  occ. eigenvalues --   -0.25266  -0.25200  -0.24305  -0.24191  -0.23535
 Alpha  occ. eigenvalues --   -0.22754  -0.18763  -0.15793  -0.09801   0.04257
 Alpha virt. eigenvalues --    0.06126   0.06183   0.07107   0.07759   0.08013
 Alpha virt. eigenvalues --    0.08442   0.08703   0.08976   0.09616   0.10114
 Alpha virt. eigenvalues --    0.10449   0.11016   0.11253   0.11377   0.11480

  Beta  occ. eigenvalues --  -14.21963 -10.10949 -10.10417 -10.09965 -10.09856
  Beta  occ. eigenvalues --  -10.07385 -10.07038 -10.06926 -10.06892 -10.06860
  Beta  occ. eigenvalues --  -10.06483 -10.06418 -10.06418 -10.06092 -10.05876
  Beta  occ. eigenvalues --   -0.84435  -0.73814  -0.70240  -0.66776  -0.66003
  Beta  occ. eigenvalues --   -0.65279  -0.61877  -0.59397  -0.58380  -0.52497
  Beta  occ. eigenvalues --   -0.52288  -0.51786  -0.51090  -0.44313  -0.43220
  Beta  occ. eigenvalues --   -0.41372  -0.37520  -0.36495  -0.35635  -0.34803
  Beta  occ. eigenvalues --   -0.34288  -0.34015  -0.33591  -0.33037  -0.32275
  Beta  occ. eigenvalues --   -0.31198  -0.30482  -0.30238  -0.29658  -0.28477
  Beta  occ. eigenvalues --   -0.27671  -0.27587  -0.26298  -0.25924  -0.25517
  Beta  occ. eigenvalues --   -0.25235  -0.25168  -0.24274  -0.24168  -0.23508
  Beta  occ. eigenvalues --   -0.22732  -0.18746  -0.15778  -0.09789
  Beta virt. eigenvalues --    0.06097   0.06731   0.06929   0.07504   0.08119
  Beta virt. eigenvalues --    0.08349   0.08666   0.09071   0.09205   0.10043
  Beta virt. eigenvalues --    0.10167   0.10673   0.11252   0.11411   0.11597

 Mulliken charges and spin densities:
               1          2
     1  C   -0.060621  -0.354752
     2  C    0.282675  -0.717554
     3  C    0.046654  -0.664095
     4  C   -0.963229   0.752524
     5  C    0.347973  -0.638579
     6  C    0.244696  -0.877545
     7  C   -0.791636   0.425051
     8  C    0.133428   0.823216
     9  C   -0.084919  -0.040482
    10  C   -0.319496  -0.038480
    11  N    0.448611   0.058476
    12  C   -0.257242   0.171166
    13  C    0.850710  -1.318001
    14  C    0.445863  -1.166312
    15  C   -0.143941  -0.487411
    16  H    0.098407   0.041671
    17  H   -0.381169   0.533065
    18  H   -0.198439   0.332763
    19  H   -0.000876   0.169090
    20  H   -0.082641   0.205740
    21  H   -0.110519   0.238873
    22  H    0.078924   0.075135
    23  H   -0.114006   0.278576
    24  H   -0.022790   0.138216
    25  H    0.243848  -0.136704
    26  H    0.120748   0.033443
    27  H    0.829408  -0.709895
    28  H   -0.077398   0.254470
    29  H   -0.153418   0.320914
    30  H   -0.050083   0.222520
    31  H   -0.319573   0.467399
    32  H   -0.231736   0.381485
    33  H   -0.089970   0.221945
    34  H   -0.045416   0.182441
    35  H   -0.303120   0.455910
    36  H   -0.310731   0.461639
    37  H   -0.073065   0.216340
    38  H   -0.041466   0.191155
    39  H    0.019131   0.110561
    40  H    0.125339   0.023862
    41  H   -0.062203   0.204434
    42  H   -0.026711   0.157729
 Sum of Mulliken charges =  -1.00000   1.00000

 Dipole moment (field-independent basis, Debye):
    X=              3.2009    Y=             -0.7282    Z=              1.5002  Tot=              3.6092
 Quadrupole moment (field-independent basis, Debye-Ang):
   XX=           -172.3857   YY=           -162.1123   ZZ=           -138.6014
   XY=             -3.6801   XZ=             -6.1496   YZ=              0.4371

 Summary of Natural Population Analysis:

                                       Natural Population
                Natural  -----------------------------------------------
    Atom  No    Charge         Core      Valence    Rydberg      Total
 -----------------------------------------------------------------------
      C    1   -0.28742      0.99968     2.28308    0.00466     3.28742
      C    2   -0.28670      0.99968     2.28286    0.00416     3.28670
      C    3   -0.28423      0.99966     2.28039    0.00419     3.28423
      C    4   -0.19193      0.99960     2.18388    0.00845     3.19193
      C    5   -0.02128      0.99956     2.00761    0.01412     3.02128
      C    6   -0.09615      0.99950     2.08526    0.01139     3.09615
      C    7   -0.07929      0.99950     2.06773    0.01206     3.07929
      C    8   -0.07632      0.99954     2.06554    0.01124     3.07632
      C    9   -0.13777      0.99952     2.12558    0.01267     3.13777
      C   10    0.01881      0.99949     1.96843    0.01327     2.98119
      N   11   -0.27135      0.99966     2.75695    0.01474     3.77135
      C   12   -0.07611      0.99961     2.06610    0.01041     3.07611
      C   13   -0.28934      0.99966     2.28462    0.00505     3.28934
      C   14   -0.27574      0.99963     2.26930    0.00681     3.27574
      C   15   -0.27272      0.99964     2.26755    0.00552     3.27272
      H   16    0.09616      0.00000     0.40256    0.00128     0.40384
      H   17    0.09628      0.00000     0.40257    0.00114     0.40372
      H   18    0.09604      0.00000     0.40260    0.00136     0.40396
      H   19    0.09839      0.00000     0.40033    0.00128     0.40161
      H   20    0.09396      0.00000     0.40486    0.00118     0.40604
      H   21    0.09478      0.00000     0.40389    0.00132     0.40522
      H   22    0.10184      0.00000     0.39686    0.00130     0.39816
      H   23    0.09729      0.00000     0.40192    0.00079     0.40271
      H   24    0.09483      0.00000     0.40383    0.00134     0.40517
      H   25    0.09985      0.00000     0.39832    0.00183     0.40015
      H   26    0.09847      0.00000     0.40020    0.00132     0.40153
      H   27    0.10165      0.00000     0.39496    0.00338     0.39835
      H   28    0.09933      0.00000     0.39900    0.00167     0.40067
      H   29    0.09593      0.00000     0.40259    0.00148     0.40407
      H   30    0.09796      0.00000     0.40089    0.00116     0.40204
      H   31    0.09120      0.00000     0.40746    0.00135     0.40880
      H   32    0.09659      0.00000     0.40199    0.00142     0.40341
      H   33    0.08729      0.00000     0.41144    0.00127     0.41271
      H   34    0.09860      0.00000     0.40006    0.00134     0.40140
      H   35    0.09998      0.00000     0.39872    0.00130     0.40002
      H   36    0.09746      0.00000     0.40106    0.00149     0.40254
      H   37    0.09796      0.00000     0.40118    0.00086     0.40204
      H   38    0.09774      0.00000     0.40136    0.00090     0.40226
      H   39    0.10162      0.00000     0.39735    0.00104     0.39838
      H   40    0.10277      0.00000     0.39619    0.00104     0.39723
      H   41    0.09762      0.00000     0.40143    0.00095     0.40238
      H   42    0.09597      0.00000     0.40303    0.00100     0.40403
 =======================================================================
   * Total *    0.00000     14.99394    43.83155    0.17451    59.00000

 Normal termination of Gaussian 16 at Thu Dec 10 16:10:48 2020.
