 Gaussian 16, Revision A.03,

 -----------------------------------------------------------
 # opt freq B3LYP/6-31G(d) empiricaldispersion=gd3bj scf=xqc
 -----------------------------------------------------------

 --------------------------------
 CID_132381001_JID_10481_neutraal
 --------------------------------
 Symbolic Z-matrix:
 Charge =  0 Multiplicity = 1

 SCF Done:  E(RB3LYP) =  -952.173061994     A.U. after   15 cycles
 SCF Done:  E(RB3LYP) =  -952.182659881     A.U. after   13 cycles
 SCF Done:  E(RB3LYP) =  -952.187441347     A.U. after   14 cycles
 SCF Done:  E(RB3LYP) =  -952.190995877     A.U. after   14 cycles
 SCF Done:  E(RB3LYP) =  -952.192780127     A.U. after   12 cycles
 SCF Done:  E(RB3LYP) =  -952.193993633     A.U. after   13 cycles
 SCF Done:  E(RB3LYP) =  -952.195442259     A.U. after   15 cycles
 SCF Done:  E(RB3LYP) =  -952.197282449     A.U. after   12 cycles
 SCF Done:  E(RB3LYP) =  -952.198775274     A.U. after   13 cycles
 SCF Done:  E(RB3LYP) =  -952.199832525     A.U. after   15 cycles
 SCF Done:  E(RB3LYP) =  -952.204516562     A.U. after    8 cycles
 SCF Done:  E(RB3LYP) =  -952.204517370     A.U. after    8 cycles
 SCF Done:  E(RB3LYP) =  -952.204517726     A.U. after    8 cycles
 SCF Done:  E(RB3LYP) =  -952.204517833     A.U. after    7 cycles
 SCF Done:  E(RB3LYP) =  -952.204517886     A.U. after    7 cycles
 Optimization completed.
    -- Stationary point found.
 Normal termination of Gaussian 16 at Mon Dec 14 14:18:31 2020.

 --------------------------------------------------------------------
 #N Geom=AllCheck Guess=TCheck SCRF=Check GenChk RB3LYP/6-31G(d) Freq
 --------------------------------------------------------------------

 Structure from the checkpoint file:  "JID_10481.chk"
 --------------------------------
 CID_132381001_JID_10481_neutraal
 --------------------------------
 Charge =  0 Multiplicity = 1

 SCF Done:  E(RB3LYP) =  -952.204517886     A.U. after    1 cycles

  Exact polarizability: 237.491 -10.941 136.061  16.922  16.237 139.633
 Approx polarizability: 313.353 -21.599 208.571  28.823  39.626 220.276

                      1                      2                      3
                      A                      A                      A
 Frequencies --     22.2607                42.3935                57.1202
 Red. masses --      4.9952                 4.3648                 4.2790
 Frc consts  --      0.0015                 0.0046                 0.0082
 IR Inten    --      0.4729                 0.0643                 1.5438

                      4                      5                      6
                      A                      A                      A
 Frequencies --     73.4749                80.7956                95.6071
 Red. masses --      5.7415                 5.4334                 3.3544
 Frc consts  --      0.0183                 0.0209                 0.0181
 IR Inten    --      0.3780                 4.0663                 0.8946

                      7                      8                      9
                      A                      A                      A
 Frequencies --    129.6218               145.1870               169.3795
 Red. masses --      5.0714                 3.3459                 4.7882
 Frc consts  --      0.0502                 0.0416                 0.0809
 IR Inten    --      1.8265                 1.2033                 0.6291

                     10                     11                     12
                      A                      A                      A
 Frequencies --    185.8620               214.1777               218.9922
 Red. masses --      3.4060                 2.6329                 1.9096
 Frc consts  --      0.0693                 0.0712                 0.0540
 IR Inten    --      4.3786                 2.2464                 1.7132

                     13                     14                     15
                      A                      A                      A
 Frequencies --    235.2341               263.5131               293.3575
 Red. masses --      5.6658                 3.1028                 3.1503
 Frc consts  --      0.1847                 0.1269                 0.1597
 IR Inten    --      5.6084                 1.0096                 4.1317

                     16                     17                     18
                      A                      A                      A
 Frequencies --    307.0691               315.1195               347.3240
 Red. masses --      2.4491                 2.4277                 2.4012
 Frc consts  --      0.1361                 0.1420                 0.1707
 IR Inten    --      4.6929                 5.5978                 4.3939

                     19                     20                     21
                      A                      A                      A
 Frequencies --    377.3374               406.8121               414.6347
 Red. masses --      3.9988                 1.8936                 1.1778
 Frc consts  --      0.3355                 0.1846                 0.1193
 IR Inten    --      2.3592                 3.3281                99.2684

                     22                     23                     24
                      A                      A                      A
 Frequencies --    431.4021               454.7352               473.3800
 Red. masses --      4.0084                 3.0588                 2.5482
 Frc consts  --      0.4395                 0.3727                 0.3364
 IR Inten    --      3.5818                12.6624                 8.0896

                     25                     26                     27
                      A                      A                      A
 Frequencies --    494.2327               513.6509               527.0635
 Red. masses --      3.1735                 3.0566                 2.1247
 Frc consts  --      0.4567                 0.4751                 0.3478
 IR Inten    --      4.0141                12.8506                70.6134

                     28                     29                     30
                      A                      A                      A
 Frequencies --    540.5361               575.1908               622.7907
 Red. masses --      1.8837                 2.3571                 4.0184
 Frc consts  --      0.3243                 0.4595                 0.9183
 IR Inten    --     75.9114                 2.7165                 2.4395

                     31                     32                     33
                      A                      A                      A
 Frequencies --    645.4634               660.8296               698.4650
 Red. masses --      3.3914                 3.3676                 2.1372
 Frc consts  --      0.8325                 0.8665                 0.6143
 IR Inten    --     15.9121                20.9853                11.0558

                     34                     35                     36
                      A                      A                      A
 Frequencies --    704.0664               716.7691               772.9704
 Red. masses --      7.6936                 2.2405                 2.4001
 Frc consts  --      2.2470                 0.6782                 0.8449
 IR Inten    --      1.8509                25.4191                 2.2384

                     37                     38                     39
                      A                      A                      A
 Frequencies --    786.3954               805.2402               827.6845
 Red. masses --      2.2927                 1.5944                 2.2790
 Frc consts  --      0.8354                 0.6091                 0.9198
 IR Inten    --      2.4212                 7.9319                50.9319

                     40                     41                     42
                      A                      A                      A
 Frequencies --    831.4906               837.5938               857.6708
 Red. masses --      1.6131                 2.2170                 3.0812
 Frc consts  --      0.6571                 0.9164                 1.3354
 IR Inten    --      0.5791                 2.6975                 6.1454

                     43                     44                     45
                      A                      A                      A
 Frequencies --    874.7773               907.4893               931.9408
 Red. masses --      3.0414                 2.6877                 2.4640
 Frc consts  --      1.3713                 1.3041                 1.2608
 IR Inten    --      3.1825                 9.8530                 9.4691

                     46                     47                     48
                      A                      A                      A
 Frequencies --    973.9069               988.2878               995.0068
 Red. masses --      2.4714                 1.4443                 2.8039
 Frc consts  --      1.3811                 0.8311                 1.6355
 IR Inten    --      2.0533                 0.6344                12.9919

                     49                     50                     51
                      A                      A                      A
 Frequencies --   1003.6470              1013.7697              1034.8398
 Red. masses --      5.1220                 2.4809                 2.1522
 Frc consts  --      3.0398                 1.5022                 1.3580
 IR Inten    --      8.8486                 6.9820                14.7245

                     52                     53                     54
                      A                      A                      A
 Frequencies --   1067.9568              1071.7386              1106.9653
 Red. masses --      1.6992                 3.4593                 3.2608
 Frc consts  --      1.1419                 2.3411                 2.3542
 IR Inten    --     34.1876                53.5194                 7.9875

                     55                     56                     57
                      A                      A                      A
 Frequencies --   1119.3342              1130.8924              1136.5931
 Red. masses --      2.5906                 1.9632                 4.2619
 Frc consts  --      1.9124                 1.4793                 3.2439
 IR Inten    --     14.5846                46.2060                26.8940

                     58                     59                     60
                      A                      A                      A
 Frequencies --   1165.9071              1187.6961              1195.7864
 Red. masses --      2.2265                 2.5040                 2.2179
 Frc consts  --      1.7832                 2.0811                 1.8686
 IR Inten    --     38.7888                16.2244                 4.3386

                     61                     62                     63
                      A                      A                      A
 Frequencies --   1199.7769              1229.3401              1244.7693
 Red. masses --      1.8354                 1.7502                 1.2467
 Frc consts  --      1.5567                 1.5584                 1.1381
 IR Inten    --      6.4231               260.9615                70.8370

                     64                     65                     66
                      A                      A                      A
 Frequencies --   1286.4739              1303.0623              1313.0600
 Red. masses --      1.3781                 1.4251                 2.2112
 Frc consts  --      1.3438                 1.4257                 2.2462
 IR Inten    --     32.6716                52.0491               165.5972

                     67                     68                     69
                      A                      A                      A
 Frequencies --   1320.2741              1339.8658              1353.8672
 Red. masses --      2.1078                 1.2522                 1.7622
 Frc consts  --      2.1647                 1.3245                 1.9031
 IR Inten    --     11.2716                16.4302               136.4296

                     70                     71                     72
                      A                      A                      A
 Frequencies --   1362.8852              1369.8743              1384.5741
 Red. masses --      2.3056                 1.5261                 1.9244
 Frc consts  --      2.5232                 1.6873                 2.1736
 IR Inten    --      1.7739                 3.4383                21.4538

                     73                     74                     75
                      A                      A                      A
 Frequencies --   1389.8228              1398.7752              1402.0767
 Red. masses --      1.5427                 1.3747                 1.2760
 Frc consts  --      1.7557                 1.5847                 1.4779
 IR Inten    --     24.8339                12.0124                10.0542

                     76                     77                     78
                      A                      A                      A
 Frequencies --   1411.0221              1422.7469              1438.0434
 Red. masses --      1.3949                 1.3085                 1.3176
 Frc consts  --      1.6363                 1.5606                 1.6054
 IR Inten    --     10.1045                24.9228                50.3008

                     79                     80                     81
                      A                      A                      A
 Frequencies --   1443.3487              1461.3958              1491.8772
 Red. masses --      1.3242                 1.5900                 1.0943
 Frc consts  --      1.6253                 2.0008                 1.4351
 IR Inten    --     11.9231                10.2131                 2.4898

                     82                     83                     84
                      A                      A                      A
 Frequencies --   1507.0494              1508.7894              1514.7154
 Red. masses --      1.2460                 1.2463                 1.1072
 Frc consts  --      1.6674                 1.6716                 1.4968
 IR Inten    --     33.9023                34.9076                 8.3591

                     85                     86                     87
                      A                      A                      A
 Frequencies --   1515.9929              1527.6189              1533.1837
 Red. masses --      1.0563                 1.0802                 1.2326
 Frc consts  --      1.4303                 1.4852                 1.7071
 IR Inten    --      3.0060                 1.6272                47.5702

                     88                     89                     90
                      A                      A                      A
 Frequencies --   1541.6242              1543.7501              1562.8106
 Red. masses --      1.1046                 1.4760                 3.4956
 Frc consts  --      1.5468                 2.0725                 5.0301
 IR Inten    --      4.9558                70.6985               110.5845

                     91                     92                     93
                      A                      A                      A
 Frequencies --   1620.8498              1664.8891              1683.2235
 Red. masses --      4.0097                 3.8078                 1.3508
 Frc consts  --      6.2065                 6.2186                 2.2548
 IR Inten    --     31.3781              1012.9034               215.4750

                     94                     95                     96
                      A                      A                      A
 Frequencies --   1785.5712              2993.7293              3034.6817
 Red. masses --      8.5760                 1.0709                 1.0672
 Frc consts  --     16.1098                 5.6549                 5.7904
 IR Inten    --    290.6304                44.4809                19.7154

                     97                     98                     99
                      A                      A                      A
 Frequencies --   3054.5556              3061.2230              3068.9841
 Red. masses --      1.0606                 1.0365                 1.0642
 Frc consts  --      5.8305                 5.7231                 5.9058
 IR Inten    --     42.1656                19.3892                23.4711

                    100                    101                    102
                      A                      A                      A
 Frequencies --   3086.7983              3095.4803              3104.2808
 Red. masses --      1.0653                 1.0594                 1.0939
 Frc consts  --      5.9804                 5.9806                 6.2109
 IR Inten    --     31.4925                36.9830                64.5648

                    103                    104                    105
                      A                      A                      A
 Frequencies --   3105.1313              3113.2868              3127.0618
 Red. masses --      1.0951                 1.1063                 1.1018
 Frc consts  --      6.2209                 6.3175                 6.3476
 IR Inten    --      4.5868                43.9806                28.4794

                    106                    107                    108
                      A                      A                      A
 Frequencies --   3129.2424              3142.1022              3144.4560
 Red. masses --      1.0988                 1.1035                 1.1009
 Frc consts  --      6.3394                 6.4187                 6.4136
 IR Inten    --     18.1969                 8.3167                 7.5217

                    109                    110                    111
                      A                      A                      A
 Frequencies --   3160.2100              3178.4554              3224.6382
 Red. masses --      1.1072                 1.0908                 1.0924
 Frc consts  --      6.5150                 6.4925                 6.6925
 IR Inten    --     35.3468                25.5649                 2.5993

                    112                    113                    114
                      A                      A                      A
 Frequencies --   3428.2153              3638.5468              3653.0003
 Red. masses --      1.0614                 1.0771                 1.0913
 Frc consts  --      7.3496                 8.4015                 8.5801
 IR Inten    --    440.6546                34.6012                84.4370

 - Thermochemistry -
 -------------------
 Temperature   298.150 Kelvin.  Pressure   1.00000 Atm.
 Atom     1 has atomic number  6 and mass  12.00000

 Molecular mass:   280.15354 amu.
 Principal axes and moments of inertia in atomic units:
                           1         2         3
     Eigenvalues --  2417.74489********************
           X            0.99994  -0.00251   0.01094
           Y            0.00260   0.99996  -0.00819
           Z           -0.01092   0.00822   0.99991
 This molecule is an asymmetric top.
 Rotational symmetry number  1.
 Warning -- assumption of classical behavior for rotation
           may cause significant error
 Rotational temperatures (Kelvin)      0.03582     0.00758     0.00728
 Rotational constants (GHZ):           0.74646     0.15796     0.15162
 Zero-point vibrational energy     895407.9 (Joules/Mol)
                                  214.00762 (Kcal/Mol)
 Warning -- explicit consideration of  29 degrees of freedom as
           vibrations may cause significant error
 Vibrational temperatures:     32.03    60.99    82.18   105.71   116.25
          (Kelvin)            137.56   186.50   208.89   243.70   267.41
                              308.15   315.08   338.45   379.14   422.08
                              441.80   453.39   499.72   542.90   585.31
                              596.57   620.69   654.26   681.09   711.09
                              739.03   758.33   777.71   827.57   896.06
                              928.68   950.79  1004.94  1012.99  1031.27
                             1112.13  1131.45  1158.56  1190.85  1196.33
                             1205.11  1234.00  1258.61  1305.67  1340.86
                             1401.23  1421.93  1431.59  1444.02  1458.59
                             1488.90  1536.55  1541.99  1592.68  1610.47
                             1627.10  1635.30  1677.48  1708.83  1720.47
                             1726.21  1768.75  1790.95  1850.95  1874.82
                             1889.20  1899.58  1927.77  1947.91  1960.89
                             1970.94  1992.09  1999.65  2012.53  2017.28
                             2030.15  2047.02  2069.02  2076.66  2102.62
                             2146.48  2168.31  2170.81  2179.34  2181.18
                             2197.90  2205.91  2218.05  2221.11  2248.54
                             2332.04  2395.40  2421.78  2569.04  4307.31
                             4366.23  4394.82  4404.42  4415.58  4441.21
                             4453.71  4466.37  4467.59  4479.33  4499.14
                             4502.28  4520.78  4524.17  4546.84  4573.09
                             4639.54  4932.44  5235.06  5255.85

 Zero-point correction=                           0.341043 (Hartree/Particle)
 Thermal correction to Energy=                    0.359736
 Thermal correction to Enthalpy=                  0.360680
 Thermal correction to Gibbs Free Energy=         0.293494
 Sum of electronic and zero-point Energies=           -951.863475
 Sum of electronic and thermal Energies=              -951.844782
 Sum of electronic and thermal Enthalpies=            -951.843838
 Sum of electronic and thermal Free Energies=         -951.911024

                     E (Thermal)             CV                S
                      KCal/Mol        Cal/Mol-Kelvin    Cal/Mol-Kelvin
 Total                  225.737             72.557            141.405
 Electronic               0.000              0.000              0.000
 Translational            0.889              2.981             42.789
 Rotational               0.889              2.981             34.152
 Vibrational            223.960             66.595             64.464
 Vibration     1          0.593              1.985              6.422
 Vibration     2          0.595              1.980              5.144
 Vibration     3          0.596              1.975              4.554
 Vibration     4          0.599              1.967              4.058
 Vibration     5          0.600              1.962              3.871
 Vibration     6          0.603              1.952              3.542
 Vibration     7          0.612              1.924              2.952
 Vibration     8          0.617              1.908              2.734
 Vibration     9          0.625              1.880              2.442
 Vibration    10          0.632              1.859              2.269
 Vibration    11          0.644              1.819              2.008
 Vibration    12          0.647              1.812              1.967
 Vibration    13          0.655              1.787              1.839
 Vibration    14          0.670              1.740              1.638
 Vibration    15          0.688              1.686              1.455
 Vibration    16          0.697              1.660              1.378
 Vibration    17          0.702              1.645              1.335
 Vibration    18          0.725              1.581              1.178
 Vibration    19          0.748              1.518              1.050
 Vibration    20          0.772              1.455              0.938
 Vibration    21          0.778              1.438              0.910
 Vibration    22          0.792              1.402              0.854
 Vibration    23          0.813              1.350              0.782
 Vibration    24          0.830              1.309              0.728
 Vibration    25          0.850              1.263              0.673
 Vibration    26          0.869              1.220              0.625
 Vibration    27          0.882              1.190              0.594
 Vibration    28          0.896              1.160              0.564
 Vibration    29          0.932              1.085              0.494

 Optimization completed.
    -- Stationary point found.
 Normal termination of Gaussian 16 at Mon Dec 14 14:37:37 2020.

 ----------------------------------------------------------------------
 # B3LYP/6-311++G(d,p) empiricaldispersion=gd3bj scf=xqc pop=npa geom=c
 heck
 ----------------------------------------------------------------------

 ----------------------------------------
 CID_132381001_JID_10481_Energie_neutraal
 ----------------------------------------
 Structure from the checkpoint file:  "JID_10481.chk"
 Charge =  0 Multiplicity = 1

 SCF Done:  E(RB3LYP) =  -952.478812533     A.U. after   16 cycles
 Normal termination of Gaussian 16 at Mon Dec 14 14:45:43 2020.

 ----------------------------------------------------------------------
 # B3LYP/6-311++G(d,p) empiricaldispersion=gd3bj scf=xqc pop=npa geom=c
 heck
 ----------------------------------------------------------------------

 --------------------------------------
 CID_132381001_JID_10481_Energie_kation
 --------------------------------------
 Structure from the checkpoint file:  "JID_10481.chk"
 Charge =  1 Multiplicity = 2

 SCF Done:  E(UB3LYP) =  -952.183345332     A.U. after   27 cycles
 Normal termination of Gaussian 16 at Mon Dec 14 15:04:23 2020.
 Gaussian 16:  ES64L-G16RevA.03 25-Dec-2016

 ----------------------------------------------------------------------
 # B3LYP/6-311++G(d,p) empiricaldispersion=gd3bj scf=xqc pop=npa geom=c
 heck
 ----------------------------------------------------------------------

 -------------------------------------
 CID_132381001_JID_10481_Energie_anion
 -------------------------------------
 Structure from the checkpoint file:  "JID_10481.chk"
 Charge = -1 Multiplicity = 2

                         Standard orientation:
 ---------------------------------------------------------------------
 Center     Atomic      Atomic             Coordinates (Angstroms)
 Number     Number       Type             X           Y           Z
 ---------------------------------------------------------------------
      1          6           0       -5.539086    1.187211   -1.399373
      2          6           0       -5.590564    0.383219   -0.110530
      3          8           0       -4.446586    0.655677    0.730632
      4          6           0       -3.294796    0.021541    0.465972
      5          7           0       -3.239985   -0.864899   -0.543836
      6          6           0       -2.057402   -1.445223   -0.724710
      7          7           0       -0.933042   -1.252826   -0.035975
      8          6           0       -1.005357   -0.361883    0.987498
      9          6           0       -2.200703    0.314600    1.273462
     10          7           0        0.115846   -0.159810    1.731429
     11          6           0        1.389219   -0.810495    1.483419
     12          6           0        2.317833   -0.164649    0.384996
     13          6           0        3.533163    0.496217    1.068517
     14          6           0        4.382146    1.324504    0.101958
     15          8           0        3.600210    2.294113   -0.589528
     16          6           0        2.573696    1.672581   -1.346033
     17          6           0        1.592842    0.922710   -0.444258
     18          6           0        2.794970   -1.306810   -0.543907
     19          8           0        3.971646   -1.634375   -0.649681
     20          7           0        1.796347   -1.915720   -1.247137
     21          1           0       -5.437723    2.255853   -1.184314
     22          1           0       -6.463028    1.035426   -1.969012
     23          1           0       -4.696054    0.866298   -2.016544
     24          1           0       -6.442127    0.675628    0.508471
     25          1           0       -5.640515   -0.688743   -0.313278
     26          1           0       -1.995873   -2.161287   -1.542526
     27          1           0       -2.286249    1.026595    2.086162
     28          1           0        0.086364    0.594315    2.400927
     29          1           0        1.931656   -0.819317    2.433182
     30          1           0        1.173257   -1.849933    1.233124
     31          1           0        3.157945    1.157137    1.861879
     32          1           0        4.159494   -0.272014    1.533978
     33          1           0        5.145692    1.887075    0.647568
     34          1           0        4.880538    0.658298   -0.613515
     35          1           0        3.009656    0.987727   -2.092569
     36          1           0        2.059283    2.475016   -1.883474
     37          1           0        0.786155    0.494249   -1.044545
     38          1           0        1.141980    1.647865    0.242013
     39          1           0        0.821311   -1.796900   -0.968550
     40          1           0        2.056150   -2.744957   -1.763803
 ---------------------------------------------------------------------

 SCF Done:  E(UB3LYP) =  -952.472688077     A.U. after   33 cycles
 SCF Done:  E(UB3LYP) =  -952.472688076     a.u. after    1 cycles

 The electronic state is 2-A.
 Alpha  occ. eigenvalues --  -19.06126 -19.02844 -19.00041 -14.23715 -14.23250
 Alpha  occ. eigenvalues --  -14.20539 -14.19981 -10.18075 -10.16719 -10.15447
 Alpha  occ. eigenvalues --  -10.13341 -10.12943 -10.12167 -10.11718 -10.11714
 Alpha  occ. eigenvalues --  -10.10251 -10.07351 -10.07322 -10.07294 -10.06367
 Alpha  occ. eigenvalues --   -0.98548  -0.94951  -0.94248  -0.88950  -0.84244
 Alpha  occ. eigenvalues --   -0.81104  -0.76939  -0.72562  -0.69418  -0.67077
 Alpha  occ. eigenvalues --   -0.66143  -0.61614  -0.57105  -0.56309  -0.55170
 Alpha  occ. eigenvalues --   -0.54286  -0.50985  -0.50439  -0.46660  -0.45542
 Alpha  occ. eigenvalues --   -0.43635  -0.43411  -0.40810  -0.39907  -0.38602
 Alpha  occ. eigenvalues --   -0.38310  -0.37523  -0.36537  -0.36188  -0.36105
 Alpha  occ. eigenvalues --   -0.34510  -0.34315  -0.33913  -0.33009  -0.32266
 Alpha  occ. eigenvalues --   -0.32185  -0.30317  -0.30010  -0.28987  -0.28469
 Alpha  occ. eigenvalues --   -0.28147  -0.26945  -0.26194  -0.25641  -0.24710
 Alpha  occ. eigenvalues --   -0.23049  -0.22923  -0.21458  -0.20286  -0.18396
 Alpha  occ. eigenvalues --   -0.16994  -0.16835  -0.16467  -0.15748  -0.12650
 Alpha  occ. eigenvalues --    0.04137
 Alpha virt. eigenvalues --    0.05929   0.06503   0.07012   0.07970   0.08158
 Alpha virt. eigenvalues --    0.08484   0.08938   0.09098   0.09539   0.09724
 Alpha virt. eigenvalues --    0.09975   0.10435   0.11298   0.11419   0.11765

  Beta  occ. eigenvalues --  -19.06127 -19.02841 -19.00038 -14.23674 -14.23246
  Beta  occ. eigenvalues --  -14.20512 -14.19965 -10.18070 -10.16676 -10.15427
  Beta  occ. eigenvalues --  -10.13329 -10.12758 -10.12164 -10.11713 -10.11703
  Beta  occ. eigenvalues --  -10.10253 -10.07333 -10.07306 -10.07275 -10.06270
  Beta  occ. eigenvalues --   -0.98521  -0.94944  -0.94241  -0.88825  -0.84134
  Beta  occ. eigenvalues --   -0.81096  -0.76839  -0.72529  -0.69324  -0.67060
  Beta  occ. eigenvalues --   -0.66056  -0.61563  -0.57058  -0.56040  -0.55125
  Beta  occ. eigenvalues --   -0.54248  -0.50963  -0.50337  -0.46636  -0.45468
  Beta  occ. eigenvalues --   -0.43581  -0.43391  -0.40743  -0.39878  -0.38562
  Beta  occ. eigenvalues --   -0.38289  -0.37480  -0.36440  -0.36163  -0.35949
  Beta  occ. eigenvalues --   -0.34442  -0.34278  -0.33812  -0.32939  -0.32185
  Beta  occ. eigenvalues --   -0.32074  -0.30270  -0.29985  -0.28899  -0.28437
  Beta  occ. eigenvalues --   -0.28107  -0.26915  -0.26149  -0.25507  -0.24680
  Beta  occ. eigenvalues --   -0.22915  -0.22776  -0.21356  -0.20228  -0.18378
  Beta  occ. eigenvalues --   -0.16975  -0.16805  -0.16336  -0.15610  -0.12330
  Beta virt. eigenvalues --    0.06248   0.06883   0.07326   0.07679   0.08198
  Beta virt. eigenvalues --    0.08557   0.08627   0.08944   0.09229   0.09646
  Beta virt. eigenvalues --    0.09984   0.10160   0.10732   0.11236   0.11580

 Mulliken charges and spin densities:
               1          2
     1  C    0.285690  -0.630212
     2  C   -0.131807  -0.106163
     3  O   -0.093834   0.029443
     4  C    1.362786  -2.120946
     5  N   -0.106913   0.018826
     6  C   -0.266505   0.328785
     7  N   -0.208482  -0.039978
     8  C    1.209448  -1.746551
     9  C   -2.283331   2.979532
    10  N   -0.040474   0.021180
    11  C    0.337424  -1.041152
    12  C    0.136929   1.164998
    13  C    0.758088  -0.880018
    14  C   -0.470190  -0.074162
    15  O   -0.117133   0.014149
    16  C   -0.406793  -0.290119
    17  C   -0.047503  -0.444285
    18  C   -0.294567   0.040406
    19  O   -0.316116   0.004152
    20  N   -0.491605   0.007931
    21  H    0.032831   0.111195
    22  H   -0.209580   0.333168
    23  H    0.019280   0.140665
    24  H   -0.086147   0.244460
    25  H    0.165755   0.010071
    26  H    0.027622   0.125959
    27  H   -0.701404   0.901359
    28  H   -0.225078   0.550880
    29  H   -0.325572   0.531494
    30  H    0.265311  -0.032762
    31  H   -0.266581   0.446088
    32  H    0.201128  -0.033879
    33  H    0.123710   0.057479
    34  H    0.166899   0.000748
    35  H    0.157505  -0.001057
    36  H    0.067828   0.142482
    37  H    0.166094  -0.001619
    38  H   -0.015879   0.239056
    39  H    0.354042  -0.023865
    40  H    0.267122   0.022261
 Sum of Mulliken charges =  -1.00000   1.00000

 Dipole moment (field-independent basis, Debye):
    X=              1.5433    Y=             -4.2854    Z=             -2.9838  Tot=              5.4451
 Quadrupole moment (field-independent basis, Debye-Ang):
   XX=           -209.4877   YY=           -154.9712   ZZ=           -157.1176
   XY=              5.7526   XZ=             -4.0404   YZ=             -6.1638

 Summary of Natural Population Analysis:

                                       Natural Population
                Natural  -----------------------------------------------
    Atom  No    Charge         Core      Valence    Rydberg      Total
 -----------------------------------------------------------------------
      C    1   -0.29924      0.99966     2.29547    0.00410     3.29924
      C    2   -0.01263      0.99957     2.00270    0.01036     3.01263
      O    3   -0.27413      0.99985     3.26486    0.00942     4.27413
      C    4    0.28950      0.99946     1.69326    0.01779     2.71050
      N    5   -0.29973      0.99967     2.79028    0.00978     3.79973
      C    6    0.18868      0.99966     1.79330    0.01836     2.81132
      N    7   -0.31114      0.99966     2.80132    0.01016     3.81114
      C    8    0.22422      0.99953     1.76118    0.01507     2.77578
      C    9   -0.16721      0.99947     2.15792    0.00981     3.16721
      N   10   -0.30350      0.99966     2.79218    0.01166     3.80350
      C   11   -0.08120      0.99957     2.06778    0.01385     3.08120
      C   12   -0.07852      0.99951     2.06570    0.01331     3.07852
      C   13   -0.20548      0.99960     2.19426    0.01161     3.20548
      C   14   -0.01245      0.99957     2.00021    0.01266     3.01245
      O   15   -0.30087      0.99989     3.29258    0.00840     4.30087
      C   16   -0.00907      0.99958     1.99676    0.01273     3.00907
      C   17   -0.20940      0.99959     2.19875    0.01106     3.20940
      C   18    0.34640      0.99962     1.62859    0.02538     2.65360
      O   19   -0.33021      0.99988     3.32444    0.00590     4.33021
      N   20   -0.41506      0.99968     2.90797    0.00741     3.91506
      H   21    0.09972      0.00000     0.39897    0.00132     0.40028
      H   22    0.09806      0.00000     0.40059    0.00135     0.40194
      H   23    0.10790      0.00000     0.39048    0.00162     0.39210
      H   24    0.08685      0.00000     0.41184    0.00131     0.41315
      H   25    0.09460      0.00000     0.40372    0.00168     0.40540
      H   26    0.07619      0.00000     0.42281    0.00100     0.42381
      H   27    0.11278      0.00000     0.38558    0.00165     0.38722
      H   28    0.20053      0.00000     0.28871    0.01076     0.29947
      H   29    0.10214      0.00000     0.39672    0.00115     0.39786
      H   30    0.10448      0.00000     0.39364    0.00189     0.39552
      H   31    0.10261      0.00000     0.39578    0.00160     0.39739
      H   32    0.10798      0.00000     0.39097    0.00105     0.39202
      H   33    0.08817      0.00000     0.41085    0.00098     0.41183
      H   34    0.08763      0.00000     0.41115    0.00122     0.41237
      H   35    0.07700      0.00000     0.42187    0.00113     0.42300
      H   36    0.09182      0.00000     0.40713    0.00105     0.40818
      H   37    0.11085      0.00000     0.38737    0.00178     0.38915
      H   38    0.10874      0.00000     0.38921    0.00204     0.39126
      H   39    0.21395      0.00000     0.28382    0.00223     0.28605
      H   40    0.18907      0.00000     0.30893    0.00200     0.31093
 =======================================================================
   * Total *    0.00000     19.99270    54.72964    0.27766    75.00000

 Normal termination of Gaussian 16 at Mon Dec 14 15:27:42 2020.
