 Gaussian 16, Revision A.03,

 -----------------------------------------------------------
 # opt freq B3LYP/6-31G(d) empiricaldispersion=gd3bj scf=xqc
 -----------------------------------------------------------

 ------------------------------
 CID_18785846_JID_3747_neutraal
 ------------------------------
 Symbolic Z-matrix:
 Charge =  0 Multiplicity = 1

 SCF Done:  E(RB3LYP) =  -897.227815423     A.U. after   15 cycles
 SCF Done:  E(RB3LYP) =  -897.233336723     A.U. after   12 cycles
 SCF Done:  E(RB3LYP) =  -897.234151236     A.U. after   12 cycles
 SCF Done:  E(RB3LYP) =  -897.234224356     A.U. after   11 cycles
 SCF Done:  E(RB3LYP) =  -897.234265310     A.U. after   12 cycles
 SCF Done:  E(RB3LYP) =  -897.234298108     A.U. after   11 cycles
 SCF Done:  E(RB3LYP) =  -897.234302930     A.U. after    9 cycles
 SCF Done:  E(RB3LYP) =  -897.234303507     A.U. after    8 cycles
 SCF Done:  E(RB3LYP) =  -897.234303587     A.U. after    7 cycles
 Optimization completed.
    -- Stationary point found.
 Normal termination of Gaussian 16 at Wed Dec  9 23:26:39 2020.

 --------------------------------------------------------------------
 #N Geom=AllCheck Guess=TCheck SCRF=Check GenChk RB3LYP/6-31G(d) Freq
 --------------------------------------------------------------------

 Structure from the checkpoint file:  "JID_3747.chk"
 ------------------------------
 CID_18785846_JID_3747_neutraal
 ------------------------------
 Charge =  0 Multiplicity = 1

 SCF Done:  E(RB3LYP) =  -897.234303587     A.U. after    1 cycles

  Exact polarizability: 156.761   1.372 139.253 -18.231  -4.598  91.084
 Approx polarizability: 231.808   6.507 234.920 -45.641 -10.293 146.494

                      1                      2                      3
                      A                      A                      A
 Frequencies --     36.8814                61.4089                88.2923
 Red. masses --      3.3963                 3.0495                 3.2278
 Frc consts  --      0.0027                 0.0068                 0.0148
 IR Inten    --      0.0671                 0.2911                 0.2048

                      4                      5                      6
                      A                      A                      A
 Frequencies --    133.9715               173.5378               209.5333
 Red. masses --      3.9349                 2.2097                 4.4836
 Frc consts  --      0.0416                 0.0392                 0.1160
 IR Inten    --      1.9888                 2.8012                 1.6729

                      7                      8                      9
                      A                      A                      A
 Frequencies --    237.7798               255.7919               291.4460
 Red. masses --      2.0291                 2.7501                 1.7988
 Frc consts  --      0.0676                 0.1060                 0.0900
 IR Inten    --      1.1706                 6.2800                 0.5794

                     10                     11                     12
                      A                      A                      A
 Frequencies --    309.1974               331.7136               386.7156
 Red. masses --      2.0939                 1.3172                 2.7228
 Frc consts  --      0.1179                 0.0854                 0.2399
 IR Inten    --      5.8152                62.6282                 6.2321

                     13                     14                     15
                      A                      A                      A
 Frequencies --    429.2041               459.2202               483.0126
 Red. masses --      3.7864                 3.2285                 4.8902
 Frc consts  --      0.4110                 0.4011                 0.6722
 IR Inten    --      2.1046                23.6851                 4.7706

                     16                     17                     18
                      A                      A                      A
 Frequencies --    518.7260               530.7953               572.7526
 Red. masses --      4.5196                 3.0623                 1.7501
 Frc consts  --      0.7165                 0.5083                 0.3383
 IR Inten    --      5.4880                 3.0839               123.5201

                     19                     20                     21
                      A                      A                      A
 Frequencies --    603.7642               633.2894               681.7023
 Red. masses --      4.5596                 2.3358                 6.7263
 Frc consts  --      0.9793                 0.5519                 1.8417
 IR Inten    --     30.5381                88.5205                13.6139

                     22                     23                     24
                      A                      A                      A
 Frequencies --    699.8886               734.8021               766.0062
 Red. masses --      1.6932                 3.0504                 1.5692
 Frc consts  --      0.4887                 0.9704                 0.5425
 IR Inten    --      7.1678                67.8286                 2.4694

                     25                     26                     27
                      A                      A                      A
 Frequencies --    775.5011               833.8000               841.5921
 Red. masses --      3.5746                 1.9170                 3.3708
 Frc consts  --      1.2666                 0.7852                 1.4067
 IR Inten    --     14.5569                10.9031                14.6964

                     28                     29                     30
                      A                      A                      A
 Frequencies --    887.4904               897.4024               913.6962
 Red. masses --      1.3230                 2.4825                 2.2125
 Frc consts  --      0.6140                 1.1779                 1.0882
 IR Inten    --      1.5124                 5.7552                 0.9405

                     31                     32                     33
                      A                      A                      A
 Frequencies --    940.5676              1002.0169              1024.1383
 Red. masses --      1.6730                 2.4962                 2.0507
 Frc consts  --      0.8720                 1.4766                 1.2673
 IR Inten    --      9.1167                 7.2118                17.8885

                     34                     35                     36
                      A                      A                      A
 Frequencies --   1053.4366              1099.7038              1111.3829
 Red. masses --      2.3720                 1.8964                 2.3246
 Frc consts  --      1.5509                 1.3512                 1.6917
 IR Inten    --     15.1840                 0.8982                 4.3298

                     37                     38                     39
                      A                      A                      A
 Frequencies --   1120.4916              1136.2740              1147.9459
 Red. masses --      1.5252                 1.6551                 1.9405
 Frc consts  --      1.1282                 1.2590                 1.5066
 IR Inten    --      1.3740                 1.4110                 7.6748

                     40                     41                     42
                      A                      A                      A
 Frequencies --   1195.7211              1240.7388              1259.4369
 Red. masses --      1.7515                 1.8104                 1.3582
 Frc consts  --      1.4755                 1.6421                 1.2693
 IR Inten    --      2.5687                 7.4913                 3.7084

                     43                     44                     45
                      A                      A                      A
 Frequencies --   1274.6982              1310.2575              1332.8166
 Red. masses --      1.4017                 1.3596                 1.2703
 Frc consts  --      1.3419                 1.3752                 1.3296
 IR Inten    --      1.4473                 1.0218                 0.9549

                     46                     47                     48
                      A                      A                      A
 Frequencies --   1368.2333              1383.2555              1399.7120
 Red. masses --      1.2804                 1.3947                 1.7792
 Frc consts  --      1.4122                 1.5723                 2.0538
 IR Inten    --      9.6507                15.4694                30.3798

                     49                     50                     51
                      A                      A                      A
 Frequencies --   1403.9508              1406.7231              1438.1574
 Red. masses --      1.6355                 2.2939                 1.3063
 Frc consts  --      1.8993                 2.6745                 1.5918
 IR Inten    --     31.2170                59.9814                13.0242

                     52                     53                     54
                      A                      A                      A
 Frequencies --   1446.7628              1488.7094              1503.5374
 Red. masses --      2.9670                 4.9151                 1.1576
 Frc consts  --      3.6589                 6.4181                 1.5418
 IR Inten    --      6.6887                40.8150                 4.0703

                     55                     56                     57
                      A                      A                      A
 Frequencies --   1508.7380              1518.6539              1525.1695
 Red. masses --      1.0861                 1.0744                 1.0483
 Frc consts  --      1.4567                 1.4599                 1.4368
 IR Inten    --      0.5529                 1.2234                11.6663

                     58                     59                     60
                      A                      A                      A
 Frequencies --   1545.6669              1597.3098              1657.3815
 Red. masses --      1.0598                 6.3661                 1.4714
 Frc consts  --      1.4918                 9.5698                 2.3814
 IR Inten    --      9.3743                15.0671                69.0925

                     61                     62                     63
                      A                      A                      A
 Frequencies --   1702.4660              3019.3320              3022.2263
 Red. masses --      3.4374                 1.0620                 1.0682
 Frc consts  --      5.8699                 5.7045                 5.7484
 IR Inten    --    252.6082                12.3626                29.6273

                     64                     65                     66
                      A                      A                      A
 Frequencies --   3028.4081              3040.3203              3042.0544
 Red. masses --      1.0628                 1.0474                 1.0816
 Frc consts  --      5.7431                 5.7044                 5.8970
 IR Inten    --     34.1619                33.9473                32.1701

                     67                     68                     69
                      A                      A                      A
 Frequencies --   3055.6999              3072.1166              3084.1779
 Red. masses --      1.0958                 1.0998                 1.0948
 Frc consts  --      6.0284                 6.1154                 6.1360
 IR Inten    --     40.5221                61.7838                38.0480

                     70                     71                     72
                      A                      A                      A
 Frequencies --   3098.2668              3152.4253              3221.8014
 Red. masses --      1.1013                 1.0982                 1.0912
 Frc consts  --      6.2289                 6.4300                 6.6736
 IR Inten    --     71.7411                17.7990                 6.2767

                     73                     74                     75
                      A                      A                      A
 Frequencies --   3272.6874              3555.9458              3666.3272
 Red. masses --      1.0965                 1.0470                 1.0997
 Frc consts  --      6.9196                 7.8004                 8.7091
 IR Inten    --      0.5637                17.9877                13.2902

 - Thermochemistry -
 -------------------
 Temperature   298.150 Kelvin.  Pressure   1.00000 Atm.
 Atom     1 has atomic number  6 and mass  12.00000

 Molecular mass:   194.08777 amu.
 Principal axes and moments of inertia in atomic units:
                           1         2         3
     Eigenvalues --  1535.542293527.461704190.90095
           X            0.99981  -0.01219   0.01528
           Y            0.01241   0.99982  -0.01416
           Z           -0.01511   0.01435   0.99978
 This molecule is an asymmetric top.
 Rotational symmetry number  1.
 Warning -- assumption of classical behavior for rotation
           may cause significant error
 Rotational temperatures (Kelvin)      0.05641     0.02455     0.02067
 Rotational constants (GHZ):           1.17531     0.51163     0.43063
 Zero-point vibrational energy     599656.6 (Joules/Mol)
                                  143.32137 (Kcal/Mol)
 Warning -- explicit consideration of  19 degrees of freedom as
           vibrations may cause significant error
 Vibrational temperatures:     53.06    88.35   127.03   192.76   249.68
          (Kelvin)            301.47   342.11   368.03   419.33   444.87
                              477.26   556.40   617.53   660.72   694.95
                              746.33   763.70   824.06   868.68   911.16
                              980.82  1006.98  1057.22  1102.11  1115.77
                             1199.65  1210.86  1276.90  1291.16  1314.60
                             1353.27  1441.68  1473.51  1515.66  1582.23
                             1599.03  1612.14  1634.84  1651.64  1720.38
                             1785.15  1812.05  1834.01  1885.17  1917.63
                             1968.58  1990.20  2013.87  2019.97  2023.96
                             2069.19  2081.57  2141.92  2163.25  2170.74
                             2185.00  2194.38  2223.87  2298.17  2384.60
                             2449.47  4344.15  4348.31  4357.20  4374.34
                             4376.84  4396.47  4420.09  4437.44  4457.71
                             4535.64  4635.45  4708.67  5116.21  5275.03

 Zero-point correction=                           0.228397 (Hartree/Particle)
 Thermal correction to Energy=                    0.240902
 Thermal correction to Enthalpy=                  0.241847
 Thermal correction to Gibbs Free Energy=         0.189237
 Sum of electronic and zero-point Energies=           -897.005906
 Sum of electronic and thermal Energies=              -896.993401
 Sum of electronic and thermal Enthalpies=            -896.992457
 Sum of electronic and thermal Free Energies=         -897.045066

                     E (Thermal)             CV                S
                      KCal/Mol        Cal/Mol-Kelvin    Cal/Mol-Kelvin
 Total                  151.169             48.612            110.725
 Electronic               0.000              0.000              0.000
 Translational            0.889              2.981             41.695
 Rotational               0.889              2.981             31.496
 Vibrational            149.391             42.651             37.535
 Vibration     1          0.594              1.982              5.420
 Vibration     2          0.597              1.973              4.411
 Vibration     3          0.601              1.957              3.698
 Vibration     4          0.613              1.919              2.888
 Vibration     5          0.627              1.875              2.397
 Vibration     6          0.642              1.826              2.048
 Vibration     7          0.656              1.783              1.819
 Vibration     8          0.666              1.753              1.690
 Vibration     9          0.687              1.690              1.466
 Vibration    10          0.699              1.656              1.367
 Vibration    11          0.714              1.612              1.252
 Vibration    12          0.755              1.499              1.013
 Vibration    13          0.791              1.407              0.861
 Vibration    14          0.817              1.340              0.768
 Vibration    15          0.839              1.288              0.702
 Vibration    16          0.874              1.209              0.613
 Vibration    17          0.886              1.182              0.585
 Vibration    18          0.929              1.090              0.499
 Vibration    19          0.962              1.024              0.443

 Optimization completed.
    -- Stationary point found.
 Normal termination of Gaussian 16 at Wed Dec  9 23:33:42 2020.

 ----------------------------------------------------------------------
 # B3LYP/6-311++G(d,p) empiricaldispersion=gd3bj scf=xqc pop=npa geom=c
 heck
 ----------------------------------------------------------------------

 --------------------------------------
 CID_18785846_JID_3747_Energie_neutraal
 --------------------------------------
 Structure from the checkpoint file:  "JID_3747.chk"
 Charge =  0 Multiplicity = 1

 SCF Done:  E(RB3LYP) =  -897.399355503     A.U. after   16 cycles
 Normal termination of Gaussian 16 at Wed Dec  9 23:36:37 2020.

 ----------------------------------------------------------------------
 # B3LYP/6-311++G(d,p) empiricaldispersion=gd3bj scf=xqc pop=npa geom=c
 heck
 ----------------------------------------------------------------------

 ------------------------------------
 CID_18785846_JID_3747_Energie_kation
 ------------------------------------
 Structure from the checkpoint file:  "JID_3747.chk"
 Charge =  1 Multiplicity = 2

 SCF Done:  E(UB3LYP) =  -897.114627782     A.U. after   26 cycles
 Normal termination of Gaussian 16 at Wed Dec  9 23:42:54 2020.
 Gaussian 16:  ES64L-G16RevA.03 25-Dec-2016

 ----------------------------------------------------------------------
 # B3LYP/6-311++G(d,p) empiricaldispersion=gd3bj scf=xqc pop=npa geom=c
 heck
 ----------------------------------------------------------------------

 -----------------------------------
 CID_18785846_JID_3747_Energie_anion
 -----------------------------------
 Structure from the checkpoint file:  "JID_3747.chk"
 Charge = -1 Multiplicity = 2

                         Standard orientation:
 ---------------------------------------------------------------------
 Center     Atomic      Atomic             Coordinates (Angstroms)
 Number     Number       Type             X           Y           Z
 ---------------------------------------------------------------------
      1          6           0       -3.430461    0.889483   -1.039159
      2          6           0       -3.344825   -0.618937   -0.785953
      3          6           0       -1.933993   -1.165057   -0.517808
      4          6           0       -1.341727   -0.844054    0.872581
      5          6           0       -0.044984   -1.648621    1.125181
      6          6           0        1.095291   -1.024137    0.372182
      7          6           0        1.070686    0.338224    0.188415
      8          6           0       -0.057836    1.136366    0.682828
      9          7           0       -1.170519    0.602373    1.047560
     10          7           0        0.124689    2.503515    0.823867
     11         16           0        2.490522    0.899640   -0.654906
     12          6           0        3.106554   -0.720183   -0.759677
     13          6           0        2.266157   -1.628112   -0.170979
     14          1           0       -3.117850    1.449911   -0.155650
     15          1           0       -4.453785    1.182296   -1.303159
     16          1           0       -2.774593    1.181360   -1.869553
     17          1           0       -3.997259   -0.886834    0.057363
     18          1           0       -3.749121   -1.147751   -1.659934
     19          1           0       -1.965508   -2.259814   -0.609572
     20          1           0       -1.242593   -0.807444   -1.292795
     21          1           0       -2.078736   -1.162446    1.620529
     22          1           0        0.186564   -1.638496    2.200306
     23          1           0       -0.186158   -2.697501    0.840368
     24          1           0        0.766191    2.951394    0.182712
     25          1           0       -0.745396    3.007084    0.948767
     26          1           0        4.049201   -0.904882   -1.256372
     27          1           0        2.472314   -2.692166   -0.130169
 ---------------------------------------------------------------------

 SCF Done:  E(UB3LYP) =  -897.393078492     A.U. after   33 cycles
 SCF Done:  E(UB3LYP) =  -897.393078492     a.u. after    1 cycles

 The electronic state is 2-A.
 Alpha  occ. eigenvalues --  -88.72788 -14.18736 -14.12625 -10.09203 -10.06342
 Alpha  occ. eigenvalues --  -10.04665 -10.04432 -10.04059 -10.04005 -10.03458
 Alpha  occ. eigenvalues --  -10.03458 -10.03103 -10.02953  -7.81438  -5.77735
 Alpha  occ. eigenvalues --   -5.77383  -5.77045  -0.81372  -0.74426  -0.72866
 Alpha  occ. eigenvalues --   -0.66098  -0.63369  -0.59493  -0.58852  -0.54451
 Alpha  occ. eigenvalues --   -0.48950  -0.47000  -0.44888  -0.42779  -0.39651
 Alpha  occ. eigenvalues --   -0.36019  -0.34984  -0.33282  -0.32679  -0.31514
 Alpha  occ. eigenvalues --   -0.29505  -0.28721  -0.27470  -0.26225  -0.25167
 Alpha  occ. eigenvalues --   -0.25105  -0.23334  -0.22831  -0.22181  -0.21014
 Alpha  occ. eigenvalues --   -0.20512  -0.19720  -0.19232  -0.11697  -0.11468
 Alpha  occ. eigenvalues --   -0.10281  -0.08083   0.05488
 Alpha virt. eigenvalues --    0.07824   0.08642   0.08847   0.09431   0.10088
 Alpha virt. eigenvalues --    0.10651   0.11648   0.12041   0.12387   0.12905
 Alpha virt. eigenvalues --    0.14122   0.14705   0.14936   0.15269   0.15518

  Beta  occ. eigenvalues --  -88.72737 -14.18713 -14.12389 -10.09086 -10.06344
  Beta  occ. eigenvalues --  -10.04418 -10.04299 -10.04062 -10.03827 -10.03510
  Beta  occ. eigenvalues --  -10.03440 -10.03087 -10.02791  -7.81392  -5.77713
  Beta  occ. eigenvalues --   -5.77363  -5.76874  -0.81125  -0.74230  -0.72546
  Beta  occ. eigenvalues --   -0.66026  -0.63149  -0.59091  -0.58644  -0.54318
  Beta  occ. eigenvalues --   -0.48782  -0.46632  -0.44727  -0.42467  -0.39565
  Beta  occ. eigenvalues --   -0.35823  -0.34847  -0.33187  -0.32586  -0.31327
  Beta  occ. eigenvalues --   -0.29320  -0.28581  -0.27253  -0.26109  -0.24949
  Beta  occ. eigenvalues --   -0.24479  -0.23178  -0.22516  -0.21842  -0.20926
  Beta  occ. eigenvalues --   -0.20401  -0.19495  -0.18953  -0.10768  -0.10684
  Beta  occ. eigenvalues --   -0.09868  -0.06660
  Beta virt. eigenvalues --    0.07865   0.08768   0.08891   0.09480   0.10226
  Beta virt. eigenvalues --    0.10576   0.10792   0.11634   0.12132   0.12453
  Beta virt. eigenvalues --    0.12897   0.14129   0.14785   0.14922   0.15290

 Mulliken charges and spin densities:
               1          2
     1  C    0.012308  -0.620624
     2  C   -0.224126   0.014521
     3  C   -0.096336  -0.235289
     4  C    0.134051   0.234983
     5  C   -0.340504  -0.890441
     6  C    0.046092   0.603796
     7  C    0.523030  -0.009916
     8  C   -0.549814   0.104259
     9  N   -0.134509   0.105085
    10  N   -0.331706   0.045809
    11  S   -0.749055   0.062924
    12  C   -0.239514   0.247167
    13  C    0.292615  -0.101588
    14  H    0.060692   0.102369
    15  H   -0.126127   0.241656
    16  H    0.042678   0.081673
    17  H    0.022915   0.065751
    18  H   -0.183911   0.318563
    19  H   -0.151484   0.271176
    20  H    0.127931   0.020365
    21  H    0.073530   0.129129
    22  H    0.132763   0.013516
    23  H    0.065681   0.047470
    24  H    0.160395   0.062763
    25  H    0.183938   0.054163
    26  H    0.179502  -0.008399
    27  H    0.068965   0.039118
 Sum of Mulliken charges =  -1.00000   1.00000

 Dipole moment (field-independent basis, Debye):
    X=              1.7618    Y=             -0.2316    Z=              0.1632  Tot=              1.7844
 Quadrupole moment (field-independent basis, Debye-Ang):
   XX=           -131.8910   YY=           -104.9858   ZZ=           -107.8301
   XY=             -1.3665   XZ=             -4.6231   YZ=             -3.2206

 Summary of Natural Population Analysis:

                                       Natural Population
                Natural  -----------------------------------------------
    Atom  No    Charge         Core      Valence    Rydberg      Total
 -----------------------------------------------------------------------
      C    1   -0.28819      0.99966     2.28380    0.00473     3.28819
      C    2   -0.18655      0.99964     2.17863    0.00827     3.18655
      C    3   -0.19048      0.99960     2.18082    0.01006     3.19048
      C    4   -0.01126      0.99959     1.99692    0.01474     3.01126
      C    5   -0.19853      0.99958     2.18994    0.00901     3.19853
      C    6    0.00021      0.99943     1.98884    0.01151     2.99979
      C    7   -0.11386      0.99933     2.10241    0.01212     3.11386
      C    8    0.22184      0.99950     1.76192    0.01673     2.77816
      N    9   -0.26039      0.99965     2.75008    0.01066     3.76039
      N   10   -0.40432      0.99971     2.89439    0.01022     3.90432
      S   11    0.19709      4.99943     2.78135    0.02213     7.80291
      C   12   -0.12465      0.99955     2.11399    0.01110     3.12465
      C   13   -0.14785      0.99949     2.13875    0.00961     3.14785
      H   14    0.11113      0.00000     0.38684    0.00202     0.38887
      H   15    0.08813      0.00000     0.41078    0.00109     0.41187
      H   16    0.09219      0.00000     0.40632    0.00149     0.40781
      H   17    0.08886      0.00000     0.40992    0.00123     0.41114
      H   18    0.08935      0.00000     0.40949    0.00116     0.41065
      H   19    0.09257      0.00000     0.40595    0.00149     0.40743
      H   20    0.09906      0.00000     0.39960    0.00134     0.40094
      H   21    0.08515      0.00000     0.41279    0.00206     0.41485
      H   22    0.10093      0.00000     0.39798    0.00108     0.39907
      H   23    0.09833      0.00000     0.40057    0.00110     0.40167
      H   24    0.18314      0.00000     0.31522    0.00165     0.31686
      H   25    0.18454      0.00000     0.31306    0.00240     0.31546
      H   26    0.09540      0.00000     0.40377    0.00084     0.40460
      H   27    0.09816      0.00000     0.40080    0.00105     0.40184
 =======================================================================
   * Total *   -0.00000     16.99418    34.83494    0.17087    52.00000

 Normal termination of Gaussian 16 at Wed Dec  9 23:51:02 2020.
