 Gaussian 16, Revision A.03,

 -----------------------------------------------------------
 # opt freq B3LYP/6-31G(d) empiricaldispersion=gd3bj scf=xqc
 -----------------------------------------------------------

 ------------------------------
 CID_87835458_JID_1769_neutraal
 ------------------------------
 Symbolic Z-matrix:
 Charge =  0 Multiplicity = 1

 SCF Done:  E(RB3LYP) =  -485.601775345     A.U. after   12 cycles
 SCF Done:  E(RB3LYP) =  -485.605852543     A.U. after   11 cycles
 SCF Done:  E(RB3LYP) =  -485.606180593     A.U. after   11 cycles
 SCF Done:  E(RB3LYP) =  -485.606622614     A.U. after   10 cycles
 SCF Done:  E(RB3LYP) =  -485.607045355     A.U. after   11 cycles
 SCF Done:  E(RB3LYP) =  -485.607287804     A.U. after   10 cycles
 SCF Done:  E(RB3LYP) =  -485.607423411     A.U. after   10 cycles
 SCF Done:  E(RB3LYP) =  -485.607514979     A.U. after    9 cycles
 SCF Done:  E(RB3LYP) =  -485.607575966     A.U. after   10 cycles
 SCF Done:  E(RB3LYP) =  -485.607633911     A.U. after    9 cycles
 SCF Done:  E(RB3LYP) =  -485.610100917     A.U. after   10 cycles
 SCF Done:  E(RB3LYP) =  -485.610111533     A.U. after    9 cycles
 SCF Done:  E(RB3LYP) =  -485.610115171     A.U. after    8 cycles
 SCF Done:  E(RB3LYP) =  -485.610115715     A.U. after    7 cycles
 SCF Done:  E(RB3LYP) =  -485.610115846     A.U. after    6 cycles
 SCF Done:  E(RB3LYP) =  -485.610115859     A.U. after    5 cycles
 Optimization completed.
    -- Stationary point found.
 Normal termination of Gaussian 16 at Tue Dec  8 21:15:53 2020.

 --------------------------------------------------------------------
 #N Geom=AllCheck Guess=TCheck SCRF=Check GenChk RB3LYP/6-31G(d) Freq
 --------------------------------------------------------------------

 Structure from the checkpoint file:  "JID_1769.chk"
 ------------------------------
 CID_87835458_JID_1769_neutraal
 ------------------------------
 Charge =  0 Multiplicity = 1

 SCF Done:  E(RB3LYP) =  -485.610115859     A.U. after    1 cycles

  Exact polarizability: 117.177  -1.060 110.556  -0.399  -1.200  94.118
 Approx polarizability: 144.078  -1.254 143.978   1.062  -1.511 139.894

                      1                      2                      3
                      A                      A                      A
 Frequencies --     28.1750                44.5437                59.6776
 Red. masses --      3.0631                 2.3241                 2.5937
 Frc consts  --      0.0014                 0.0027                 0.0054
 IR Inten    --      0.1733                 0.0082                 0.2586

                      4                      5                      6
                      A                      A                      A
 Frequencies --     84.9276               119.9495               151.0660
 Red. masses --      2.5956                 2.2627                 2.1016
 Frc consts  --      0.0110                 0.0192                 0.0283
 IR Inten    --      0.3473                 2.3647                 0.7290

                      7                      8                      9
                      A                      A                      A
 Frequencies --    188.4957               223.2250               229.9061
 Red. masses --      2.2242                 1.8525                 1.2292
 Frc consts  --      0.0466                 0.0544                 0.0383
 IR Inten    --      0.0521                 0.3578                 1.0710

                     10                     11                     12
                      A                      A                      A
 Frequencies --    256.2017               275.6643               284.7016
 Red. masses --      1.2906                 1.3893                 1.2382
 Frc consts  --      0.0499                 0.0622                 0.0591
 IR Inten    --      0.1282                 0.6513                 1.5347

                     13                     14                     15
                      A                      A                      A
 Frequencies --    323.1520               327.2547               356.5694
 Red. masses --      2.4685                 2.1477                 2.2018
 Frc consts  --      0.1519                 0.1355                 0.1649
 IR Inten    --      2.2143                 1.5256                 0.8638

                     16                     17                     18
                      A                      A                      A
 Frequencies --    357.8780               410.5302               468.5833
 Red. masses --      2.2889                 2.5315                 2.4747
 Frc consts  --      0.1727                 0.2514                 0.3201
 IR Inten    --      2.8962                 5.2911                 1.8539

                     19                     20                     21
                      A                      A                      A
 Frequencies --    483.2877               503.3805               660.9586
 Red. masses --      2.4222                 2.7292                 3.8881
 Frc consts  --      0.3333                 0.4075                 1.0008
 IR Inten    --      3.0710                 1.5767                 2.8742

                     22                     23                     24
                      A                      A                      A
 Frequencies --    738.4246               803.5688               831.1325
 Red. masses --      1.3741                 1.6742                 1.1199
 Frc consts  --      0.4415                 0.6369                 0.4558
 IR Inten    --      9.2208                 5.4754                 0.1560

                     25                     26                     27
                      A                      A                      A
 Frequencies --    848.0471               869.7090               895.3267
 Red. masses --      2.2648                 2.3233                 1.8160
 Frc consts  --      0.9596                 1.0354                 0.8577
 IR Inten    --      0.0953                10.7552                 3.8974

                     28                     29                     30
                      A                      A                      A
 Frequencies --    966.4225               982.7666              1019.5788
 Red. masses --      2.2313                 1.7710                 2.0907
 Frc consts  --      1.2278                 1.0078                 1.2805
 IR Inten    --     20.5001                 4.6481                 4.5127

                     31                     32                     33
                      A                      A                      A
 Frequencies --   1034.4872              1059.8422              1078.3530
 Red. masses --      2.0565                 2.1737                 1.5695
 Frc consts  --      1.2967                 1.4385                 1.0753
 IR Inten    --     48.4807                47.0568                21.8460

                     34                     35                     36
                      A                      A                      A
 Frequencies --   1104.6722              1113.2582              1127.8572
 Red. masses --      2.6503                 2.1997                 1.5664
 Frc consts  --      1.9055                 1.6062                 1.1740
 IR Inten    --     29.9425                85.8247                33.8293

                     37                     38                     39
                      A                      A                      A
 Frequencies --   1140.4558              1150.8989              1164.8463
 Red. masses --      1.6843                 2.0795                 2.1836
 Frc consts  --      1.2907                 1.6228                 1.7457
 IR Inten    --     11.0384                18.1406                30.0300

                     40                     41                     42
                      A                      A                      A
 Frequencies --   1198.4202              1202.6358              1235.0644
 Red. masses --      1.5338                 1.5509                 1.6094
 Frc consts  --      1.2979                 1.3216                 1.4465
 IR Inten    --     24.3104                 7.3183                13.5075

                     43                     44                     45
                      A                      A                      A
 Frequencies --   1270.0993              1282.2997              1305.2920
 Red. masses --      2.1794                 1.3691                 1.1411
 Frc consts  --      2.0714                 1.3264                 1.1455
 IR Inten    --     43.2524                 1.7126                 1.5433

                     46                     47                     48
                      A                      A                      A
 Frequencies --   1319.1683              1330.0090              1375.2065
 Red. masses --      2.0278                 1.2550                 1.2933
 Frc consts  --      2.0791                 1.3080                 1.4410
 IR Inten    --     20.2191                 1.4052                 4.2689

                     49                     50                     51
                      A                      A                      A
 Frequencies --   1393.0940              1405.5875              1410.4049
 Red. masses --      1.2978                 1.3009                 1.3070
 Frc consts  --      1.4839                 1.5142                 1.5319
 IR Inten    --     18.3714                 2.6249                16.3756

                     52                     53                     54
                      A                      A                      A
 Frequencies --   1418.3629              1437.6724              1445.6811
 Red. masses --      1.2668                 1.4127                 1.2767
 Frc consts  --      1.5015                 1.7204                 1.5722
 IR Inten    --      2.1787                 4.4157                 4.0857

                     55                     56                     57
                      A                      A                      A
 Frequencies --   1447.8979              1462.9926              1497.1056
 Red. masses --      1.3342                 1.1690                 1.1799
 Frc consts  --      1.6479                 1.4741                 1.5581
 IR Inten    --     19.9707                 1.1071                 7.1415

                     58                     59                     60
                      A                      A                      A
 Frequencies --   1511.7669              1514.8096              1516.5161
 Red. masses --      1.0657                 1.0426                 1.0559
 Frc consts  --      1.4350                 1.4096                 1.4307
 IR Inten    --      4.8144                 4.5985                 6.8307

                     61                     62                     63
                      A                      A                      A
 Frequencies --   1525.7710              1527.5953              1528.5989
 Red. masses --      1.0753                 1.0575                 1.0581
 Frc consts  --      1.4749                 1.4539                 1.4566
 IR Inten    --      3.4651                 2.3617                 4.2765

                     64                     65                     66
                      A                      A                      A
 Frequencies --   1532.6336              1534.3696              1538.1053
 Red. masses --      1.0503                 1.0557                 1.0612
 Frc consts  --      1.4536                 1.4644                 1.4792
 IR Inten    --      1.2036                 8.2156                18.6774

                     67                     68                     69
                      A                      A                      A
 Frequencies --   1545.8216              1549.4327              1564.2858
 Red. masses --      1.0606                 1.0572                 1.0883
 Frc consts  --      1.4932                 1.4954                 1.5690
 IR Inten    --      6.0150                 5.2816                 0.6943

                     70                     71                     72
                      A                      A                      A
 Frequencies --   2934.6985              2944.2087              2972.2146
 Red. masses --      1.0624                 1.0638                 1.0810
 Frc consts  --      5.3908                 5.4333                 5.6265
 IR Inten    --     42.9041               100.5612                94.4861

                     73                     74                     75
                      A                      A                      A
 Frequencies --   3011.7697              3033.5328              3040.3433
 Red. masses --      1.0669                 1.0683                 1.0620
 Frc consts  --      5.7017                 5.7921                 5.7840
 IR Inten    --     41.3201                21.1083                30.8030

                     76                     77                     78
                      A                      A                      A
 Frequencies --   3043.7222              3055.6182              3063.5374
 Red. masses --      1.0383                 1.0351                 1.0664
 Frc consts  --      5.6675                 5.6939                 5.8969
 IR Inten    --     25.1482                23.9902                20.4745

                     79                     80                     81
                      A                      A                      A
 Frequencies --   3069.6709              3075.6409              3084.4202
 Red. masses --      1.0939                 1.0953                 1.0979
 Frc consts  --      6.0733                 6.1047                 6.1541
 IR Inten    --     37.1521                16.9362                30.0792

                     82                     83                     84
                      A                      A                      A
 Frequencies --   3088.4715              3092.8061              3107.0331
 Red. masses --      1.0754                 1.0742                 1.0998
 Frc consts  --      6.0440                 6.0541                 6.2552
 IR Inten    --     15.1614                60.0105                54.8184

                     85                     86                     87
                      A                      A                      A
 Frequencies --   3108.7340              3121.0265              3126.0436
 Red. masses --      1.1008                 1.1018                 1.1022
 Frc consts  --      6.2680                 6.3234                 6.3459
 IR Inten    --     45.8883                37.2370                33.4709

                     88                     89                     90
                      A                      A                      A
 Frequencies --   3131.1039              3148.9157              3165.8340
 Red. masses --      1.1036                 1.0976                 1.0978
 Frc consts  --      6.3745                 6.4122                 6.4827
 IR Inten    --     38.4038                27.3236                13.2856

 - Thermochemistry -
 -------------------
 Temperature   298.150 Kelvin.  Pressure   1.00000 Atm.
 Atom     1 has atomic number  6 and mass  12.00000

 Molecular mass:   159.16231 amu.
 Principal axes and moments of inertia in atomic units:
                           1         2         3
     Eigenvalues --  1532.109572473.912423421.54977
           X            1.00000  -0.00083   0.00149
           Y            0.00084   0.99998  -0.00598
           Z           -0.00148   0.00598   0.99998
 This molecule is an asymmetric top.
 Rotational symmetry number  1.
 Warning -- assumption of classical behavior for rotation
           may cause significant error
 Rotational temperatures (Kelvin)      0.05653     0.03501     0.02531
 Rotational constants (GHZ):           1.17795     0.72951     0.52746
 Zero-point vibrational energy     783636.7 (Joules/Mol)
                                  187.29366 (Kcal/Mol)
 Warning -- explicit consideration of  20 degrees of freedom as
           vibrations may cause significant error
 Vibrational temperatures:     40.54    64.09    85.86   122.19   172.58
          (Kelvin)            217.35   271.20   321.17   330.78   368.62
                              396.62   409.62   464.94   470.85   513.02
                              514.91   590.66   674.19   695.34   724.25
                              950.97  1062.43  1156.16  1195.81  1220.15
                             1251.32  1288.18  1390.47  1413.98  1466.95
                             1488.40  1524.88  1551.51  1589.38  1601.73
                             1622.73  1640.86  1655.89  1675.95  1724.26
                             1730.32  1776.98  1827.39  1844.94  1878.02
                             1897.99  1913.59  1978.62  2004.35  2022.33
                             2029.26  2040.71  2068.49  2080.01  2083.20
                             2104.92  2154.00  2175.10  2179.47  2181.93
                             2195.24  2197.87  2199.31  2205.12  2207.62
                             2212.99  2224.09  2229.29  2250.66  4222.38
                             4236.06  4276.35  4333.26  4364.58  4374.38
                             4379.24  4396.35  4407.75  4416.57  4425.16
                             4437.79  4443.62  4449.86  4470.33  4472.77
                             4490.46  4497.68  4504.96  4530.59  4554.93

 Zero-point correction=                           0.298471 (Hartree/Particle)
 Thermal correction to Energy=                    0.312543
 Thermal correction to Enthalpy=                  0.313487
 Thermal correction to Gibbs Free Energy=         0.257152
 Sum of electronic and zero-point Energies=           -485.311644
 Sum of electronic and thermal Energies=              -485.297573
 Sum of electronic and thermal Enthalpies=            -485.296629
 Sum of electronic and thermal Free Energies=         -485.352964

                     E (Thermal)             CV                S
                      KCal/Mol        Cal/Mol-Kelvin    Cal/Mol-Kelvin
 Total                  196.124             51.264            118.567
 Electronic               0.000              0.000              0.000
 Translational            0.889              2.981             41.103
 Rotational               0.889              2.981             30.940
 Vibrational            194.346             45.303             46.524
 Vibration     1          0.593              1.984              5.954
 Vibration     2          0.595              1.980              5.046
 Vibration     3          0.597              1.974              4.468
 Vibration     4          0.601              1.960              3.774
 Vibration     5          0.609              1.933              3.101
 Vibration     6          0.618              1.901              2.659
 Vibration     7          0.633              1.856              2.243
 Vibration     8          0.649              1.806              1.933
 Vibration     9          0.652              1.795              1.880
 Vibration    10          0.666              1.752              1.688
 Vibration    11          0.677              1.718              1.560
 Vibration    12          0.683              1.702              1.505
 Vibration    13          0.708              1.629              1.294
 Vibration    14          0.711              1.621              1.274
 Vibration    15          0.732              1.562              1.137
 Vibration    16          0.733              1.559              1.131
 Vibration    17          0.775              1.447              0.925
 Vibration    18          0.826              1.320              0.742
 Vibration    19          0.839              1.287              0.701
 Vibration    20          0.859              1.243              0.650

 Optimization completed.
    -- Stationary point found.
 Normal termination of Gaussian 16 at Tue Dec  8 21:24:20 2020.

 ----------------------------------------------------------------------
 # B3LYP/6-311++G(d,p) empiricaldispersion=gd3bj scf=xqc pop=npa geom=c
 heck
 ----------------------------------------------------------------------

 --------------------------------------
 CID_87835458_JID_1769_Energie_neutraal
 --------------------------------------
 Structure from the checkpoint file:  "JID_1769.chk"
 Charge =  0 Multiplicity = 1

 SCF Done:  E(RB3LYP) =  -485.750519752     A.U. after   14 cycles
 Normal termination of Gaussian 16 at Tue Dec  8 21:28:29 2020.

 ----------------------------------------------------------------------
 # B3LYP/6-311++G(d,p) empiricaldispersion=gd3bj scf=xqc pop=npa geom=c
 heck
 ----------------------------------------------------------------------

 ------------------------------------
 CID_87835458_JID_1769_Energie_kation
 ------------------------------------
 Structure from the checkpoint file:  "JID_1769.chk"
 Charge =  1 Multiplicity = 2

 SCF Done:  E(UB3LYP) =  -485.450815984     A.U. after   19 cycles
 Normal termination of Gaussian 16 at Tue Dec  8 21:35:43 2020.
 Gaussian 16:  ES64L-G16RevA.03 25-Dec-2016

 ----------------------------------------------------------------------
 # B3LYP/6-311++G(d,p) empiricaldispersion=gd3bj scf=xqc pop=npa geom=c
 heck
 ----------------------------------------------------------------------

 -----------------------------------
 CID_87835458_JID_1769_Energie_anion
 -----------------------------------
 Structure from the checkpoint file:  "JID_1769.chk"
 Charge = -1 Multiplicity = 2

                         Standard orientation:
 ---------------------------------------------------------------------
 Center     Atomic      Atomic             Coordinates (Angstroms)
 Number     Number       Type             X           Y           Z
 ---------------------------------------------------------------------
      1          6           0       -2.871171   -1.737314   -0.684822
      2          6           0       -2.965700   -0.221797   -0.483922
      3          6           0       -2.270131    0.289280    0.789926
      4          6           0       -0.807982   -0.159393    0.962182
      5          6           0        0.159853    0.210411   -0.178615
      6          7           0        0.900969    1.450527    0.057461
      7          6           0        1.692126    1.814095   -1.114261
      8          6           0        0.091554    2.578146    0.492658
      9          8           0        1.078851   -0.845249   -0.440814
     10          6           0        1.966045   -1.172384    0.628397
     11          6           0        2.998934   -2.142298    0.081261
     12          1           0       -1.838760   -2.055584   -0.866134
     13          1           0       -3.471731   -2.057446   -1.543358
     14          1           0       -3.236747   -2.276892    0.198115
     15          1           0       -2.552536    0.284913   -1.365452
     16          1           0       -4.021426    0.075832   -0.437267
     17          1           0       -2.346031    1.382291    0.816748
     18          1           0       -2.829182   -0.075161    1.662851
     19          1           0       -0.413085    0.207342    1.916861
     20          1           0       -0.795373   -1.251733    1.027074
     21          1           0       -0.401423    0.273245   -1.126773
     22          1           0        1.063035    2.128253   -1.970079
     23          1           0        2.360992    2.642930   -0.860041
     24          1           0        2.290763    0.958398   -1.428701
     25          1           0       -0.678464    2.877521   -0.245335
     26          1           0       -0.405227    2.361984    1.440259
     27          1           0        0.748266    3.439824    0.651954
     28          1           0        2.437905   -0.260753    1.013284
     29          1           0        1.410789   -1.635749    1.457914
     30          1           0        3.573157   -1.677926   -0.727278
     31          1           0        3.694292   -2.447479    0.871144
     32          1           0        2.512025   -3.037978   -0.318333
 ---------------------------------------------------------------------

 SCF Done:  E(UB3LYP) =  -485.732796878     A.U. after   27 cycles

 The electronic state is 2-A.
 Alpha  occ. eigenvalues --  -19.01852 -14.20554 -10.14157 -10.10961 -10.08430
 Alpha  occ. eigenvalues --  -10.08184 -10.06426 -10.06312 -10.06281 -10.06256
 Alpha  occ. eigenvalues --  -10.05624  -0.93752  -0.81593  -0.70142  -0.66421
 Alpha  occ. eigenvalues --   -0.63373  -0.60177  -0.58145  -0.53997  -0.52367
 Alpha  occ. eigenvalues --   -0.48027  -0.44996  -0.40553  -0.40137  -0.37004
 Alpha  occ. eigenvalues --   -0.35894  -0.34818  -0.34412  -0.33041  -0.32737
 Alpha  occ. eigenvalues --   -0.29931  -0.29435  -0.28729  -0.28606  -0.28064
 Alpha  occ. eigenvalues --   -0.27126  -0.26484  -0.26291  -0.25380  -0.23298
 Alpha  occ. eigenvalues --   -0.22420  -0.22141  -0.20797  -0.16158  -0.12243
 Alpha  occ. eigenvalues --    0.04642
 Alpha virt. eigenvalues --    0.06611   0.06887   0.07584   0.08683   0.09248
 Alpha virt. eigenvalues --    0.09399   0.09627   0.10263   0.11270   0.11700
 Alpha virt. eigenvalues --    0.11863   0.12406   0.12646   0.13256   0.13835

  Beta  occ. eigenvalues --  -19.01843 -14.20544 -10.14154 -10.10949 -10.08395
  Beta  occ. eigenvalues --  -10.08162 -10.06405 -10.06293 -10.06263 -10.06242
  Beta  occ. eigenvalues --  -10.05602  -0.93733  -0.81570  -0.70110  -0.66396
  Beta  occ. eigenvalues --   -0.63341  -0.60126  -0.58101  -0.53945  -0.52312
  Beta  occ. eigenvalues --   -0.47967  -0.44943  -0.40531  -0.40103  -0.36973
  Beta  occ. eigenvalues --   -0.35865  -0.34788  -0.34377  -0.33004  -0.32702
  Beta  occ. eigenvalues --   -0.29896  -0.29403  -0.28700  -0.28575  -0.28029
  Beta  occ. eigenvalues --   -0.27096  -0.26446  -0.26260  -0.25353  -0.23259
  Beta  occ. eigenvalues --   -0.22387  -0.22105  -0.20759  -0.16143  -0.12192
  Beta virt. eigenvalues --    0.06692   0.07385   0.07662   0.08224   0.09153
  Beta virt. eigenvalues --    0.09766   0.09860   0.10024   0.10877   0.11646
  Beta virt. eigenvalues --    0.12065   0.12198   0.12684   0.13082   0.13504

 Mulliken charges and spin densities:
               1          2
     1  C    0.619721  -1.274007
     2  C   -0.513052   0.377639
     3  C    0.557107  -0.790572
     4  C    0.301052  -0.239544
     5  C   -1.780946   0.375450
     6  N    0.146120   0.174428
     7  C    0.591257  -0.860511
     8  C    0.771162  -1.126882
     9  O    0.006925   0.007147
    10  C   -0.050007   0.098521
    11  C    0.650469  -1.128216
    12  H   -0.001248   0.174929
    13  H   -0.220688   0.348268
    14  H   -0.085682   0.222347
    15  H   -0.001920   0.107953
    16  H   -0.591307   0.762671
    17  H    0.083432   0.041732
    18  H   -0.436724   0.607889
    19  H   -0.054487   0.256990
    20  H    0.322401  -0.147748
    21  H    0.200132  -0.009552
    22  H   -0.197629   0.309816
    23  H   -0.203143   0.348564
    24  H    0.138314  -0.015279
    25  H   -0.131649   0.265708
    26  H   -0.451599   0.608338
    27  H   -0.212201   0.357760
    28  H    0.003101   0.161186
    29  H   -0.215636   0.330330
    30  H   -0.082728   0.222444
    31  H   -0.113128   0.245112
    32  H   -0.047417   0.187088
 Sum of Mulliken charges =  -1.00000   1.00000

 Dipole moment (field-independent basis, Debye):
    X=              2.4425    Y=             -1.5912    Z=             -1.2478  Tot=              3.1709
 Quadrupole moment (field-independent basis, Debye-Ang):
   XX=           -140.7898   YY=           -124.8205   ZZ=           -108.6495
   XY=             -2.4578   XZ=              0.3306   YZ=             -1.8027

 Summary of Natural Population Analysis:

                                       Natural Population
                Natural  -----------------------------------------------
    Atom  No    Charge         Core      Valence    Rydberg      Total
 -----------------------------------------------------------------------
      C    1   -0.28997      0.99966     2.28450    0.00581     3.28997
      C    2   -0.19135      0.99964     2.18362    0.00809     3.19135
      C    3   -0.18781      0.99962     2.17948    0.00871     3.18781
      C    4   -0.21423      0.99960     2.20533    0.00931     3.21423
      C    5    0.16704      0.99954     1.81752    0.01590     2.83296
      N    6   -0.28807      0.99971     2.77542    0.01295     3.78807
      C    7   -0.17981      0.99964     2.17141    0.00877     3.17981
      C    8   -0.17872      0.99964     2.16984    0.00924     3.17872
      O    9   -0.31028      0.99988     3.30056    0.00985     4.31028
      C   10   -0.01805      0.99958     2.00569    0.01277     3.01805
      C   11   -0.28944      0.99966     2.28517    0.00461     3.28944
      H   12    0.09880      0.00000     0.39988    0.00133     0.40120
      H   13    0.09824      0.00000     0.40087    0.00089     0.40176
      H   14    0.09571      0.00000     0.40325    0.00104     0.40429
      H   15    0.09159      0.00000     0.40692    0.00150     0.40841
      H   16    0.09754      0.00000     0.40097    0.00149     0.40246
      H   17    0.09831      0.00000     0.40002    0.00167     0.40169
      H   18    0.09695      0.00000     0.40161    0.00145     0.40305
      H   19    0.10437      0.00000     0.39397    0.00165     0.39563
      H   20    0.10569      0.00000     0.39267    0.00164     0.39431
      H   21    0.07820      0.00000     0.41951    0.00229     0.42180
      H   22    0.08029      0.00000     0.41834    0.00136     0.41971
      H   23    0.09484      0.00000     0.40409    0.00107     0.40516
      H   24    0.10245      0.00000     0.39616    0.00138     0.39755
      H   25    0.08104      0.00000     0.41749    0.00147     0.41896
      H   26    0.09881      0.00000     0.39963    0.00156     0.40119
      H   27    0.09760      0.00000     0.40102    0.00138     0.40240
      H   28    0.08861      0.00000     0.40931    0.00208     0.41139
      H   29    0.07822      0.00000     0.42016    0.00162     0.42178
      H   30    0.09765      0.00000     0.40092    0.00143     0.40235
      H   31    0.09775      0.00000     0.40128    0.00098     0.40225
      H   32    0.09805      0.00000     0.40051    0.00144     0.40195
 =======================================================================
   * Total *    0.00000     10.99617    33.86711    0.13671    45.00000

 Normal termination of Gaussian 16 at Tue Dec  8 21:47:31 2020.
