 Gaussian 16, Revision A.03,

 -----------------------------------------------------------
 # opt freq B3LYP/6-31G(d) empiricaldispersion=gd3bj scf=xqc
 -----------------------------------------------------------

 ------------------------------
 CID_20824486_JID_6999_neutraal
 ------------------------------
 Symbolic Z-matrix:
 Charge =  0 Multiplicity = 1

 SCF Done:  E(RB3LYP) =  -1069.77036700     A.U. after   15 cycles
 SCF Done:  E(RB3LYP) =  -1069.77487328     A.U. after   12 cycles
 SCF Done:  E(RB3LYP) =  -1069.77466369     A.U. after   12 cycles
 SCF Done:  E(RB3LYP) =  -1069.77631238     A.U. after   13 cycles
 SCF Done:  E(RB3LYP) =  -1069.77684648     A.U. after   13 cycles
 SCF Done:  E(RB3LYP) =  -1069.77724477     A.U. after   13 cycles
 SCF Done:  E(RB3LYP) =  -1069.77748092     A.U. after   12 cycles
 SCF Done:  E(RB3LYP) =  -1069.77757379     A.U. after   12 cycles
 SCF Done:  E(RB3LYP) =  -1069.77759696     A.U. after   11 cycles
 SCF Done:  E(RB3LYP) =  -1069.77760918     A.U. after   10 cycles
 SCF Done:  E(RB3LYP) =  -1069.77761647     A.U. after   10 cycles
 SCF Done:  E(RB3LYP) =  -1069.77762351     A.U. after   10 cycles
 SCF Done:  E(RB3LYP) =  -1069.77762737     A.U. after   10 cycles
 SCF Done:  E(RB3LYP) =  -1069.77762908     A.U. after   10 cycles
 SCF Done:  E(RB3LYP) =  -1069.77762928     A.U. after    8 cycles
 SCF Done:  E(RB3LYP) =  -1069.77762933     A.U. after    7 cycles
 Optimization completed.
    -- Stationary point found.
 Normal termination of Gaussian 16 at Fri Dec 11 01:28:51 2020.

 --------------------------------------------------------------------
 #N Geom=AllCheck Guess=TCheck SCRF=Check GenChk RB3LYP/6-31G(d) Freq
 --------------------------------------------------------------------

 Structure from the checkpoint file:  "JID_6999.chk"
 ------------------------------
 CID_20824486_JID_6999_neutraal
 ------------------------------
 Charge =  0 Multiplicity = 1

 SCF Done:  E(RB3LYP) =  -1069.77762933     A.U. after    1 cycles

  Exact polarizability: 223.254  -8.995 165.335  -1.438  -1.763  85.837
 Approx polarizability: 298.395  -9.093 278.984  -4.356  -5.681 136.416

                      1                      2                      3
                      A                      A                      A
 Frequencies --     25.0392                28.1962                52.0579
 Red. masses --      4.3611                 3.8505                 5.0903
 Frc consts  --      0.0016                 0.0018                 0.0081
 IR Inten    --      2.9563                 0.2542                 0.0028

                      4                      5                      6
                      A                      A                      A
 Frequencies --    111.6031               128.2313               144.9210
 Red. masses --      3.6969                 4.6358                 1.6482
 Frc consts  --      0.0271                 0.0449                 0.0204
 IR Inten    --      0.3544                 0.9337                 0.8974

                      7                      8                      9
                      A                      A                      A
 Frequencies --    156.6830               211.7605               222.3774
 Red. masses --      1.7910                 4.3654                 1.0775
 Frc consts  --      0.0259                 0.1153                 0.0314
 IR Inten    --      0.7391                 1.1858                 0.6510

                     10                     11                     12
                      A                      A                      A
 Frequencies --    237.4104               243.9511               261.1462
 Red. masses --      2.3839                 3.5734                 3.4223
 Frc consts  --      0.0792                 0.1253                 0.1375
 IR Inten    --      5.7524                 2.3719                 1.6819

                     13                     14                     15
                      A                      A                      A
 Frequencies --    308.3903               325.6560               330.2211
 Red. masses --      1.3280                 3.7533                 4.2858
 Frc consts  --      0.0744                 0.2345                 0.2754
 IR Inten    --     31.1252                 2.6390                 0.5939

                     16                     17                     18
                      A                      A                      A
 Frequencies --    348.0462               381.5715               398.3780
 Red. masses --      5.5582                 5.9642                 3.3855
 Frc consts  --      0.3967                 0.5116                 0.3166
 IR Inten    --      7.4086                11.1069                16.0626

                     19                     20                     21
                      A                      A                      A
 Frequencies --    425.4201               456.3495               473.2616
 Red. masses --      3.6058                 4.0974                 3.2520
 Frc consts  --      0.3845                 0.5027                 0.4291
 IR Inten    --      1.2668                10.2027                 3.7236

                     22                     23                     24
                      A                      A                      A
 Frequencies --    528.6454               575.2681               609.4212
 Red. masses --      4.0191                 5.2042                 3.0977
 Frc consts  --      0.6618                 1.0147                 0.6778
 IR Inten    --      3.3783                 2.9595                 2.3125

                     25                     26                     27
                      A                      A                      A
 Frequencies --    638.8272               669.0467               705.7174
 Red. masses --      4.1103                 5.1620                 5.1867
 Frc consts  --      0.9883                 1.3614                 1.5220
 IR Inten    --      3.2104                 6.1433                 9.9703

                     28                     29                     30
                      A                      A                      A
 Frequencies --    720.2980               745.4432               779.6480
 Red. masses --      5.8564                 4.0465                 5.9267
 Frc consts  --      1.7902                 1.3248                 2.1225
 IR Inten    --      7.8083                23.8679                11.5410

                     31                     32                     33
                      A                      A                      A
 Frequencies --    826.0586               859.4250               889.3740
 Red. masses --      4.4448                 1.7668                 1.5796
 Frc consts  --      1.7870                 0.7689                 0.7362
 IR Inten    --      3.4955                17.8291               162.8455

                     34                     35                     36
                      A                      A                      A
 Frequencies --    904.2170               940.5030               942.8034
 Red. masses --      1.3720                 2.9754                 1.4651
 Frc consts  --      0.6609                 1.5506                 0.7673
 IR Inten    --     55.3329                36.3424                 7.8938

                     37                     38                     39
                      A                      A                      A
 Frequencies --   1008.8936              1012.7695              1036.1191
 Red. masses --      1.8613                 2.4233                 3.5931
 Frc consts  --      1.1162                 1.4645                 2.2727
 IR Inten    --      8.9635                 1.1103                51.7367

                     40                     41                     42
                      A                      A                      A
 Frequencies --   1047.4323              1072.4636              1076.3298
 Red. masses --      1.5030                 2.9165                 1.5035
 Frc consts  --      0.9715                 1.9764                 1.0262
 IR Inten    --      2.9182                24.3439                 3.0177

                     43                     44                     45
                      A                      A                      A
 Frequencies --   1132.3691              1140.5293              1149.5134
 Red. masses --      1.1623                 4.3728                 2.5340
 Frc consts  --      0.8781                 3.3514                 1.9728
 IR Inten    --     10.1877                26.5381                19.6526

                     46                     47                     48
                      A                      A                      A
 Frequencies --   1185.7321              1195.7867              1222.3505
 Red. masses --      1.2743                 1.6946                 1.5883
 Frc consts  --      1.0556                 1.4277                 1.3982
 IR Inten    --      0.9501                 3.8923                 4.0104

                     49                     50                     51
                      A                      A                      A
 Frequencies --   1231.0201              1243.5682              1265.4907
 Red. masses --      1.3360                 3.8830                 1.6943
 Frc consts  --      1.1929                 3.5380                 1.5986
 IR Inten    --     14.4971                80.3497                67.2977

                     52                     53                     54
                      A                      A                      A
 Frequencies --   1292.6288              1320.5581              1339.6281
 Red. masses --      3.0953                 1.3951                 1.4407
 Frc consts  --      3.0472                 1.4334                 1.5233
 IR Inten    --    403.6465                23.8814                37.8307

                     55                     56                     57
                      A                      A                      A
 Frequencies --   1343.1485              1348.1826              1387.9384
 Red. masses --      4.2458                 1.4170                 1.3899
 Frc consts  --      4.5129                 1.5175                 1.5776
 IR Inten    --     17.9591                 7.7146                 3.4759

                     58                     59                     60
                      A                      A                      A
 Frequencies --   1403.7670              1436.9023              1448.4634
 Red. masses --      3.0951                 1.7972                 1.2244
 Frc consts  --      3.5935                 2.1863                 1.5135
 IR Inten    --    151.4064                26.4467                 0.3151

                     61                     62                     63
                      A                      A                      A
 Frequencies --   1491.4660              1511.2268              1511.3069
 Red. masses --      1.2264                 1.0822                 1.0486
 Frc consts  --      1.6074                 1.4562                 1.4111
 IR Inten    --     20.9807                 3.9553                 8.5326

                     64                     65                     66
                      A                      A                      A
 Frequencies --   1511.5979              1516.3300              1518.5810
 Red. masses --      1.0464                 1.1240                 1.1600
 Frc consts  --      1.4087                 1.5227                 1.5762
 IR Inten    --      4.0724                 0.3219                25.8262

                     67                     68                     69
                      A                      A                      A
 Frequencies --   1525.9052              1531.0373              1590.8371
 Red. masses --      1.0557                 2.3594                 7.1475
 Frc consts  --      1.4483                 3.2586                10.6576
 IR Inten    --      9.5503                27.1911                 7.4502

                     70                     71                     72
                      A                      A                      A
 Frequencies --   1656.9857              1698.7786              1790.9146
 Red. masses --      6.0853                 1.0913                11.5042
 Frc consts  --      9.8440                 1.8555                21.7398
 IR Inten    --     23.1252                16.4287               216.7669

                     73                     74                     75
                      A                      A                      A
 Frequencies --   3017.2237              3055.2326              3062.5496
 Red. masses --      1.0828                 1.0639                 1.0357
 Frc consts  --      5.8077                 5.8511                 5.7234
 IR Inten    --     16.7216                23.9623                30.2985

                     76                     77                     78
                      A                      A                      A
 Frequencies --   3069.8348              3076.6925              3109.0109
 Red. masses --      1.0609                 1.0291                 1.1002
 Frc consts  --      5.8906                 5.7397                 6.2656
 IR Inten    --     26.4087                41.5327                29.0831

                     79                     80                     81
                      A                      A                      A
 Frequencies --   3124.6128              3128.1794              3131.5880
 Red. masses --      1.1057                 1.1004                 1.1032
 Frc consts  --      6.3604                 6.3445                 6.3744
 IR Inten    --     12.3898                12.1434                22.3371

                     82                     83                     84
                      A                      A                      A
 Frequencies --   3151.9974              3181.2323              3191.7844
 Red. masses --      1.1075                 1.1075                 1.0875
 Frc consts  --      6.4826                 6.6035                 6.5272
 IR Inten    --     19.6728                17.1112                19.9101

                     85                     86                     87
                      A                      A                      A
 Frequencies --   3214.9689              3468.7044              3562.2546
 Red. masses --      1.0900                 1.0502                 1.0916
 Frc consts  --      6.6379                 7.4450                 8.1613
 IR Inten    --      2.2496                 0.6123                 0.6112

 - Thermochemistry -
 -------------------
 Temperature   298.150 Kelvin.  Pressure   1.00000 Atm.
 Atom     1 has atomic number  6 and mass  12.00000

 Molecular mass:   237.08235 amu.
 Principal axes and moments of inertia in atomic units:
                           1         2         3
     Eigenvalues --  1924.533366493.178268298.36364
           X            1.00000  -0.00134   0.00033
           Y            0.00134   1.00000   0.00012
           Z           -0.00033  -0.00012   1.00000
 This molecule is an asymmetric top.
 Rotational symmetry number  1.
 Warning -- assumption of classical behavior for rotation
           may cause significant error
 Rotational temperatures (Kelvin)      0.04501     0.01334     0.01044
 Rotational constants (GHZ):           0.93776     0.27794     0.21748
 Zero-point vibrational energy     671989.0 (Joules/Mol)
                                  160.60922 (Kcal/Mol)
 Warning -- explicit consideration of  24 degrees of freedom as
           vibrations may cause significant error
 Vibrational temperatures:     36.03    40.57    74.90   160.57   184.50
          (Kelvin)            208.51   225.43   304.68   319.95   341.58
                              350.99   375.73   443.70   468.55   475.11
                              500.76   549.00   573.18   612.08   656.59
                              680.92   760.60   827.68   876.82   919.13
                              962.61  1015.37  1036.35  1072.53  1121.74
                             1188.51  1236.52  1279.61  1300.97  1353.17
                             1356.48  1451.57  1457.15  1490.74  1507.02
                             1543.04  1548.60  1629.23  1640.97  1653.89
                             1706.00  1720.47  1758.69  1771.16  1789.22
                             1820.76  1859.80  1899.99  1927.43  1932.49
                             1939.73  1996.93  2019.71  2067.38  2084.02
                             2145.89  2174.32  2174.43  2174.85  2181.66
                             2184.90  2195.44  2202.82  2288.86  2384.03
                             2444.16  2576.73  4341.11  4395.80  4406.33
                             4416.81  4426.67  4473.17  4495.62  4500.75
                             4505.66  4535.02  4577.08  4592.27  4625.62
                             4990.69  5125.29

 Zero-point correction=                           0.255947 (Hartree/Particle)
 Thermal correction to Energy=                    0.271568
 Thermal correction to Enthalpy=                  0.272513
 Thermal correction to Gibbs Free Energy=         0.211817
 Sum of electronic and zero-point Energies=          -1069.521682
 Sum of electronic and thermal Energies=             -1069.506061
 Sum of electronic and thermal Enthalpies=           -1069.505117
 Sum of electronic and thermal Free Energies=        -1069.565812

                     E (Thermal)             CV                S
                      KCal/Mol        Cal/Mol-Kelvin    Cal/Mol-Kelvin
 Total                  170.412             58.955            127.744
 Electronic               0.000              0.000              0.000
 Translational            0.889              2.981             42.291
 Rotational               0.889              2.981             33.005
 Vibrational            168.634             52.993             52.448
 Vibration     1          0.593              1.985              6.188
 Vibration     2          0.593              1.984              5.952
 Vibration     3          0.596              1.977              4.738
 Vibration     4          0.607              1.940              3.241
 Vibration     5          0.611              1.925              2.972
 Vibration     6          0.616              1.908              2.738
 Vibration     7          0.620              1.895              2.589
 Vibration     8          0.643              1.823              2.028
 Vibration     9          0.648              1.807              1.940
 Vibration    10          0.656              1.783              1.822
 Vibration    11          0.659              1.773              1.774
 Vibration    12          0.669              1.744              1.654
 Vibration    13          0.698              1.658              1.371
 Vibration    14          0.710              1.624              1.282
 Vibration    15          0.713              1.615              1.259
 Vibration    16          0.726              1.579              1.175
 Vibration    17          0.751              1.509              1.033
 Vibration    18          0.765              1.474              0.969
 Vibration    19          0.787              1.415              0.874
 Vibration    20          0.815              1.347              0.777
 Vibration    21          0.830              1.309              0.728
 Vibration    22          0.884              1.187              0.590
 Vibration    23          0.932              1.085              0.494
 Vibration    24          0.968              1.012              0.434

                           ! Non-Optimized Parameters !
 Normal termination of Gaussian 16 at Fri Dec 11 01:38:44 2020.

 ----------------------------------------------------------------------
 # B3LYP/6-311++G(d,p) empiricaldispersion=gd3bj scf=xqc pop=npa geom=c
 heck
 ----------------------------------------------------------------------

 --------------------------------------
 CID_20824486_JID_6999_Energie_neutraal
 --------------------------------------
 Structure from the checkpoint file:  "JID_6999.chk"
 Charge =  0 Multiplicity = 1

 SCF Done:  E(RB3LYP) =  -1069.99200004     A.U. after   15 cycles
 Normal termination of Gaussian 16 at Fri Dec 11 01:42:58 2020.

 ----------------------------------------------------------------------
 # B3LYP/6-311++G(d,p) empiricaldispersion=gd3bj scf=xqc pop=npa geom=c
 heck
 ----------------------------------------------------------------------

 ------------------------------------
 CID_20824486_JID_6999_Energie_kation
 ------------------------------------
 Structure from the checkpoint file:  "JID_6999.chk"
 Charge =  1 Multiplicity = 2

 SCF Done:  E(UB3LYP) =  -1069.71429877     A.U. after   25 cycles
 Normal termination of Gaussian 16 at Fri Dec 11 01:52:39 2020.
 Gaussian 16:  ES64L-G16RevA.03 25-Dec-2016

 ----------------------------------------------------------------------
 # B3LYP/6-311++G(d,p) empiricaldispersion=gd3bj scf=xqc pop=npa geom=c
 heck
 ----------------------------------------------------------------------

 -----------------------------------
 CID_20824486_JID_6999_Energie_anion
 -----------------------------------
 Structure from the checkpoint file:  "JID_6999.chk"
 Charge = -1 Multiplicity = 2

                         Standard orientation:
 ---------------------------------------------------------------------
 Center     Atomic      Atomic             Coordinates (Angstroms)
 Number     Number       Type             X           Y           Z
 ---------------------------------------------------------------------
      1          6           0       -2.087852    2.387547   -0.121427
      2          6           0       -1.090253    1.254207   -0.101729
      3          6           0        0.269609    1.570581   -0.157837
      4          6           0        1.304478    0.630376   -0.153038
      5          6           0        0.945886   -0.729417   -0.083517
      6          6           0       -0.404667   -1.075492   -0.018738
      7          6           0       -1.422657   -0.117614   -0.028589
      8          6           0       -2.802106   -0.684209    0.044877
      9          8           0       -3.047163   -1.874087    0.106471
     10          8           0       -3.778453    0.251748    0.037702
     11          6           0       -5.114543   -0.267028    0.108385
     12         16           0        2.087748   -2.095785   -0.033132
     13          6           0        3.708232   -1.252225   -0.188867
     14          6           0        3.718455    0.124823    0.459003
     15          6           0        2.761654    1.099678   -0.238331
     16          7           0        3.028533    2.449339    0.268220
     17          1           0       -1.562178    3.345424   -0.183661
     18          1           0       -2.713136    2.393848    0.776152
     19          1           0       -2.770665    2.312383   -0.972738
     20          1           0        0.535964    2.622115   -0.201539
     21          1           0       -0.698662   -2.118121    0.042198
     22          1           0       -5.319215   -0.916598   -0.746422
     23          1           0       -5.255166   -0.839823    1.028507
     24          1           0       -5.766306    0.606931    0.094031
     25          1           0        3.976485   -1.180125   -1.248116
     26          1           0        4.426102   -1.920884    0.294209
     27          1           0        3.458536    0.043381    1.522174
     28          1           0        4.725586    0.549443    0.397267
     29          1           0        3.041585    1.117442   -1.302013
     30          1           0        2.582469    3.149273   -0.319772
     31          1           0        2.622408    2.553837    1.197750
 ---------------------------------------------------------------------

 SCF Done:  E(UB3LYP) =  -1069.99560713     A.U. after   31 cycles

 The electronic state is 2-A.
 Alpha  occ. eigenvalues --  -88.72472 -19.02891 -18.95038 -14.18377 -10.13706
 Alpha  occ. eigenvalues --  -10.11342 -10.09098 -10.08717 -10.06643 -10.06052
 Alpha  occ. eigenvalues --  -10.04433 -10.04179 -10.03388 -10.03121 -10.02922
 Alpha  occ. eigenvalues --  -10.02567  -7.81112  -5.77503  -5.77122  -5.76502
 Alpha  occ. eigenvalues --   -0.96779  -0.87079  -0.78349  -0.72948  -0.69822
 Alpha  occ. eigenvalues --   -0.64651  -0.63261  -0.61269  -0.59642  -0.56166
 Alpha  occ. eigenvalues --   -0.51542  -0.49258  -0.46725  -0.45001  -0.42983
 Alpha  occ. eigenvalues --   -0.38627  -0.37200  -0.36575  -0.36179  -0.35362
 Alpha  occ. eigenvalues --   -0.34267  -0.32885  -0.30770  -0.30018  -0.29670
 Alpha  occ. eigenvalues --   -0.29422  -0.28344  -0.27499  -0.26997  -0.26078
 Alpha  occ. eigenvalues --   -0.25825  -0.24824  -0.23781  -0.21980  -0.21346
 Alpha  occ. eigenvalues --   -0.20234  -0.18891  -0.17776  -0.15357  -0.13960
 Alpha  occ. eigenvalues --   -0.13487  -0.11641  -0.08076   0.04572
 Alpha virt. eigenvalues --    0.07551   0.07726   0.08042   0.09341   0.09806
 Alpha virt. eigenvalues --    0.10805   0.11097   0.11424   0.11664   0.11959
 Alpha virt. eigenvalues --    0.12349   0.12635   0.13284   0.14109   0.14148

  Beta  occ. eigenvalues --  -88.72472 -19.02790 -18.94776 -14.18351 -10.13488
  Beta  occ. eigenvalues --  -10.11347 -10.09090 -10.08740 -10.06698 -10.06024
  Beta  occ. eigenvalues --  -10.04327 -10.04188 -10.03150 -10.03030 -10.02750
  Beta  occ. eigenvalues --  -10.02402  -7.81111  -5.77500  -5.77120  -5.76505
  Beta  occ. eigenvalues --   -0.96494  -0.86657  -0.78250  -0.72710  -0.69696
  Beta  occ. eigenvalues --   -0.64472  -0.62871  -0.61095  -0.59467  -0.56105
  Beta  occ. eigenvalues --   -0.51265  -0.49016  -0.46499  -0.44814  -0.42787
  Beta  occ. eigenvalues --   -0.38513  -0.37102  -0.36495  -0.35809  -0.35189
  Beta  occ. eigenvalues --   -0.34139  -0.32759  -0.30572  -0.29817  -0.29455
  Beta  occ. eigenvalues --   -0.29263  -0.28257  -0.27438  -0.26068  -0.25959
  Beta  occ. eigenvalues --   -0.25731  -0.24511  -0.23630  -0.21655  -0.21127
  Beta  occ. eigenvalues --   -0.20098  -0.18841  -0.16829  -0.14977  -0.13756
  Beta  occ. eigenvalues --   -0.13230  -0.10269  -0.07400
  Beta virt. eigenvalues --    0.07405   0.07667   0.08101   0.09437   0.09658
  Beta virt. eigenvalues --    0.10326   0.10843   0.11242   0.11419   0.11652
  Beta virt. eigenvalues --    0.12022   0.12477   0.12684   0.13237   0.14054

 Mulliken charges and spin densities:
               1          2
     1  C   -0.486234  -0.100344
     2  C   -0.185319   0.038107
     3  C   -0.734803  -0.257703
     4  C    1.345264  -0.170161
     5  C    1.019597   0.142987
     6  C   -0.930623   0.086377
     7  C   -0.293905   0.318806
     8  C    0.350783   0.071938
     9  O   -0.360468   0.091691
    10  O   -0.142662   0.013869
    11  C   -0.202770  -0.006643
    12  S   -0.799383  -0.190501
    13  C   -0.112802  -0.245739
    14  C   -0.211525  -0.081779
    15  C   -0.335294   0.214344
    16  N   -0.196659  -0.014469
    17  H    0.047232   0.073566
    18  H    0.134825   0.022897
    19  H    0.158442   0.000236
    20  H    0.031791  -0.064948
    21  H    0.169506  -0.014430
    22  H    0.161937   0.001696
    23  H    0.156411   0.008112
    24  H    0.115813   0.001296
    25  H    0.066404   0.132063
    26  H    0.163801   0.011855
    27  H    0.076313   0.080155
    28  H   -0.041866   0.208499
    29  H   -0.147380   0.354540
    30  H    0.017223   0.227823
    31  H    0.166352   0.045858
 Sum of Mulliken charges =  -1.00000   1.00000

 Dipole moment (field-independent basis, Debye):
    X=             -1.3985    Y=              1.3993    Z=              0.7934  Tot=              2.1315
 Quadrupole moment (field-independent basis, Debye-Ang):
   XX=           -146.8730   YY=           -133.4776   ZZ=           -114.6413
   XY=            -15.7007   XZ=              3.0644   YZ=              1.8266

 Summary of Natural Population Analysis:

                                       Natural Population
                Natural  -----------------------------------------------
    Atom  No    Charge         Core      Valence    Rydberg      Total
 -----------------------------------------------------------------------
      C    1   -0.29072      0.99964     2.28541    0.00568     3.29072
      C    2    0.01681      0.99949     1.97539    0.00831     2.98319
      C    3   -0.13419      0.99955     2.11804    0.01660     3.13419
      C    4    0.08821      0.99943     1.90267    0.00969     2.91179
      C    5   -0.12372      0.99941     2.10786    0.01646     3.12372
      C    6   -0.05037      0.99949     2.04177    0.00911     3.05037
      C    7   -0.05091      0.99941     2.04042    0.01108     3.05091
      C    8    0.42817      0.99964     1.54877    0.02341     2.57183
      O    9   -0.30533      0.99987     3.29960    0.00585     4.30533
      O   10   -0.27805      0.99986     3.26978    0.00841     4.27805
      C   11   -0.10534      0.99961     2.09724    0.00849     3.10534
      S   12    0.10888      4.99955     2.87128    0.02029     7.89112
      C   13   -0.24769      0.99959     2.23693    0.01117     3.24769
      C   14   -0.19545      0.99960     2.18377    0.01208     3.19545
      C   15   -0.03111      0.99960     2.01420    0.01732     3.03111
      N   16   -0.42252      0.99977     2.91230    0.01045     3.92252
      H   17    0.09061      0.00000     0.40834    0.00105     0.40939
      H   18    0.10367      0.00000     0.39483    0.00150     0.39633
      H   19    0.10373      0.00000     0.39494    0.00133     0.39627
      H   20    0.08844      0.00000     0.40984    0.00172     0.41156
      H   21    0.10803      0.00000     0.39076    0.00121     0.39197
      H   22    0.08748      0.00000     0.41126    0.00127     0.41252
      H   23    0.08767      0.00000     0.41107    0.00125     0.41233
      H   24    0.08173      0.00000     0.41745    0.00083     0.41827
      H   25    0.09712      0.00000     0.40107    0.00181     0.40288
      H   26    0.10145      0.00000     0.39746    0.00109     0.39855
      H   27    0.09762      0.00000     0.40127    0.00110     0.40238
      H   28    0.10433      0.00000     0.39417    0.00150     0.39567
      H   29    0.09705      0.00000     0.40058    0.00237     0.40295
      H   30    0.17489      0.00000     0.32339    0.00172     0.32511
      H   31    0.17212      0.00000     0.32593    0.00195     0.32788
 =======================================================================
   * Total *    0.00262     19.99353    42.78779    0.21607    62.99738

 Normal termination of Gaussian 16 at Fri Dec 11 02:04:20 2020.
