 Gaussian 16, Revision A.03,

 -----------------------------------------------------------
 # opt freq B3LYP/6-31G(d) empiricaldispersion=gd3bj scf=xqc
 -----------------------------------------------------------

 -------------------------------
 CID_151950844_JID_2755_neutraal
 -------------------------------
 Symbolic Z-matrix:
 Charge =  0 Multiplicity = 1

 SCF Done:  E(RB3LYP) =  -938.396325288     A.U. after   14 cycles
 SCF Done:  E(RB3LYP) =  -938.394554544     A.U. after   13 cycles
 SCF Done:  E(RB3LYP) =  -938.397714818     A.U. after   13 cycles
 SCF Done:  E(RB3LYP) =  -938.400227072     A.U. after   13 cycles
 SCF Done:  E(RB3LYP) =  -938.401008397     A.U. after   12 cycles
 SCF Done:  E(RB3LYP) =  -938.400372388     A.U. after   12 cycles
 SCF Done:  E(RB3LYP) =  -938.401275982     A.U. after   11 cycles
 SCF Done:  E(RB3LYP) =  -938.401782981     A.U. after   11 cycles
 SCF Done:  E(RB3LYP) =  -938.401864754     A.U. after   12 cycles
 SCF Done:  E(RB3LYP) =  -938.401922689     A.U. after   11 cycles
 SCF Done:  E(RB3LYP) =  -938.401936122     A.U. after    9 cycles
 SCF Done:  E(RB3LYP) =  -938.401940063     A.U. after    9 cycles
 SCF Done:  E(RB3LYP) =  -938.401941612     A.U. after    8 cycles
 SCF Done:  E(RB3LYP) =  -938.401941866     A.U. after    8 cycles
 SCF Done:  E(RB3LYP) =  -938.401941981     A.U. after    7 cycles
 SCF Done:  E(RB3LYP) =  -938.401941993     A.U. after    6 cycles
 Optimization completed.
    -- Stationary point found.
 Normal termination of Gaussian 16 at Wed Dec  9 18:00:07 2020.

 --------------------------------------------------------------------
 #N Geom=AllCheck Guess=TCheck SCRF=Check GenChk RB3LYP/6-31G(d) Freq
 --------------------------------------------------------------------

 Structure from the checkpoint file:  "JID_2755.chk"
 -------------------------------
 CID_151950844_JID_2755_neutraal
 -------------------------------
 Charge =  0 Multiplicity = 1

 SCF Done:  E(RB3LYP) =  -938.401941993     A.U. after    1 cycles

  Exact polarizability: 129.295   0.234 103.854  -1.525  -2.980  93.501
 Approx polarizability: 165.157  -1.854 155.716  -1.718  -8.597 144.698

                      1                      2                      3
                      A                      A                      A
 Frequencies --     38.3395                48.7667                64.2567
 Red. masses --      3.8451                 6.1035                 6.0965
 Frc consts  --      0.0033                 0.0086                 0.0148
 IR Inten    --      0.0778                 0.4093                 1.3982

                      4                      5                      6
                      A                      A                      A
 Frequencies --     97.1067               147.9712               153.7516
 Red. masses --      3.4264                 2.6918                 4.7086
 Frc consts  --      0.0190                 0.0347                 0.0656
 IR Inten    --      0.3445                 0.2297                 0.6924

                      7                      8                      9
                      A                      A                      A
 Frequencies --    169.7862               187.6241               225.1876
 Red. masses --      2.2801                 4.2473                 2.0466
 Frc consts  --      0.0387                 0.0881                 0.0611
 IR Inten    --      2.7425                 2.9160                10.6712

                     10                     11                     12
                      A                      A                      A
 Frequencies --    232.4683               263.4890               319.0879
 Red. masses --      1.2718                 2.3252                 2.0281
 Frc consts  --      0.0405                 0.0951                 0.1217
 IR Inten    --      5.9109                 1.1906                 0.9166

                     13                     14                     15
                      A                      A                      A
 Frequencies --    337.7125               359.0838               400.1106
 Red. masses --      3.8825                 2.5084                 3.0628
 Frc consts  --      0.2609                 0.1906                 0.2889
 IR Inten    --     19.1880                 2.2806                 0.9377

                     16                     17                     18
                      A                      A                      A
 Frequencies --    427.5965               430.8648               448.3530
 Red. masses --      2.1659                 2.2367                 3.6732
 Frc consts  --      0.2333                 0.2446                 0.4350
 IR Inten    --      2.7634                 0.2738                 5.8046

                     19                     20                     21
                      A                      A                      A
 Frequencies --    484.0915               527.1913               567.7861
 Red. masses --      1.1436                 2.3195                 3.3207
 Frc consts  --      0.1579                 0.3798                 0.6307
 IR Inten    --    174.5718                 1.9158                53.2534

                     22                     23                     24
                      A                      A                      A
 Frequencies --    635.8550               664.8259               738.8408
 Red. masses --      2.1605                 1.6919                 1.4084
 Frc consts  --      0.5147                 0.4406                 0.4530
 IR Inten    --     55.2336                27.6676                 6.2865

                     25                     26                     27
                      A                      A                      A
 Frequencies --    759.8884               801.8358               820.7040
 Red. masses --      2.6417                 2.3137                 1.9574
 Frc consts  --      0.8988                 0.8765                 0.7768
 IR Inten    --     48.4329                 4.6534                 7.5335

                     28                     29                     30
                      A                      A                      A
 Frequencies --    845.5196               877.6071               903.0803
 Red. masses --      2.4063                 1.7074                 1.3220
 Frc consts  --      1.0135                 0.7748                 0.6352
 IR Inten    --      7.7239                28.3761                10.2677

                     31                     32                     33
                      A                      A                      A
 Frequencies --    936.6142               965.9148               988.8905
 Red. masses --      2.1130                 2.1372                 2.1417
 Frc consts  --      1.0921                 1.1748                 1.2340
 IR Inten    --      2.4071                21.1381                 3.5297

                     34                     35                     36
                      A                      A                      A
 Frequencies --   1002.9031              1024.8481              1073.3462
 Red. masses --      1.6588                 2.6104                 1.9655
 Frc consts  --      0.9830                 1.6154                 1.3342
 IR Inten    --      1.8931                44.6033                47.7777

                     37                     38                     39
                      A                      A                      A
 Frequencies --   1105.5288              1119.3698              1138.3316
 Red. masses --      2.5329                 1.8653                 1.7321
 Frc consts  --      1.8239                 1.3770                 1.3224
 IR Inten    --     21.5263                71.7817                19.3674

                     40                     41                     42
                      A                      A                      A
 Frequencies --   1161.8307              1181.5284              1261.4636
 Red. masses --      2.3131                 2.3869                 1.3397
 Frc consts  --      1.8396                 1.9632                 1.2560
 IR Inten    --     76.2121                 4.9324                57.3431

                     43                     44                     45
                      A                      A                      A
 Frequencies --   1265.0771              1280.1329              1293.1320
 Red. masses --      1.2946                 1.3088                 1.3064
 Frc consts  --      1.2207                 1.2637                 1.2871
 IR Inten    --      2.7337                 0.1999                10.9780

                     46                     47                     48
                      A                      A                      A
 Frequencies --   1331.0827              1339.5079              1368.8296
 Red. masses --      1.4737                 1.1781                 1.3798
 Frc consts  --      1.5384                 1.2454                 1.5232
 IR Inten    --     17.5443                11.7577                13.5362

                     49                     50                     51
                      A                      A                      A
 Frequencies --   1393.5205              1399.3114              1409.4308
 Red. masses --      1.3821                 1.6466                 1.3665
 Frc consts  --      1.5813                 1.8996                 1.5994
 IR Inten    --      3.4360                25.9849                28.6526

                     52                     53                     54
                      A                      A                      A
 Frequencies --   1413.3651              1427.0292              1447.1905
 Red. masses --      1.4044                 1.3632                 1.2628
 Frc consts  --      1.6529                 1.6356                 1.5582
 IR Inten    --     12.7592                20.5847                 7.1734

                     55                     56                     57
                      A                      A                      A
 Frequencies --   1499.3601              1507.4777              1520.2062
 Red. masses --      1.0846                 1.1078                 1.0742
 Frc consts  --      1.4366                 1.4833                 1.4626
 IR Inten    --      4.8203                19.3610                 2.7658

                     58                     59                     60
                      A                      A                      A
 Frequencies --   1524.7824              1527.4464              1536.2447
 Red. masses --      1.0487                 1.0874                 1.0719
 Frc consts  --      1.4365                 1.4948                 1.4905
 IR Inten    --      0.8570                 6.2206                11.2200

                     61                     62                     63
                      A                      A                      A
 Frequencies --   1543.8104              1867.3782              2690.4798
 Red. masses --      1.0612                 9.5319                 1.0383
 Frc consts  --      1.4901                19.5837                 4.4282
 IR Inten    --      1.9500               283.7477                15.0120

                     64                     65                     66
                      A                      A                      A
 Frequencies --   3027.5855              3037.7318              3044.6523
 Red. masses --      1.0662                 1.0663                 1.0578
 Frc consts  --      5.7581                 5.7975                 5.7773
 IR Inten    --      8.2500                47.9798                32.4317

                     67                     68                     69
                      A                      A                      A
 Frequencies --   3046.7537              3064.6774              3083.5177
 Red. masses --      1.0488                 1.0984                 1.0634
 Frc consts  --      5.7364                 6.0782                 5.9571
 IR Inten    --     22.1345                26.3981                 7.8801

                     70                     71                     72
                      A                      A                      A
 Frequencies --   3085.7177              3091.4104              3108.2563
 Red. masses --      1.0940                 1.0597                 1.0928
 Frc consts  --      6.1375                 5.9671                 6.2204
 IR Inten    --     24.1216                 6.0613                32.4999

                     73                     74                     75
                      A                      A                      A
 Frequencies --   3112.3178              3127.5354              3129.2730
 Red. masses --      1.1001                 1.1011                 1.1037
 Frc consts  --      6.2782                 6.3457                 6.3675
 IR Inten    --     42.5202                35.2563                14.0415

                     76                     77                     78
                      A                      A                      A
 Frequencies --   3142.8385              3669.8228              3679.4298
 Red. masses --      1.1055                 1.0647                 1.0647
 Frc consts  --      6.4334                 8.4487                 8.4929
 IR Inten    --     13.6352               112.0445                46.9301

 - Thermochemistry -
 -------------------
 Temperature   298.150 Kelvin.  Pressure   1.00000 Atm.
 Atom     1 has atomic number  6 and mass  12.00000

 Molecular mass:   192.08202 amu.
 Principal axes and moments of inertia in atomic units:
                           1         2         3
     Eigenvalues --  1289.179334072.171914529.60611
           X            0.99984  -0.01793   0.00105
           Y            0.01792   0.99984   0.00274
           Z           -0.00110  -0.00272   1.00000
 This molecule is an asymmetric top.
 Rotational symmetry number  1.
 Warning -- assumption of classical behavior for rotation
           may cause significant error
 Rotational temperatures (Kelvin)      0.06719     0.02127     0.01912
 Rotational constants (GHZ):           1.39991     0.44319     0.39843
 Zero-point vibrational energy     627893.9 (Joules/Mol)
                                  150.07025 (Kcal/Mol)
 Warning -- explicit consideration of  21 degrees of freedom as
           vibrations may cause significant error
 Vibrational temperatures:     55.16    70.16    92.45   139.71   212.90
          (Kelvin)            221.21   244.28   269.95   323.99   334.47
                              379.10   459.10   485.89   516.64   575.67
                              615.22   619.92   645.08   696.50   758.51
                              816.92   914.85   956.54  1063.03  1093.31
                             1153.66  1180.81  1216.51  1262.68  1299.33
                             1347.58  1389.74  1422.79  1442.95  1474.53
                             1544.31  1590.61  1610.52  1637.81  1671.62
                             1699.96  1814.96  1820.16  1841.83  1860.53
                             1915.13  1927.25  1969.44  2004.97  2013.30
                             2027.86  2033.52  2053.18  2082.18  2157.24
                             2168.92  2187.24  2193.82  2197.65  2210.31
                             2221.20  2686.74  3871.00  4356.02  4370.62
                             4380.58  4383.60  4409.39  4436.49  4439.66
                             4447.85  4472.09  4477.93  4499.83  4502.33
                             4521.84  5280.06  5293.88

 Zero-point correction=                           0.239152 (Hartree/Particle)
 Thermal correction to Energy=                    0.253354
 Thermal correction to Enthalpy=                  0.254298
 Thermal correction to Gibbs Free Energy=         0.197785
 Sum of electronic and zero-point Energies=           -938.162790
 Sum of electronic and thermal Energies=              -938.148588
 Sum of electronic and thermal Enthalpies=            -938.147644
 Sum of electronic and thermal Free Energies=         -938.204157

                     E (Thermal)             CV                S
                      KCal/Mol        Cal/Mol-Kelvin    Cal/Mol-Kelvin
 Total                  158.982             52.595            118.942
 Electronic               0.000              0.000              0.000
 Translational            0.889              2.981             41.664
 Rotational               0.889              2.981             31.542
 Vibrational            157.205             46.633             45.736
 Vibration     1          0.594              1.982              5.343
 Vibration     2          0.595              1.978              4.867
 Vibration     3          0.597              1.971              4.322
 Vibration     4          0.603              1.951              3.512
 Vibration     5          0.617              1.905              2.698
 Vibration     6          0.619              1.898              2.625
 Vibration     7          0.625              1.880              2.438
 Vibration     8          0.632              1.857              2.251
 Vibration     9          0.650              1.803              1.917
 Vibration    10          0.653              1.791              1.860
 Vibration    11          0.670              1.740              1.639
 Vibration    12          0.705              1.637              1.315
 Vibration    13          0.718              1.600              1.223
 Vibration    14          0.734              1.557              1.126
 Vibration    15          0.766              1.470              0.962
 Vibration    16          0.789              1.410              0.867
 Vibration    17          0.792              1.403              0.856
 Vibration    18          0.807              1.365              0.801
 Vibration    19          0.840              1.285              0.699
 Vibration    20          0.882              1.190              0.594
 Vibration    21          0.924              1.101              0.509

 Optimization completed.
    -- Stationary point found.
 Normal termination of Gaussian 16 at Wed Dec  9 18:08:03 2020.

 ----------------------------------------------------------------------
 # B3LYP/6-311++G(d,p) empiricaldispersion=gd3bj scf=xqc pop=npa geom=c
 heck
 ----------------------------------------------------------------------

 ---------------------------------------
 CID_151950844_JID_2755_Energie_neutraal
 ---------------------------------------
 Structure from the checkpoint file:  "JID_2755.chk"
 Charge =  0 Multiplicity = 1

 SCF Done:  E(RB3LYP) =  -938.608223991     A.U. after   14 cycles
 Normal termination of Gaussian 16 at Wed Dec  9 18:11:51 2020.

 ----------------------------------------------------------------------
 # B3LYP/6-311++G(d,p) empiricaldispersion=gd3bj scf=xqc pop=npa geom=c
 heck
 ----------------------------------------------------------------------

 -------------------------------------
 CID_151950844_JID_2755_Energie_kation
 -------------------------------------
 Structure from the checkpoint file:  "JID_2755.chk"
 Charge =  1 Multiplicity = 2

 SCF Done:  E(UB3LYP) =  -938.278501887     A.U. after   25 cycles
 Normal termination of Gaussian 16 at Wed Dec  9 18:21:21 2020.
 Gaussian 16:  ES64L-G16RevA.03 25-Dec-2016

 ----------------------------------------------------------------------
 # B3LYP/6-311++G(d,p) empiricaldispersion=gd3bj scf=xqc pop=npa geom=c
 heck
 ----------------------------------------------------------------------

 ------------------------------------
 CID_151950844_JID_2755_Energie_anion
 ------------------------------------
 Structure from the checkpoint file:  "JID_2755.chk"
 Charge = -1 Multiplicity = 2

                         Standard orientation:
 ---------------------------------------------------------------------
 Center     Atomic      Atomic             Coordinates (Angstroms)
 Number     Number       Type             X           Y           Z
 ---------------------------------------------------------------------
      1          6           0        3.967974   -0.540762    0.408253
      2          6           0        2.955905   -1.008976   -0.641398
      3          6           0        1.658139   -1.575529   -0.045123
      4          6           0        0.815301   -0.635725    0.833925
      5          6           0        0.096995    0.559654    0.173393
      6          6           0       -0.669646    0.195801   -1.112903
      7          6           0       -1.748067   -0.903319   -0.954735
      8          6           0       -2.946505   -0.446421   -0.157798
      9          8           0       -3.883168    0.185171   -0.581436
     10          8           0       -2.866976   -0.822055    1.160401
     11          8           0       -0.777628    1.164029    1.119887
     12         16           0        1.334993    1.888487   -0.230087
     13          1           0        3.590318    0.308360    0.986799
     14          1           0        4.902722   -0.222616   -0.065892
     15          1           0        4.207052   -1.348304    1.111810
     16          1           0        2.729306   -0.184688   -1.327433
     17          1           0        3.412294   -1.797716   -1.253936
     18          1           0        1.035817   -1.971462   -0.857913
     19          1           0        1.918052   -2.442337    0.577910
     20          1           0        0.022206   -1.242218    1.293359
     21          1           0        1.408176   -0.243150    1.665842
     22          1           0       -1.149078    1.103524   -1.492210
     23          1           0        0.041950   -0.134557   -1.874658
     24          1           0       -2.120994   -1.156204   -1.951035
     25          1           0       -1.326609   -1.806708   -0.506503
     26          1           0       -3.672643   -0.470276    1.586396
     27          1           0       -1.314859    0.454068    1.514795
     28          1           0        0.397996    2.852992   -0.338421
 ---------------------------------------------------------------------

 SCF Done:  E(UB3LYP) =  -938.598534322     A.U. after   31 cycles

 The electronic state is 2-A.
 Alpha  occ. eigenvalues --  -88.74433 -19.07236 -19.02794 -19.01826 -10.20710
 Alpha  occ. eigenvalues --  -10.16867 -10.08842 -10.08573 -10.07713 -10.07054
 Alpha  occ. eigenvalues --  -10.06742 -10.06338  -7.83198  -5.79571  -5.79217
 Alpha  occ. eigenvalues --   -5.78568  -1.01083  -0.93896  -0.92353  -0.72717
 Alpha  occ. eigenvalues --   -0.69561  -0.66676  -0.63211  -0.58568  -0.56250
 Alpha  occ. eigenvalues --   -0.51134  -0.48944  -0.46478  -0.41655  -0.40059
 Alpha  occ. eigenvalues --   -0.39547  -0.38415  -0.36179  -0.35784  -0.34909
 Alpha  occ. eigenvalues --   -0.32733  -0.31933  -0.30738  -0.30274  -0.29374
 Alpha  occ. eigenvalues --   -0.28594  -0.27968  -0.26832  -0.26424  -0.23701
 Alpha  occ. eigenvalues --   -0.23404  -0.23109  -0.22857  -0.21436  -0.18602
 Alpha  occ. eigenvalues --   -0.18420  -0.14851   0.04319
 Alpha virt. eigenvalues --    0.06441   0.07267   0.08017   0.08682   0.08884
 Alpha virt. eigenvalues --    0.09366   0.09789   0.10541   0.11077   0.11557
 Alpha virt. eigenvalues --    0.12218   0.12986   0.13240   0.13324   0.14254

  Beta  occ. eigenvalues --  -88.74429 -19.07164 -19.02777 -19.01795 -10.20664
  Beta  occ. eigenvalues --  -10.16868 -10.08804 -10.08557 -10.07696 -10.07025
  Beta  occ. eigenvalues --  -10.06725 -10.06322  -7.83193  -5.79565  -5.79214
  Beta  occ. eigenvalues --   -5.78564  -1.00971  -0.93868  -0.92259  -0.72682
  Beta  occ. eigenvalues --   -0.69507  -0.66625  -0.63177  -0.58484  -0.56192
  Beta  occ. eigenvalues --   -0.51024  -0.48853  -0.46419  -0.41611  -0.39983
  Beta  occ. eigenvalues --   -0.39490  -0.38364  -0.36062  -0.35761  -0.34844
  Beta  occ. eigenvalues --   -0.32689  -0.31881  -0.30697  -0.30217  -0.29328
  Beta  occ. eigenvalues --   -0.28552  -0.27930  -0.26793  -0.26397  -0.23671
  Beta  occ. eigenvalues --   -0.23336  -0.23031  -0.22807  -0.21402  -0.18538
  Beta  occ. eigenvalues --   -0.18388  -0.14838
  Beta virt. eigenvalues --    0.06695   0.07670   0.08136   0.08292   0.09130
  Beta virt. eigenvalues --    0.09213   0.09582   0.10311   0.10786   0.11388
  Beta virt. eigenvalues --    0.11833   0.12722   0.13146   0.13349   0.13609

 Mulliken charges and spin densities:
               1          2
     1  C    0.367924  -0.950944
     2  C   -0.216929   0.107640
     3  C    0.300056  -0.665129
     4  C    0.155394  -0.507160
     5  C    0.154630   0.140769
     6  C   -0.804629   0.545507
     7  C    0.996278  -1.457923
     8  C    0.277057  -0.507043
     9  O   -0.298773   0.057285
    10  O   -0.239356   0.064308
    11  O   -0.163353   0.025248
    12  S   -0.077065  -0.090179
    13  H    0.040573   0.077968
    14  H   -0.016733   0.141863
    15  H   -0.002842   0.138445
    16  H    0.103008  -0.008132
    17  H   -0.447381   0.621313
    18  H   -0.256020   0.413780
    19  H   -0.328240   0.486769
    20  H   -0.074983   0.257096
    21  H    0.092958   0.086781
    22  H    0.261975  -0.063163
    23  H   -0.161459   0.319796
    24  H   -0.502001   0.730013
    25  H   -0.004561   0.189104
    26  H   -0.436935   0.737359
    27  H    0.264582   0.038467
    28  H    0.016825   0.070161
 Sum of Mulliken charges =  -1.00000   1.00000

 Dipole moment (field-independent basis, Debye):
    X=              3.2901    Y=              3.8543    Z=             -0.2100  Tot=              5.0719
 Quadrupole moment (field-independent basis, Debye-Ang):
   XX=           -155.9032   YY=           -119.7626   ZZ=           -117.5353
   XY=              3.8928   XZ=              6.0010   YZ=             -4.0121

 Summary of Natural Population Analysis:

                                       Natural Population
                Natural  -----------------------------------------------
    Atom  No    Charge         Core      Valence    Rydberg      Total
 -----------------------------------------------------------------------
      C    1   -0.28891      0.99966     2.28364    0.00560     3.28891
      C    2   -0.19661      0.99964     2.18868    0.00830     3.19661
      C    3   -0.19179      0.99962     2.18227    0.00990     3.19179
      C    4   -0.21426      0.99955     2.20302    0.01168     3.21426
      C    5    0.09051      0.99952     1.88948    0.02048     2.90949
      C    6   -0.20471      0.99954     2.19339    0.01178     3.20471
      C    7   -0.24432      0.99956     2.23401    0.01074     3.24432
      C    8    0.41296      0.99971     1.56153    0.02580     2.58704
      O    9   -0.29928      0.99986     3.29328    0.00614     4.29928
      O   10   -0.35992      0.99988     3.35206    0.00798     4.35992
      O   11   -0.38466      0.99988     3.37731    0.00748     4.38466
      S   12   -0.02637      4.99958     3.01380    0.01300     8.02637
      H   13    0.09915      0.00000     0.39989    0.00096     0.40085
      H   14    0.09739      0.00000     0.40191    0.00070     0.40261
      H   15    0.09508      0.00000     0.40403    0.00088     0.40492
      H   16    0.09846      0.00000     0.40002    0.00152     0.40154
      H   17    0.09765      0.00000     0.40092    0.00143     0.40235
      H   18    0.10033      0.00000     0.39757    0.00210     0.39967
      H   19    0.09931      0.00000     0.39932    0.00137     0.40069
      H   20    0.10845      0.00000     0.38971    0.00184     0.39155
      H   21    0.10668      0.00000     0.39211    0.00121     0.39332
      H   22    0.10742      0.00000     0.39143    0.00115     0.39258
      H   23    0.10984      0.00000     0.38900    0.00116     0.39016
      H   24    0.11926      0.00000     0.37895    0.00178     0.38074
      H   25    0.11288      0.00000     0.38462    0.00250     0.38712
      H   26    0.24797      0.00000     0.23350    0.01852     0.25203
      H   27    0.24154      0.00000     0.25441    0.00405     0.25846
      H   28    0.06595      0.00000     0.43134    0.00271     0.43405
 =======================================================================
   * Total *   -0.00000     15.99600    35.82123    0.18276    52.00000

 Normal termination of Gaussian 16 at Wed Dec  9 18:31:46 2020.
