 Gaussian 16, Revision A.03,

 -----------------------------------------------------------
 # opt freq B3LYP/6-31G(d) empiricaldispersion=gd3bj scf=xqc
 -----------------------------------------------------------

 ------------------------------
 CID_13827862_JID_4783_neutraal
 ------------------------------
 Symbolic Z-matrix:
 Charge =  0 Multiplicity = 1

 SCF Done:  E(RB3LYP) =  -564.047753228     A.U. after   13 cycles
 SCF Done:  E(RB3LYP) =  -564.052456725     A.U. after   11 cycles
 SCF Done:  E(RB3LYP) =  -564.053860715     A.U. after   11 cycles
 SCF Done:  E(RB3LYP) =  -564.053954875     A.U. after   12 cycles
 SCF Done:  E(RB3LYP) =  -564.054459955     A.U. after   11 cycles
 SCF Done:  E(RB3LYP) =  -564.054541490     A.U. after    9 cycles
 SCF Done:  E(RB3LYP) =  -564.054657541     A.U. after   10 cycles
 SCF Done:  E(RB3LYP) =  -564.054686068     A.U. after    9 cycles
 SCF Done:  E(RB3LYP) =  -564.054696324     A.U. after    9 cycles
 SCF Done:  E(RB3LYP) =  -564.054697277     A.U. after    7 cycles
 Optimization completed.
    -- Stationary point found.
 Normal termination of Gaussian 16 at Thu Dec 10 10:36:14 2020.

 --------------------------------------------------------------------
 #N Geom=AllCheck Guess=TCheck SCRF=Check GenChk RB3LYP/6-31G(d) Freq
 --------------------------------------------------------------------

 Structure from the checkpoint file:  "JID_4783.chk"
 ------------------------------
 CID_13827862_JID_4783_neutraal
 ------------------------------
 Charge =  0 Multiplicity = 1

 SCF Done:  E(RB3LYP) =  -564.054697277     A.U. after    1 cycles

  Exact polarizability: 169.755   6.527 133.783   2.267   1.560 114.694
 Approx polarizability: 208.892  16.968 209.458   8.803   6.533 173.161

                      1                      2                      3
                      A                      A                      A
 Frequencies --     42.9424                70.5178               116.5904
 Red. masses --      3.2506                 2.9749                 3.2368
 Frc consts  --      0.0035                 0.0087                 0.0259
 IR Inten    --      0.1166                 0.6812                 0.2588

                      4                      5                      6
                      A                      A                      A
 Frequencies --    149.0067               205.8507               236.9269
 Red. masses --      2.7257                 1.6488                 2.8571
 Frc consts  --      0.0357                 0.0412                 0.0945
 IR Inten    --      0.0513                 0.2699                 1.8704

                      7                      8                      9
                      A                      A                      A
 Frequencies --    246.4575               265.7968               271.0752
 Red. masses --      1.1804                 2.0975                 2.1921
 Frc consts  --      0.0422                 0.0873                 0.0949
 IR Inten    --      0.0435                 0.5961                 0.4556

                     10                     11                     12
                      A                      A                      A
 Frequencies --    281.3427               317.7580               329.4394
 Red. masses --      1.2305                 2.2473                 2.1869
 Frc consts  --      0.0574                 0.1337                 0.1398
 IR Inten    --      0.1835                 0.8852                 0.2105

                     13                     14                     15
                      A                      A                      A
 Frequencies --    389.7679               408.7542               417.9907
 Red. masses --      2.5494                 2.0875                 2.0756
 Frc consts  --      0.2282                 0.2055                 0.2137
 IR Inten    --      2.0208                 0.0117                 0.4117

                     16                     17                     18
                      A                      A                      A
 Frequencies --    425.5234               449.7441               471.4067
 Red. masses --      2.2522                 2.6006                 2.6547
 Frc consts  --      0.2403                 0.3099                 0.3476
 IR Inten    --      0.3052                 3.2125                 0.3848

                     19                     20                     21
                      A                      A                      A
 Frequencies --    513.1135               529.0129               560.8552
 Red. masses --      2.8740                 2.0595                 3.2434
 Frc consts  --      0.4458                 0.3396                 0.6011
 IR Inten    --      3.3494                 0.9111                 2.9488

                     22                     23                     24
                      A                      A                      A
 Frequencies --    588.9624               647.9525               725.1393
 Red. masses --      1.9350                 3.5560                 4.0561
 Frc consts  --      0.3955                 0.8796                 1.2566
 IR Inten    --      5.8129                 3.0776                 1.1943

                     25                     26                     27
                      A                      A                      A
 Frequencies --    788.9703               809.2025               827.2776
 Red. masses --      2.1492                 1.3354                 1.5739
 Frc consts  --      0.7882                 0.5152                 0.6346
 IR Inten    --      3.0092                15.6569                 0.4963

                     28                     29                     30
                      A                      A                      A
 Frequencies --    831.9568               872.2217               890.4233
 Red. masses --      2.7264                 1.5062                 2.4737
 Frc consts  --      1.1118                 0.6751                 1.1556
 IR Inten    --      0.8389                11.8650                 0.2911

                     31                     32                     33
                      A                      A                      A
 Frequencies --    897.6673               910.6842               919.6147
 Red. masses --      2.2262                 2.4384                 1.7240
 Frc consts  --      1.0569                 1.1915                 0.8590
 IR Inten    --      1.2428                 5.5763                 0.2692

                     34                     35                     36
                      A                      A                      A
 Frequencies --    944.7249               962.8872               980.5700
 Red. masses --      2.1736                 1.4226                 1.3821
 Frc consts  --      1.1430                 0.7771                 0.7829
 IR Inten    --      1.4340                 0.4333                 4.7448

                     37                     38                     39
                      A                      A                      A
 Frequencies --    983.8549              1009.6443              1039.0314
 Red. masses --      1.5770                 2.0777                 1.7189
 Frc consts  --      0.8994                 1.2479                 1.0934
 IR Inten    --      5.0878                10.6644                 4.8012

                     40                     41                     42
                      A                      A                      A
 Frequencies --   1046.7886              1052.6147              1064.8399
 Red. masses --      1.7887                 2.3377                 1.5920
 Frc consts  --      1.1548                 1.5261                 1.0635
 IR Inten    --      0.7780                31.3617                 0.8453

                     43                     44                     45
                      A                      A                      A
 Frequencies --   1076.6897              1093.7728              1137.5473
 Red. masses --      1.6836                 2.0953                 2.1380
 Frc consts  --      1.1499                 1.4769                 1.6300
 IR Inten    --      0.9814                 5.7365                18.0959

                     46                     47                     48
                      A                      A                      A
 Frequencies --   1158.7081              1170.1640              1191.2230
 Red. masses --      1.8083                 1.7009                 1.2779
 Frc consts  --      1.4304                 1.3723                 1.0684
 IR Inten    --      5.9206                18.5588                 3.2669

                     49                     50                     51
                      A                      A                      A
 Frequencies --   1200.1121              1215.8497              1237.0322
 Red. masses --      1.3374                 1.9104                 2.0644
 Frc consts  --      1.1349                 1.6639                 1.8613
 IR Inten    --      2.2800                 5.4238                86.8746

                     52                     53                     54
                      A                      A                      A
 Frequencies --   1255.1595              1268.5154              1297.9568
 Red. masses --      1.6779                 1.6497                 1.2505
 Frc consts  --      1.5574                 1.5640                 1.2412
 IR Inten    --     22.2136                 1.7273                 5.3027

                     55                     56                     57
                      A                      A                      A
 Frequencies --   1309.6424              1322.3245              1331.9337
 Red. masses --      1.7393                 1.1713                 1.6829
 Frc consts  --      1.7577                 1.2067                 1.7590
 IR Inten    --      1.5736                 5.3651                 2.8892

                     58                     59                     60
                      A                      A                      A
 Frequencies --   1366.3386              1370.7164              1375.3902
 Red. masses --      1.3383                 1.5429                 1.4141
 Frc consts  --      1.4720                 1.7080                 1.5761
 IR Inten    --      0.4749                 2.1072                 2.4678

                     61                     62                     63
                      A                      A                      A
 Frequencies --   1390.3314              1394.9452              1401.5657
 Red. masses --      1.6089                 1.3058                 1.6073
 Frc consts  --      1.8324                 1.4971                 1.8602
 IR Inten    --      5.8249                 3.1838                10.0925

                     64                     65                     66
                      A                      A                      A
 Frequencies --   1403.8696              1412.6052              1418.8188
 Red. masses --      1.4795                 1.4799                 1.3373
 Frc consts  --      1.7180                 1.7399                 1.5861
 IR Inten    --      8.6786                16.1649                21.5205

                     67                     68                     69
                      A                      A                      A
 Frequencies --   1426.8598              1439.2328              1448.7284
 Red. masses --      1.2808                 1.8988                 1.2985
 Frc consts  --      1.5363                 2.3174                 1.6057
 IR Inten    --      5.4396                48.8724                 2.9004

                     70                     71                     72
                      A                      A                      A
 Frequencies --   1505.7200              1508.9661              1510.5759
 Red. masses --      1.0901                 1.0898                 1.0741
 Frc consts  --      1.4561                 1.4620                 1.4440
 IR Inten    --      1.2503                 4.7453                 1.3371

                     73                     74                     75
                      A                      A                      A
 Frequencies --   1513.1996              1514.5165              1521.8671
 Red. masses --      1.0649                 1.0842                 1.0672
 Frc consts  --      1.4366                 1.4653                 1.4564
 IR Inten    --      1.5591                 2.8602                 5.8286

                     76                     77                     78
                      A                      A                      A
 Frequencies --   1523.4794              1527.9208              1531.3547
 Red. masses --      1.0907                 1.0744                 1.0675
 Frc consts  --      1.4915                 1.4778                 1.4749
 IR Inten    --      6.8376                 1.5965                 3.1982

                     79                     80                     81
                      A                      A                      A
 Frequencies --   1534.3439              1540.3136              1546.8032
 Red. masses --      1.0808                 1.0980                 1.0612
 Frc consts  --      1.4991                 1.5349                 1.4960
 IR Inten    --      0.3266                10.4915                 4.5659

                     82                     83                     84
                      A                      A                      A
 Frequencies --   1713.7983              2982.2622              3019.2199
 Red. masses --      6.2114                 1.0701                 1.0683
 Frc consts  --     10.7487                 5.6073                 5.7375
 IR Inten    --     78.8058                64.2407                24.2478

                     85                     86                     87
                      A                      A                      A
 Frequencies --   3022.2540              3027.2491              3028.3079
 Red. masses --      1.0665                 1.0716                 1.0837
 Frc consts  --      5.7397                 5.7860                 5.8553
 IR Inten    --     19.6730                26.2225                16.8202

                     88                     89                     90
                      A                      A                      A
 Frequencies --   3029.3620              3032.6117              3034.9440
 Red. masses --      1.0620                 1.0666                 1.0378
 Frc consts  --      5.7420                 5.7794                 5.6323
 IR Inten    --     37.7079                30.6283                52.5261

                     91                     92                     93
                      A                      A                      A
 Frequencies --   3037.9503              3044.2610              3048.9100
 Red. masses --      1.0677                 1.0394                 1.0620
 Frc consts  --      5.8056                 5.6754                 5.8167
 IR Inten    --     68.4737                32.9224                27.6743

                     94                     95                     96
                      A                      A                      A
 Frequencies --   3064.0715              3073.1383              3074.3433
 Red. masses --      1.0948                 1.1028                 1.0938
 Frc consts  --      6.0560                 6.1361                 6.0909
 IR Inten    --     27.1724                37.8966                63.0252

                     97                     98                     99
                      A                      A                      A
 Frequencies --   3079.3709              3096.2724              3098.8331
 Red. masses --      1.1035                 1.1017                 1.1024
 Frc consts  --      6.1653                 6.2226                 6.2373
 IR Inten    --     59.1141                70.1542                 0.8516

                    100                    101                    102
                      A                      A                      A
 Frequencies --   3103.3497              3104.9227              3116.4440
 Red. masses --      1.1020                 1.1015                 1.0940
 Frc consts  --      6.2534                 6.2564                 6.2600
 IR Inten    --     44.5838                61.7860                24.7518

                    103                    104                    105
                      A                      A                      A
 Frequencies --   3124.9646              3142.8736              3198.0321
 Red. masses --      1.0999                 1.0910                 1.0876
 Frc consts  --      6.3285                 6.3491                 6.5534
 IR Inten    --     34.0599                27.4695                31.4782

 - Thermochemistry -
 -------------------
 Temperature   298.150 Kelvin.  Pressure   1.00000 Atm.
 Atom     1 has atomic number  6 and mass  12.00000

 Molecular mass:   193.18305 amu.
 Principal axes and moments of inertia in atomic units:
                           1         2         3
     Eigenvalues --  1225.976274672.705704847.40665
           X            1.00000  -0.00076  -0.00056
           Y            0.00075   0.99998  -0.00668
           Z            0.00056   0.00668   0.99998
 This molecule is an asymmetric top.
 Rotational symmetry number  1.
 Warning -- assumption of classical behavior for rotation
           may cause significant error
 Rotational temperatures (Kelvin)      0.07065     0.01854     0.01787
 Rotational constants (GHZ):           1.47208     0.38623     0.37231
 Zero-point vibrational energy     904303.5 (Joules/Mol)
                                  216.13373 (Kcal/Mol)
 Warning -- explicit consideration of  22 degrees of freedom as
           vibrations may cause significant error
 Vibrational temperatures:     61.78   101.46   167.75   214.39   296.17
          (Kelvin)            340.89   354.60   382.42   390.02   404.79
                              457.18   473.99   560.79   588.11   601.40
                              612.23   647.08   678.25   738.26   761.13
                              806.95   847.39   932.26  1043.31  1135.15
                             1164.26  1190.27  1197.00  1254.93  1281.12
                             1291.54  1310.27  1323.12  1359.25  1385.38
                             1410.82  1415.55  1452.65  1494.93  1506.10
                             1514.48  1532.07  1549.12  1573.70  1636.68
                             1667.12  1683.60  1713.90  1726.69  1749.34
                             1779.81  1805.89  1825.11  1867.47  1884.28
                             1902.53  1916.36  1965.86  1972.16  1978.88
                             2000.38  2007.01  2016.54  2019.86  2032.42
                             2041.36  2052.93  2070.73  2084.40  2166.40
                             2171.07  2173.38  2177.16  2179.05  2189.63
                             2191.95  2198.34  2203.28  2207.58  2216.17
                             2225.50  2465.77  4290.81  4343.98  4348.35
                             4355.54  4357.06  4358.58  4363.25  4366.61
                             4370.93  4380.01  4386.70  4408.52  4421.56
                             4423.29  4430.53  4454.85  4458.53  4465.03
                             4467.29  4483.87  4496.13  4521.89  4601.25

 Zero-point correction=                           0.344431 (Hartree/Particle)
 Thermal correction to Energy=                    0.357949
 Thermal correction to Enthalpy=                  0.358893
 Thermal correction to Gibbs Free Energy=         0.305290
 Sum of electronic and zero-point Energies=           -563.710266
 Sum of electronic and thermal Energies=              -563.696749
 Sum of electronic and thermal Enthalpies=            -563.695804
 Sum of electronic and thermal Free Energies=         -563.749407

                     E (Thermal)             CV                S
                      KCal/Mol        Cal/Mol-Kelvin    Cal/Mol-Kelvin
 Total                  224.616             55.773            112.817
 Electronic               0.000              0.000              0.000
 Translational            0.889              2.981             41.681
 Rotational               0.889              2.981             31.696
 Vibrational            222.839             49.812             39.440
 Vibration     1          0.595              1.980              5.119
 Vibration     2          0.598              1.968              4.139
 Vibration     3          0.608              1.936              3.156
 Vibration     4          0.618              1.904              2.685
 Vibration     5          0.640              1.832              2.080
 Vibration     6          0.656              1.784              1.826
 Vibration     7          0.661              1.769              1.756
 Vibration     8          0.672              1.736              1.623
 Vibration     9          0.675              1.727              1.589
 Vibration    10          0.681              1.708              1.525
 Vibration    11          0.704              1.640              1.322
 Vibration    12          0.712              1.617              1.263
 Vibration    13          0.758              1.492              1.001
 Vibration    14          0.773              1.451              0.931
 Vibration    15          0.781              1.431              0.899
 Vibration    16          0.787              1.415              0.873
 Vibration    17          0.809              1.361              0.797
 Vibration    18          0.828              1.313              0.734
 Vibration    19          0.868              1.221              0.626
 Vibration    20          0.884              1.186              0.589
 Vibration    21          0.917              1.116              0.522
 Vibration    22          0.946              1.055              0.469

                           ! Non-Optimized Parameters !
 Normal termination of Gaussian 16 at Thu Dec 10 10:47:59 2020.

 ----------------------------------------------------------------------
 # B3LYP/6-311++G(d,p) empiricaldispersion=gd3bj scf=xqc pop=npa geom=c
 heck
 ----------------------------------------------------------------------

 --------------------------------------
 CID_13827862_JID_4783_Energie_neutraal
 --------------------------------------
 Structure from the checkpoint file:  "JID_4783.chk"
 Charge =  0 Multiplicity = 1

 SCF Done:  E(RB3LYP) =  -564.203469628     A.U. after   14 cycles
 Normal termination of Gaussian 16 at Thu Dec 10 10:52:58 2020.

 ----------------------------------------------------------------------
 # B3LYP/6-311++G(d,p) empiricaldispersion=gd3bj scf=xqc pop=npa geom=c
 heck
 ----------------------------------------------------------------------

 ------------------------------------
 CID_13827862_JID_4783_Energie_kation
 ------------------------------------
 Structure from the checkpoint file:  "JID_4783.chk"
 Charge =  1 Multiplicity = 2

 SCF Done:  E(UB3LYP) =  -563.951652576     A.U. after   20 cycles
 Normal termination of Gaussian 16 at Thu Dec 10 11:02:26 2020.
 Gaussian 16:  ES64L-G16RevA.03 25-Dec-2016

 ----------------------------------------------------------------------
 # B3LYP/6-311++G(d,p) empiricaldispersion=gd3bj scf=xqc pop=npa geom=c
 heck
 ----------------------------------------------------------------------

 -----------------------------------
 CID_13827862_JID_4783_Energie_anion
 -----------------------------------
 Structure from the checkpoint file:  "JID_4783.chk"
 Charge = -1 Multiplicity = 2

                         Standard orientation:
 ---------------------------------------------------------------------
 Center     Atomic      Atomic             Coordinates (Angstroms)
 Number     Number       Type             X           Y           Z
 ---------------------------------------------------------------------
      1          6           0        2.393929   -0.379709    1.676203
      2          6           0        2.707794    0.067994    0.238030
      3          6           0        2.239595   -0.989519   -0.777675
      4          6           0        0.735519   -1.266759   -0.693204
      5          6           0       -0.094037    0.001685   -0.638812
      6          6           0        0.480140    1.182748   -0.328593
      7          6           0        1.955715    1.374529   -0.082705
      8          7           0       -1.447226   -0.157309   -1.003003
      9          6           0       -2.318729    1.016445   -0.974434
     10          6           0       -2.820610    1.346125    0.441150
     11          6           0       -3.530029    0.125451    1.047516
     12          6           0       -2.646348   -1.127174    0.952178
     13          6           0       -2.163317   -1.332292   -0.491865
     14          6           0        4.219764    0.285031    0.095938
     15          1           0        2.822409    0.325274    2.398472
     16          1           0        1.315513   -0.422704    1.857157
     17          1           0        2.818409   -1.370043    1.882824
     18          1           0        2.483267   -0.632680   -1.787520
     19          1           0        2.793308   -1.926255   -0.630604
     20          1           0        0.424613   -1.861765   -1.560686
     21          1           0        0.529291   -1.886705    0.190808
     22          1           0       -0.121259    2.084061   -0.274169
     23          1           0        2.099552    2.087084    0.742653
     24          1           0        2.425058    1.848413   -0.961087
     25          1           0       -3.181111    0.791503   -1.617695
     26          1           0       -1.794378    1.860345   -1.429526
     27          1           0       -3.497212    2.209450    0.408077
     28          1           0       -1.967520    1.624351    1.070918
     29          1           0       -3.811160    0.321663    2.089162
     30          1           0       -4.465550   -0.057142    0.497710
     31          1           0       -1.769625   -1.013677    1.604728
     32          1           0       -3.193775   -2.014420    1.295466
     33          1           0       -1.531086   -2.217560   -0.572170
     34          1           0       -3.029557   -1.498544   -1.147156
     35          1           0        4.484748    0.560734   -0.932000
     36          1           0        4.565613    1.087702    0.758861
     37          1           0        4.774711   -0.625252    0.354421
 ---------------------------------------------------------------------

 SCF Done:  E(UB3LYP) =  -564.188035818     A.U. after   33 cycles
 SCF Done:  E(UB3LYP) =  -564.188035819     a.u. after    1 cycles

 The electronic state is 2-A.
 Alpha  occ. eigenvalues --  -14.21547 -10.09608 -10.09410 -10.09370 -10.07986
 Alpha  occ. eigenvalues --  -10.06769 -10.06593 -10.06424 -10.06404 -10.06360
 Alpha  occ. eigenvalues --  -10.06340 -10.06006 -10.05422 -10.04412  -0.84092
 Alpha  occ. eigenvalues --   -0.74336  -0.69906  -0.66142  -0.65836  -0.63615
 Alpha  occ. eigenvalues --   -0.58644  -0.58481  -0.53705  -0.53342  -0.50899
 Alpha  occ. eigenvalues --   -0.47731  -0.44844  -0.41291  -0.39561  -0.36878
 Alpha  occ. eigenvalues --   -0.36361  -0.35160  -0.34771  -0.34288  -0.33114
 Alpha  occ. eigenvalues --   -0.32522  -0.31114  -0.30675  -0.29788  -0.28854
 Alpha  occ. eigenvalues --   -0.28062  -0.27715  -0.26717  -0.26372  -0.25359
 Alpha  occ. eigenvalues --   -0.25058  -0.24707  -0.22827  -0.22216  -0.21963
 Alpha  occ. eigenvalues --   -0.21367  -0.19842  -0.17310  -0.08889   0.04377
 Alpha virt. eigenvalues --    0.06229   0.07039   0.07498   0.08202   0.08488
 Alpha virt. eigenvalues --    0.08716   0.09725   0.09851   0.10498   0.10637
 Alpha virt. eigenvalues --    0.10983   0.11282   0.11392   0.12809   0.12940

  Beta  occ. eigenvalues --  -14.21548 -10.09607 -10.09395 -10.09358 -10.07986
  Beta  occ. eigenvalues --  -10.06753 -10.06573 -10.06408 -10.06384 -10.06346
  Beta  occ. eigenvalues --  -10.06323 -10.05985 -10.05397 -10.04403  -0.84083
  Beta  occ. eigenvalues --   -0.74319  -0.69877  -0.66114  -0.65808  -0.63585
  Beta  occ. eigenvalues --   -0.58598  -0.58447  -0.53660  -0.53304  -0.50851
  Beta  occ. eigenvalues --   -0.47682  -0.44803  -0.41253  -0.39527  -0.36856
  Beta  occ. eigenvalues --   -0.36325  -0.35136  -0.34734  -0.34260  -0.33087
  Beta  occ. eigenvalues --   -0.32494  -0.31090  -0.30648  -0.29758  -0.28822
  Beta  occ. eigenvalues --   -0.28041  -0.27688  -0.26689  -0.26340  -0.25333
  Beta  occ. eigenvalues --   -0.25030  -0.24678  -0.22791  -0.22185  -0.21934
  Beta  occ. eigenvalues --   -0.21337  -0.19819  -0.17289  -0.08870
  Beta virt. eigenvalues --    0.06330   0.07017   0.07802   0.07971   0.08608
  Beta virt. eigenvalues --    0.09040   0.09109   0.10105   0.10141   0.10825
  Beta virt. eigenvalues --    0.10993   0.11296   0.11643   0.11707   0.12935

 Mulliken charges and spin densities:
               1          2
     1  C    0.342166  -1.087403
     2  C   -1.854491   3.058095
     3  C    2.301706  -3.245059
     4  C   -1.733827   1.487354
     5  C    1.671541  -2.084779
     6  C   -1.955950   2.508311
     7  C    1.289168  -2.536647
     8  N    0.183162   0.098514
     9  C   -0.198223  -0.019950
    10  C   -0.168690  -0.007077
    11  C    1.108722  -1.674554
    12  C   -0.113201  -0.071747
    13  C   -0.330757   0.020915
    14  C    0.765295  -1.339905
    15  H   -0.137144   0.272861
    16  H    0.327934  -0.157084
    17  H   -0.267690   0.419999
    18  H    0.062186   0.100918
    19  H   -0.181481   0.356003
    20  H   -0.148447   0.348484
    21  H    0.105779   0.075416
    22  H   -0.284716   0.431514
    23  H    0.028416   0.122492
    24  H   -0.015653   0.176072
    25  H   -0.260703   0.424404
    26  H    0.131043   0.037599
    27  H   -0.322850   0.483066
    28  H    0.132219  -0.006389
    29  H   -0.372462   0.526019
    30  H    0.021838   0.108896
    31  H   -0.058903   0.200179
    32  H   -0.420789   0.590241
    33  H   -0.276551   0.445256
    34  H   -0.210042   0.376671
    35  H   -0.153115   0.285605
    36  H    0.051514   0.082853
    37  H   -0.057007   0.192858
 Sum of Mulliken charges =  -1.00000   1.00000

 Dipole moment (field-independent basis, Debye):
    X=              1.5606    Y=              1.5563    Z=             -1.1508  Tot=              2.4863
 Quadrupole moment (field-independent basis, Debye-Ang):
   XX=           -171.7693   YY=           -134.2799   ZZ=           -128.6466
   XY=              0.7552   XZ=              3.2942   YZ=              0.9676

 Summary of Natural Population Analysis:

                                       Natural Population
                Natural  -----------------------------------------------
    Atom  No    Charge         Core      Valence    Rydberg      Total
 -----------------------------------------------------------------------
      C    1   -0.28742      0.99962     2.28038    0.00741     3.28742
      C    2   -0.04513      0.99958     2.03355    0.01201     3.04513
      C    3   -0.18263      0.99959     2.17284    0.01019     3.18263
      C    4   -0.20992      0.99959     2.20095    0.00938     3.20992
      C    5    0.10277      0.99945     1.88569    0.01209     2.89723
      C    6   -0.14720      0.99948     2.13861    0.00910     3.14720
      C    7   -0.19449      0.99958     2.18502    0.00989     3.19449
      N    8   -0.26368      0.99968     2.75087    0.01314     3.76368
      C    9   -0.08489      0.99961     2.07416    0.01113     3.08489
      C   10   -0.20030      0.99962     2.19298    0.00770     3.20030
      C   11   -0.18879      0.99963     2.18094    0.00822     3.18879
      C   12   -0.19886      0.99962     2.19106    0.00817     3.19886
      C   13   -0.08298      0.99960     2.07197    0.01140     3.08298
      C   14   -0.27979      0.99962     2.27398    0.00619     3.27979
      H   15    0.09821      0.00000     0.40091    0.00088     0.40179
      H   16    0.10413      0.00000     0.39442    0.00145     0.39587
      H   17    0.09863      0.00000     0.40038    0.00098     0.40137
      H   18    0.09655      0.00000     0.40206    0.00138     0.40345
      H   19    0.09963      0.00000     0.39921    0.00116     0.40037
      H   20    0.10575      0.00000     0.39291    0.00134     0.39425
      H   21    0.10228      0.00000     0.39606    0.00166     0.39772
      H   22    0.09615      0.00000     0.40229    0.00155     0.40385
      H   23    0.09889      0.00000     0.39995    0.00116     0.40111
      H   24    0.09748      0.00000     0.40127    0.00125     0.40252
      H   25    0.09293      0.00000     0.40584    0.00123     0.40707
      H   26    0.10040      0.00000     0.39838    0.00122     0.39960
      H   27    0.09808      0.00000     0.40069    0.00123     0.40192
      H   28    0.09904      0.00000     0.39940    0.00155     0.40096
      H   29    0.09932      0.00000     0.39949    0.00119     0.40068
      H   30    0.09169      0.00000     0.40668    0.00163     0.40831
      H   31    0.09597      0.00000     0.40236    0.00168     0.40403
      H   32    0.10003      0.00000     0.39846    0.00152     0.39997
      H   33    0.10147      0.00000     0.39711    0.00143     0.39853
      H   34    0.09176      0.00000     0.40684    0.00140     0.40824
      H   35    0.09833      0.00000     0.40060    0.00106     0.40167
      H   36    0.09775      0.00000     0.40127    0.00098     0.40225
      H   37    0.09883      0.00000     0.40014    0.00104     0.40117
 =======================================================================
   * Total *    0.00000     13.99428    39.83973    0.16599    54.00000

 Normal termination of Gaussian 16 at Thu Dec 10 11:17:31 2020.
