 Gaussian 16, Revision A.03,

 -----------------------------------------------------------
 # opt freq B3LYP/6-31G(d) empiricaldispersion=gd3bj scf=xqc
 -----------------------------------------------------------

 -------------------------------
 CID_127446047_JID_8445_neutraal
 -------------------------------
 Symbolic Z-matrix:
 Charge =  0 Multiplicity = 1

 SCF Done:  E(RB3LYP) =  -857.460623611     A.U. after   15 cycles
 SCF Done:  E(RB3LYP) =  -857.466605712     A.U. after   13 cycles
 SCF Done:  E(RB3LYP) =  -857.464079490     A.U. after   13 cycles
 SCF Done:  E(RB3LYP) =  -857.469081465     A.U. after   12 cycles
 SCF Done:  E(RB3LYP) =  -857.470899092     A.U. after   13 cycles
 SCF Done:  E(RB3LYP) =  -857.472945152     A.U. after   13 cycles
 SCF Done:  E(RB3LYP) =  -857.476368879     A.U. after   15 cycles
 SCF Done:  E(RB3LYP) =  -857.478579173     A.U. after   13 cycles
 SCF Done:  E(RB3LYP) =  -857.479241322     A.U. after   13 cycles
 SCF Done:  E(RB3LYP) =  -857.480530798     A.U. after   13 cycles
 SCF Done:  E(RB3LYP) =  -857.483556140     A.U. after   10 cycles
 SCF Done:  E(RB3LYP) =  -857.483561827     A.U. after   10 cycles
 SCF Done:  E(RB3LYP) =  -857.483563662     A.U. after    9 cycles
 SCF Done:  E(RB3LYP) =  -857.483563842     A.U. after    8 cycles
 SCF Done:  E(RB3LYP) =  -857.483563882     A.U. after    6 cycles
 Optimization completed.
    -- Stationary point found.
 Normal termination of Gaussian 16 at Sun Dec 13 16:22:37 2020.

 --------------------------------------------------------------------
 #N Geom=AllCheck Guess=TCheck SCRF=Check GenChk RB3LYP/6-31G(d) Freq
 --------------------------------------------------------------------

 Structure from the checkpoint file:  "JID_8445.chk"
 -------------------------------
 CID_127446047_JID_8445_neutraal
 -------------------------------
 Charge =  0 Multiplicity = 1

 SCF Done:  E(RB3LYP) =  -857.483563882     A.U. after    1 cycles

  Exact polarizability: 195.002  -9.522 141.370  -7.743  -7.324 111.570
 Approx polarizability: 240.379 -11.517 245.606 -11.287 -24.162 177.358

                      1                      2                      3
                      A                      A                      A
 Frequencies --     35.1216                45.0729                48.7396
 Red. masses --      4.6822                 4.1657                 5.8444
 Frc consts  --      0.0034                 0.0050                 0.0082
 IR Inten    --      4.9165                 0.9542                 3.4418

                      4                      5                      6
                      A                      A                      A
 Frequencies --     77.2200                88.6330               106.1699
 Red. masses --      3.7718                 1.8396                 1.3336
 Frc consts  --      0.0133                 0.0085                 0.0089
 IR Inten    --      2.8217                 2.4875                 1.0519

                      7                      8                      9
                      A                      A                      A
 Frequencies --    109.7190               129.8619               166.2546
 Red. masses --      1.5820                 2.6581                 4.0684
 Frc consts  --      0.0112                 0.0264                 0.0663
 IR Inten    --      2.3908                 0.2442                 3.8830

                     10                     11                     12
                      A                      A                      A
 Frequencies --    181.9818               221.8724               230.0017
 Red. masses --      3.2860                 2.7362                 1.5713
 Frc consts  --      0.0641                 0.0794                 0.0490
 IR Inten    --      2.6046                 2.2535                 0.9971

                     13                     14                     15
                      A                      A                      A
 Frequencies --    259.3618               278.0572               299.5134
 Red. masses --      2.5280                 1.1129                 3.9530
 Frc consts  --      0.1002                 0.0507                 0.2089
 IR Inten    --      2.8249                 1.6035                 2.2874

                     16                     17                     18
                      A                      A                      A
 Frequencies --    303.9777               319.0316               350.2766
 Red. masses --      2.8735                 2.7381                 2.6204
 Frc consts  --      0.1564                 0.1642                 0.1894
 IR Inten    --      1.9495                 2.1819                 4.0257

                     19                     20                     21
                      A                      A                      A
 Frequencies --    364.5367               381.2991               393.0843
 Red. masses --      3.3903                 2.4365                 5.4542
 Frc consts  --      0.2654                 0.2087                 0.4965
 IR Inten    --      0.4356                 3.5659                13.2906

                     22                     23                     24
                      A                      A                      A
 Frequencies --    415.7720               463.7962               470.5731
 Red. masses --      3.9503                 3.5190                 4.7961
 Frc consts  --      0.4023                 0.4460                 0.6257
 IR Inten    --     14.4367                 6.4716                 4.4653

                     25                     26                     27
                      A                      A                      A
 Frequencies --    515.7355               524.5211               612.1674
 Red. masses --      4.5398                 4.8132                 3.3349
 Frc consts  --      0.7114                 0.7802                 0.7363
 IR Inten    --      7.1030                 4.1395                 5.9526

                     28                     29                     30
                      A                      A                      A
 Frequencies --    635.8866               661.7891               684.3463
 Red. masses --      5.7499                 3.7352                 4.0881
 Frc consts  --      1.3698                 0.9638                 1.1280
 IR Inten    --      0.7188                 2.2327                 2.9979

                     31                     32                     33
                      A                      A                      A
 Frequencies --    690.8993               748.2035               755.5459
 Red. masses --      5.3541                 3.2481                 6.8022
 Frc consts  --      1.5058                 1.0713                 2.2878
 IR Inten    --     13.8981                 5.0344                 6.2419

                     34                     35                     36
                      A                      A                      A
 Frequencies --    777.9074               826.2183               873.1600
 Red. masses --      3.5811                 1.5322                 3.0310
 Frc consts  --      1.2768                 0.6163                 1.3615
 IR Inten    --      8.6254                20.9435                26.8260

                     37                     38                     39
                      A                      A                      A
 Frequencies --    909.5353               924.2871               933.7540
 Red. masses --      2.8115                 2.5832                 4.7538
 Frc consts  --      1.3703                 1.3003                 2.4421
 IR Inten    --     14.5340                22.3694                14.4917

                     40                     41                     42
                      A                      A                      A
 Frequencies --    963.4422              1000.1009              1014.2184
 Red. masses --      1.5395                 2.2244                 3.4750
 Frc consts  --      0.8419                 1.3108                 2.1060
 IR Inten    --      1.6656                 4.8418                 1.7374

                     43                     44                     45
                      A                      A                      A
 Frequencies --   1022.5567              1036.0691              1049.6887
 Red. masses --      3.3292                 2.0760                 1.3976
 Frc consts  --      2.0510                 1.3130                 0.9073
 IR Inten    --     44.0056                 8.8843                 4.0767

                     46                     47                     48
                      A                      A                      A
 Frequencies --   1061.3249              1081.2223              1102.3021
 Red. masses --      2.3213                 1.5056                 1.9104
 Frc consts  --      1.5406                 1.0370                 1.3677
 IR Inten    --      9.2396                 3.6484                13.2106

                     49                     50                     51
                      A                      A                      A
 Frequencies --   1127.3118              1149.3900              1167.2418
 Red. masses --      1.7454                 1.6208                 1.4915
 Frc consts  --      1.3069                 1.2616                 1.1973
 IR Inten    --     34.8451                 0.8596                 4.8326

                     52                     53                     54
                      A                      A                      A
 Frequencies --   1173.0285              1197.2178              1223.1351
 Red. masses --      2.6964                 3.1807                 2.1784
 Frc consts  --      2.1860                 2.6861                 1.9202
 IR Inten    --     53.4835                 5.8502                70.8665

                     55                     56                     57
                      A                      A                      A
 Frequencies --   1238.9757              1258.8621              1288.8845
 Red. masses --      2.2956                 2.0815                 3.1772
 Frc consts  --      2.0762                 1.9435                 3.1097
 IR Inten    --     85.3563                80.1717                 7.8168

                     58                     59                     60
                      A                      A                      A
 Frequencies --   1300.0987              1319.1655              1375.0657
 Red. masses --      2.2695                 2.0722                 2.5805
 Frc consts  --      2.2601                 2.1246                 2.8747
 IR Inten    --     35.7131                56.9790               114.8324

                     61                     62                     63
                      A                      A                      A
 Frequencies --   1412.5613              1414.9915              1423.0870
 Red. masses --      1.4644                 1.5921                 1.4961
 Frc consts  --      1.7216                 1.8781                 1.7852
 IR Inten    --      2.9109                94.4199                52.3584

                     64                     65                     66
                      A                      A                      A
 Frequencies --   1438.5460              1441.6814              1449.7880
 Red. masses --      1.2363                 1.2544                 1.3110
 Frc consts  --      1.5074                 1.5362                 1.6235
 IR Inten    --     15.5788                 6.1961                26.9587

                     67                     68                     69
                      A                      A                      A
 Frequencies --   1480.2135              1490.8575              1503.5231
 Red. masses --      1.7303                 2.5871                 1.0478
 Frc consts  --      2.2337                 3.3880                 1.3955
 IR Inten    --     73.9634                23.2743                 5.6544

                     70                     71                     72
                      A                      A                      A
 Frequencies --   1504.1271              1511.6054              1514.5910
 Red. masses --      1.5110                 1.4821                 1.0515
 Frc consts  --      2.0141                 1.9953                 1.4212
 IR Inten    --      9.4419                62.5993                 0.7663

                     73                     74                     75
                      A                      A                      A
 Frequencies --   1521.9339              1527.6969              1530.4803
 Red. masses --      1.0658                 1.5679                 1.4074
 Frc consts  --      1.4545                 2.1560                 1.9424
 IR Inten    --      9.8198                60.0747                30.0844

                     76                     77                     78
                      A                      A                      A
 Frequencies --   1536.2888              1539.3470              1550.7704
 Red. masses --      1.0669                 1.1096                 1.0792
 Frc consts  --      1.4837                 1.5491                 1.5291
 IR Inten    --      6.1556                10.1958                 9.0939

                     79                     80                     81
                      A                      A                      A
 Frequencies --   1559.3715              1656.9103              1722.0855
 Red. masses --      1.2326                 6.8441                11.1534
 Frc consts  --      1.7660                11.0704                19.4880
 IR Inten    --     25.6964                42.7131               260.9554

                     82                     83                     84
                      A                      A                      A
 Frequencies --   1753.2946              3031.1435              3039.7384
 Red. masses --      9.7920                 1.0551                 1.0445
 Frc consts  --     17.7351                 5.7117                 5.6866
 IR Inten    --    271.6305                19.9391                80.9828

                     85                     86                     87
                      A                      A                      A
 Frequencies --   3052.1127              3060.9151              3067.3453
 Red. masses --      1.0750                 1.0372                 1.0452
 Frc consts  --      5.9002                 5.7253                 5.7938
 IR Inten    --      7.1415                15.8998                14.5178

                     88                     89                     90
                      A                      A                      A
 Frequencies --   3073.0961              3073.8374              3091.3940
 Red. masses --      1.0463                 1.0952                 1.1026
 Frc consts  --      5.8218                 6.0971                 6.2084
 IR Inten    --      4.1177                81.5445                26.6634

                     91                     92                     93
                      A                      A                      A
 Frequencies --   3117.9445              3143.3359              3155.7926
 Red. masses --      1.1016                 1.0952                 1.1013
 Frc consts  --      6.3095                 6.3755                 6.4623
 IR Inten    --      7.5817                12.0929                 7.0936

                     94                     95                     96
                      A                      A                      A
 Frequencies --   3159.6069              3177.5556              3182.7647
 Red. masses --      1.0939                 1.1051                 1.0938
 Frc consts  --      6.4340                 6.5738                 6.5285
 IR Inten    --      9.7086                 2.6723                 2.4700

                     97                     98                     99
                      A                      A                      A
 Frequencies --   3195.2691              3199.4340              3305.2014
 Red. masses --      1.0969                 1.0996                 1.0991
 Frc consts  --      6.5982                 6.6319                 7.0741
 IR Inten    --      1.2253                 5.7663                 1.5180

 - Thermochemistry -
 -------------------
 Temperature   298.150 Kelvin.  Pressure   1.00000 Atm.
 Atom     1 has atomic number  6 and mass  12.00000

 Molecular mass:   251.12699 amu.
 Principal axes and moments of inertia in atomic units:
                           1         2         3
     Eigenvalues --  1928.300407255.558698086.74755
           X            0.99991  -0.01131  -0.00760
           Y            0.01123   0.99988  -0.01072
           Z            0.00772   0.01063   0.99991
 This molecule is an asymmetric top.
 Rotational symmetry number  1.
 Warning -- assumption of classical behavior for rotation
           may cause significant error
 Rotational temperatures (Kelvin)      0.04492     0.01194     0.01071
 Rotational constants (GHZ):           0.93592     0.24874     0.22317
 Zero-point vibrational energy     763058.5 (Joules/Mol)
                                  182.37537 (Kcal/Mol)
 Warning -- explicit consideration of  27 degrees of freedom as
           vibrations may cause significant error
 Vibrational temperatures:     50.53    64.85    70.13   111.10   127.52
          (Kelvin)            152.75   157.86   186.84   239.20   261.83
                              319.22   330.92   373.16   400.06   430.93
                              437.36   459.02   503.97   524.49   548.60
                              565.56   598.20   667.30   677.05   742.03
                              754.67   880.77   914.90   952.17   984.62
                              994.05  1076.50  1087.06  1119.24  1188.74
                             1256.28  1308.62  1329.84  1343.46  1386.18
                             1438.92  1459.23  1471.23  1490.67  1510.27
                             1527.01  1555.64  1585.97  1621.95  1653.72
                             1679.40  1687.73  1722.53  1759.82  1782.61
                             1811.22  1854.42  1870.55  1897.98  1978.41
                             2032.36  2035.86  2047.50  2069.75  2074.26
                             2085.92  2129.70  2145.01  2163.23  2164.10
                             2174.86  2179.16  2189.72  2198.02  2202.02
                             2210.38  2214.78  2231.21  2243.59  2383.92
                             2477.70  2522.60  4361.14  4373.51  4391.31
                             4403.97  4413.23  4421.50  4422.57  4447.83
                             4486.03  4522.56  4540.48  4545.97  4571.79
                             4579.29  4597.28  4603.27  4755.45

 Zero-point correction=                           0.290634 (Hartree/Particle)
 Thermal correction to Energy=                    0.308423
 Thermal correction to Enthalpy=                  0.309367
 Thermal correction to Gibbs Free Energy=         0.244401
 Sum of electronic and zero-point Energies=           -857.192930
 Sum of electronic and thermal Energies=              -857.175141
 Sum of electronic and thermal Enthalpies=            -857.174197
 Sum of electronic and thermal Free Energies=         -857.239163

                     E (Thermal)             CV                S
                      KCal/Mol        Cal/Mol-Kelvin    Cal/Mol-Kelvin
 Total                  193.538             66.221            136.732
 Electronic               0.000              0.000              0.000
 Translational            0.889              2.981             42.463
 Rotational               0.889              2.981             33.092
 Vibrational            191.761             60.259             61.178
 Vibration     1          0.594              1.982              5.517
 Vibration     2          0.595              1.979              5.023
 Vibration     3          0.595              1.978              4.868
 Vibration     4          0.599              1.964              3.960
 Vibration     5          0.601              1.957              3.690
 Vibration     6          0.605              1.944              3.338
 Vibration     7          0.606              1.941              3.274
 Vibration     8          0.612              1.923              2.948
 Vibration     9          0.624              1.884              2.477
 Vibration    10          0.630              1.864              2.308
 Vibration    11          0.648              1.808              1.944
 Vibration    12          0.652              1.795              1.879
 Vibration    13          0.668              1.747              1.666
 Vibration    14          0.679              1.714              1.546
 Vibration    15          0.692              1.675              1.420
 Vibration    16          0.695              1.666              1.395
 Vibration    17          0.705              1.637              1.315
 Vibration    18          0.727              1.575              1.165
 Vibration    19          0.738              1.545              1.103
 Vibration    20          0.751              1.510              1.034
 Vibration    21          0.760              1.485              0.988
 Vibration    22          0.779              1.436              0.906
 Vibration    23          0.821              1.330              0.755
 Vibration    24          0.828              1.315              0.736
 Vibration    25          0.871              1.215              0.620
 Vibration    26          0.879              1.196              0.600
 Vibration    27          0.971              1.006              0.429

                           ! Non-Optimized Parameters !
 Normal termination of Gaussian 16 at Sun Dec 13 16:39:30 2020.

 ----------------------------------------------------------------------
 # B3LYP/6-311++G(d,p) empiricaldispersion=gd3bj scf=xqc pop=npa geom=c
 heck
 ----------------------------------------------------------------------

 ---------------------------------------
 CID_127446047_JID_8445_Energie_neutraal
 ---------------------------------------
 Structure from the checkpoint file:  "JID_8445.chk"
 Charge =  0 Multiplicity = 1

 SCF Done:  E(RB3LYP) =  -857.719941373     A.U. after   16 cycles
 Normal termination of Gaussian 16 at Sun Dec 13 16:47:13 2020.

 ----------------------------------------------------------------------
 # B3LYP/6-311++G(d,p) empiricaldispersion=gd3bj scf=xqc pop=npa geom=c
 heck
 ----------------------------------------------------------------------

 -------------------------------------
 CID_127446047_JID_8445_Energie_kation
 -------------------------------------
 Structure from the checkpoint file:  "JID_8445.chk"
 Charge =  1 Multiplicity = 2

 SCF Done:  E(UB3LYP) =  -857.408081022     A.U. after   31 cycles
 Normal termination of Gaussian 16 at Sun Dec 13 17:08:29 2020.
 Gaussian 16:  ES64L-G16RevA.03 25-Dec-2016

 ----------------------------------------------------------------------
 # B3LYP/6-311++G(d,p) empiricaldispersion=gd3bj scf=xqc pop=npa geom=c
 heck
 ----------------------------------------------------------------------

 ------------------------------------
 CID_127446047_JID_8445_Energie_anion
 ------------------------------------
 Structure from the checkpoint file:  "JID_8445.chk"
 Charge = -1 Multiplicity = 2

                         Standard orientation:
 ---------------------------------------------------------------------
 Center     Atomic      Atomic             Coordinates (Angstroms)
 Number     Number       Type             X           Y           Z
 ---------------------------------------------------------------------
      1          6           0        5.271406   -0.359838   -0.958784
      2          6           0        3.903562   -0.093270   -0.438309
      3          6           0        2.907161    0.764500   -0.792367
      4          6           0        1.863529    0.482070    0.132589
      5          7           0        2.206043   -0.453779    0.991865
      6          8           0        3.502360   -0.828412    0.628008
      7          6           0        0.589273    1.254107    0.257003
      8          8           0        0.674657    2.479380    0.169856
      9          7           0       -0.589954    0.614868    0.538238
     10          6           0       -1.685018    1.467558    0.982993
     11          6           0       -2.727927    1.567407   -0.109970
     12          7           0       -3.160969    0.228243   -0.484018
     13          6           0       -2.458697   -0.903835   -0.183956
     14          8           0       -2.930130   -2.026226   -0.343989
     15          6           0       -0.973283   -0.801519    0.294521
     16          6           0       -0.175574   -1.454074   -0.854052
     17          6           0       -0.833252   -1.620682    1.588529
     18          6           0       -4.477318    0.106733   -1.091504
     19          1           0        6.024778   -0.182654   -0.183302
     20          1           0        5.370078   -1.400803   -1.286286
     21          1           0        5.482956    0.294797   -1.807277
     22          1           0        2.899364    1.502691   -1.578508
     23          1           0       -2.131472    1.025498    1.882597
     24          1           0       -1.280898    2.448391    1.225517
     25          1           0       -2.319931    2.106598   -0.975806
     26          1           0       -3.601046    2.125459    0.252236
     27          1           0        0.832712   -1.720607   -0.544590
     28          1           0       -0.702382   -2.364508   -1.143223
     29          1           0       -0.121928   -0.787705   -1.722010
     30          1           0       -1.414452   -1.170199    2.400729
     31          1           0       -1.207385   -2.632846    1.422674
     32          1           0        0.217643   -1.650123    1.882411
     33          1           0       -5.264671    0.382197   -0.377479
     34          1           0       -4.545896    0.772455   -1.959890
     35          1           0       -4.621585   -0.926851   -1.401546
 ---------------------------------------------------------------------

 SCF Done:  E(UB3LYP) =  -857.717141398     A.U. after   33 cycles
 SCF Done:  E(UB3LYP) =  -857.717141398     a.u. after    1 cycles

 The electronic state is 2-A.
 Alpha  occ. eigenvalues --  -19.07548 -18.98326 -18.96093 -14.24620 -14.22569
 Alpha  occ. eigenvalues --  -14.21808 -10.16898 -10.14500 -10.12877 -10.12207
 Alpha  occ. eigenvalues --  -10.10629 -10.09771 -10.09767 -10.09282 -10.07790
 Alpha  occ. eigenvalues --  -10.06020 -10.05512 -10.05068  -1.01613  -0.94068
 Alpha  occ. eigenvalues --   -0.91715  -0.84902  -0.81666  -0.74907  -0.69585
 Alpha  occ. eigenvalues --   -0.69015  -0.65481  -0.61811  -0.60680  -0.58968
 Alpha  occ. eigenvalues --   -0.56556  -0.52018  -0.50512  -0.47763  -0.45160
 Alpha  occ. eigenvalues --   -0.42194  -0.41492  -0.39933  -0.38770  -0.36873
 Alpha  occ. eigenvalues --   -0.36467  -0.35596  -0.34422  -0.33888  -0.32814
 Alpha  occ. eigenvalues --   -0.32451  -0.31840  -0.31614  -0.30840  -0.30654
 Alpha  occ. eigenvalues --   -0.29951  -0.29275  -0.28425  -0.27821  -0.26833
 Alpha  occ. eigenvalues --   -0.26239  -0.25829  -0.25191  -0.24439  -0.24121
 Alpha  occ. eigenvalues --   -0.18416  -0.17943  -0.16599  -0.14750  -0.14674
 Alpha  occ. eigenvalues --   -0.13594  -0.12817   0.04414
 Alpha virt. eigenvalues --    0.06197   0.06513   0.08190   0.09041   0.09152
 Alpha virt. eigenvalues --    0.09642   0.10065   0.10810   0.11232   0.11536
 Alpha virt. eigenvalues --    0.11762   0.11913   0.12492   0.12655   0.13632

  Beta  occ. eigenvalues --  -19.07326 -18.98323 -18.95911 -14.24621 -14.22561
  Beta  occ. eigenvalues --  -14.21353 -10.16892 -10.14324 -10.12876 -10.12098
  Beta  occ. eigenvalues --  -10.10593 -10.09762 -10.09731 -10.09290 -10.07703
  Beta  occ. eigenvalues --  -10.06071 -10.05511 -10.05065  -1.01174  -0.94059
  Beta  occ. eigenvalues --   -0.91398  -0.84857  -0.81582  -0.74380  -0.69400
  Beta  occ. eigenvalues --   -0.68983  -0.65404  -0.61666  -0.60632  -0.58932
  Beta  occ. eigenvalues --   -0.56351  -0.51927  -0.50301  -0.47506  -0.45066
  Beta  occ. eigenvalues --   -0.42137  -0.41364  -0.39837  -0.38703  -0.36446
  Beta  occ. eigenvalues --   -0.36174  -0.35506  -0.34359  -0.33753  -0.32639
  Beta  occ. eigenvalues --   -0.32362  -0.31733  -0.31389  -0.30678  -0.30398
  Beta  occ. eigenvalues --   -0.29822  -0.29193  -0.28371  -0.27625  -0.26658
  Beta  occ. eigenvalues --   -0.26115  -0.25642  -0.25135  -0.24151  -0.23998
  Beta  occ. eigenvalues --   -0.17844  -0.17141  -0.16515  -0.14697  -0.13404
  Beta  occ. eigenvalues --   -0.13301  -0.12403
  Beta virt. eigenvalues --    0.06384   0.07129   0.08746   0.09122   0.09167
  Beta virt. eigenvalues --    0.09529   0.09757   0.10341   0.11002   0.11369
  Beta virt. eigenvalues --    0.11574   0.11819   0.12059   0.12585   0.13462

 Mulliken charges and spin densities:
               1          2
     1  C   -0.351787  -0.150440
     2  C   -0.420859   0.178360
     3  C   -0.087674  -0.043309
     4  C    0.368114   0.101419
     5  N   -0.551452   0.216125
     6  O    0.220203   0.044244
     7  C   -0.055131  -0.017229
     8  O   -0.324527   0.064178
     9  N    0.335199   0.007662
    10  C   -0.639660   0.531429
    11  C    0.858750  -1.217325
    12  N   -0.202729   0.209780
    13  C   -0.607167   0.385566
    14  O   -0.345578  -0.000139
    15  C    0.307597  -0.184801
    16  C   -0.454099  -0.119394
    17  C   -0.625522  -0.036371
    18  C    0.854653  -1.164909
    19  H    0.154975  -0.003511
    20  H    0.107778   0.048621
    21  H    0.140240   0.009653
    22  H    0.156472   0.003856
    23  H   -0.090169   0.246453
    24  H    0.186373   0.032144
    25  H    0.054118   0.147431
    26  H   -0.478257   0.668390
    27  H    0.184037   0.001696
    28  H    0.191763  -0.004024
    29  H    0.143000   0.012763
    30  H    0.105603   0.012811
    31  H    0.158284   0.002586
    32  H    0.226450  -0.003235
    33  H   -0.342745   0.510901
    34  H   -0.286807   0.437037
    35  H    0.110555   0.071581
 Sum of Mulliken charges =  -1.00000   1.00000

 Dipole moment (field-independent basis, Debye):
    X=              5.5519    Y=             -2.2873    Z=             -1.6537  Tot=              6.2282
 Quadrupole moment (field-independent basis, Debye-Ang):
   XX=           -177.1701   YY=           -145.8689   ZZ=           -125.0423
   XY=              4.7165   XZ=             -9.5417   YZ=              0.1490

 Summary of Natural Population Analysis:

                                       Natural Population
                Natural  -----------------------------------------------
    Atom  No    Charge         Core      Valence    Rydberg      Total
 -----------------------------------------------------------------------
      C    1   -0.30643      0.99963     2.30238    0.00442     3.30643
      C    2    0.17578      0.99952     1.81193    0.01278     2.82422
      C    3   -0.17230      0.99944     2.16562    0.00724     3.17230
      C    4    0.04861      0.99956     1.93701    0.01482     2.95139
      N    5   -0.02764      0.99966     2.51353    0.01445     3.52764
      O    6   -0.15940      0.99985     3.15051    0.00904     4.15940
      C    7    0.35549      0.99958     1.62130    0.02363     2.64451
      O    8   -0.30858      0.99988     3.30405    0.00464     4.30858
      N    9   -0.26123      0.99962     2.74941    0.01220     3.76123
      C   10   -0.09288      0.99961     2.08180    0.01147     3.09288
      C   11   -0.08124      0.99960     2.07161    0.01002     3.08124
      N   12   -0.25124      0.99963     2.74098    0.01062     3.75124
      C   13    0.34933      0.99958     1.62580    0.02530     2.65067
      O   14   -0.33842      0.99988     3.33348    0.00507     4.33842
      C   15    0.04457      0.99955     1.94304    0.01284     2.95543
      C   16   -0.29096      0.99962     2.28560    0.00574     3.29096
      C   17   -0.29272      0.99961     2.28680    0.00631     3.29272
      C   18   -0.17774      0.99964     2.16987    0.00823     3.17774
      H   19    0.10524      0.00000     0.39368    0.00108     0.39476
      H   20    0.10594      0.00000     0.39287    0.00119     0.39406
      H   21    0.10397      0.00000     0.39530    0.00073     0.39603
      H   22    0.11201      0.00000     0.38718    0.00081     0.38799
      H   23    0.09387      0.00000     0.40485    0.00128     0.40613
      H   24    0.12150      0.00000     0.37738    0.00113     0.37850
      H   25    0.09791      0.00000     0.40086    0.00123     0.40209
      H   26    0.09919      0.00000     0.39822    0.00259     0.40081
      H   27    0.11274      0.00000     0.38604    0.00122     0.38726
      H   28    0.11019      0.00000     0.38886    0.00095     0.38981
      H   29    0.10173      0.00000     0.39725    0.00102     0.39827
      H   30    0.09643      0.00000     0.40264    0.00094     0.40357
      H   31    0.10566      0.00000     0.39349    0.00086     0.39434
      H   32    0.11752      0.00000     0.38150    0.00097     0.38248
      H   33    0.09535      0.00000     0.40299    0.00166     0.40465
      H   34    0.09474      0.00000     0.40400    0.00127     0.40526
      H   35    0.11302      0.00000     0.38592    0.00106     0.38698
 =======================================================================
   * Total *    0.00000     17.99347    48.78775    0.21878    67.00000

 Normal termination of Gaussian 16 at Sun Dec 13 17:31:33 2020.
