 Gaussian 16, Revision A.03,

 -----------------------------------------------------------
 # opt freq B3LYP/6-31G(d) empiricaldispersion=gd3bj scf=xqc
 -----------------------------------------------------------

 ------------------------------
 CID_88442291_JID_4653_neutraal
 ------------------------------
 Symbolic Z-matrix:
 Charge =  0 Multiplicity = 1

 SCF Done:  E(RB3LYP) =  -623.435005525     A.U. after   13 cycles
 SCF Done:  E(RB3LYP) =  -623.437413854     A.U. after   11 cycles
 SCF Done:  E(RB3LYP) =  -623.437632919     A.U. after   10 cycles
 SCF Done:  E(RB3LYP) =  -623.437604027     A.U. after   11 cycles
 SCF Done:  E(RB3LYP) =  -623.437684827     A.U. after   10 cycles
 SCF Done:  E(RB3LYP) =  -623.437709574     A.U. after    9 cycles
 SCF Done:  E(RB3LYP) =  -623.437710542     A.U. after    8 cycles
 SCF Done:  E(RB3LYP) =  -623.437711446     A.U. after    7 cycles
 SCF Done:  E(RB3LYP) =  -623.437711646     A.U. after    7 cycles
 SCF Done:  E(RB3LYP) =  -623.437711668     A.U. after    7 cycles
 SCF Done:  E(RB3LYP) =  -623.437711614     A.U. after    7 cycles
 SCF Done:  E(RB3LYP) =  -623.437711545     A.U. after    7 cycles
 SCF Done:  E(RB3LYP) =  -623.437711475     A.U. after    7 cycles
 SCF Done:  E(RB3LYP) =  -623.437711477     A.U. after    6 cycles
 SCF Done:  E(RB3LYP) =  -623.437711511     A.U. after    6 cycles
 Optimization completed.
    -- Stationary point found.
 Normal termination of Gaussian 16 at Thu Dec 10 10:21:01 2020.

 --------------------------------------------------------------------
 #N Geom=AllCheck Guess=TCheck SCRF=Check GenChk RB3LYP/6-31G(d) Freq
 --------------------------------------------------------------------

 Structure from the checkpoint file:  "JID_4653.chk"
 ------------------------------
 CID_88442291_JID_4653_neutraal
 ------------------------------
 Charge =  0 Multiplicity = 1

 SCF Done:  E(RB3LYP) =  -623.437711511     A.U. after    1 cycles

  Exact polarizability: 150.129   1.770 136.830  -0.427  -2.677 116.462
 Approx polarizability: 179.934  -0.062 183.752  -1.582  -1.770 176.807

                      1                      2                      3
                      A                      A                      A
 Frequencies --     14.3954                37.6172                46.1882
 Red. masses --      4.4845                 3.1385                 3.2498
 Frc consts  --      0.0005                 0.0026                 0.0041
 IR Inten    --      0.7178                 0.0382                 0.1298

                      4                      5                      6
                      A                      A                      A
 Frequencies --     60.0717                64.8199                88.0293
 Red. masses --      3.9218                 3.6492                 2.7124
 Frc consts  --      0.0083                 0.0090                 0.0124
 IR Inten    --      0.3001                 0.0700                 0.0946

                      7                      8                      9
                      A                      A                      A
 Frequencies --     95.6239               136.5356               150.3842
 Red. masses --      2.5245                 2.7886                 2.3492
 Frc consts  --      0.0136                 0.0306                 0.0313
 IR Inten    --      0.0709                 0.2313                 0.2530

                     10                     11                     12
                      A                      A                      A
 Frequencies --    160.5866               184.5728               228.6358
 Red. masses --      2.7948                 1.4895                 1.7848
 Frc consts  --      0.0425                 0.0299                 0.0550
 IR Inten    --      4.6241                 0.0963                 2.6093

                     13                     14                     15
                      A                      A                      A
 Frequencies --    247.0045               268.9219               293.0149
 Red. masses --      1.6696                 1.5575                 1.8189
 Frc consts  --      0.0600                 0.0664                 0.0920
 IR Inten    --      0.4881                 0.3241                 0.2647

                     16                     17                     18
                      A                      A                      A
 Frequencies --    304.2495               326.2498               348.0897
 Red. masses --      2.8088                 2.4695                 1.8855
 Frc consts  --      0.1532                 0.1549                 0.1346
 IR Inten    --      1.0754                 0.1940                 0.6954

                     19                     20                     21
                      A                      A                      A
 Frequencies --    380.9676               398.3880               435.7221
 Red. masses --      2.2018                 2.0828                 2.0814
 Frc consts  --      0.1883                 0.1948                 0.2328
 IR Inten    --      1.8967                12.4662                15.8446

                     22                     23                     24
                      A                      A                      A
 Frequencies --    441.5255               457.8859               514.6819
 Red. masses --      1.9659                 1.3014                 2.3801
 Frc consts  --      0.2258                 0.1608                 0.3715
 IR Inten    --      0.5730               116.3694                 3.3883

                     25                     26                     27
                      A                      A                      A
 Frequencies --    580.2502               612.5019               717.6843
 Red. masses --      2.3935                 2.2778                 1.4013
 Frc consts  --      0.4748                 0.5035                 0.4253
 IR Inten    --      7.9921                 0.4403                 4.8702

                     28                     29                     30
                      A                      A                      A
 Frequencies --    751.6451               772.0579               790.0258
 Red. masses --      1.2666                 1.6296                 2.1977
 Frc consts  --      0.4216                 0.5723                 0.8082
 IR Inten    --     14.8769                 2.3069                 0.6811

                     31                     32                     33
                      A                      A                      A
 Frequencies --    835.4465               860.1947               869.7514
 Red. masses --      2.1342                 1.8741                 1.4923
 Frc consts  --      0.8776                 0.8170                 0.6651
 IR Inten    --      2.2159                 9.4723                 2.1435

                     34                     35                     36
                      A                      A                      A
 Frequencies --    903.3010               908.5373               923.5857
 Red. masses --      1.5033                 2.0210                 2.1873
 Frc consts  --      0.7227                 0.9829                 1.0993
 IR Inten    --      0.8654                 2.8304                 8.8202

                     37                     38                     39
                      A                      A                      A
 Frequencies --    932.8163               965.4262               985.7835
 Red. masses --      1.7845                 1.5964                 1.8260
 Frc consts  --      0.9149                 0.8766                 1.0455
 IR Inten    --      6.5749                 3.9447                 0.0576

                     40                     41                     42
                      A                      A                      A
 Frequencies --   1022.9723              1032.7736              1046.4331
 Red. masses --      1.5509                 2.1761                 1.6758
 Frc consts  --      0.9562                 1.3675                 1.0812
 IR Inten    --      2.7655                29.6323                11.5883

                     43                     44                     45
                      A                      A                      A
 Frequencies --   1058.7178              1089.9166              1097.0262
 Red. masses --      2.0209                 2.3602                 1.6493
 Frc consts  --      1.3346                 1.6519                 1.1695
 IR Inten    --      0.3835                80.4878                 9.6238

                     46                     47                     48
                      A                      A                      A
 Frequencies --   1100.8620              1123.2286              1135.7577
 Red. masses --      1.4856                 2.0790                 4.3711
 Frc consts  --      1.0607                 1.5454                 3.3221
 IR Inten    --      0.1547                10.7780               135.4187

                     49                     50                     51
                      A                      A                      A
 Frequencies --   1138.9476              1153.3123              1166.1684
 Red. masses --      2.0760                 1.9674                 2.4240
 Frc consts  --      1.5867                 1.5418                 1.9422
 IR Inten    --      8.0719                 7.3540                21.8313

                     52                     53                     54
                      A                      A                      A
 Frequencies --   1174.8196              1218.6771              1245.7576
 Red. masses --      2.1869                 1.3701                 1.2617
 Frc consts  --      1.7784                 1.1989                 1.1536
 IR Inten    --      0.7726                 3.1408                14.2363

                     55                     56                     57
                      A                      A                      A
 Frequencies --   1250.2801              1269.5676              1275.1719
 Red. masses --      1.4074                 1.2523                 1.1530
 Frc consts  --      1.2962                 1.1893                 1.1046
 IR Inten    --      3.0683                10.9459                 9.5393

                     58                     59                     60
                      A                      A                      A
 Frequencies --   1288.9106              1308.3993              1336.1773
 Red. masses --      1.3058                 1.2330                 1.1557
 Frc consts  --      1.2781                 1.2437                 1.2156
 IR Inten    --      1.9430                 0.1774                 1.8563

                     61                     62                     63
                      A                      A                      A
 Frequencies --   1344.9089              1365.7379              1378.2722
 Red. masses --      1.1362                 1.2320                 1.4556
 Frc consts  --      1.2109                 1.3540                 1.6291
 IR Inten    --      3.4513                 7.3078                13.2969

                     64                     65                     66
                      A                      A                      A
 Frequencies --   1388.3615              1395.3634              1399.9807
 Red. masses --      1.3892                 1.3414                 1.2502
 Frc consts  --      1.5777                 1.5388                 1.4437
 IR Inten    --      4.4554                 1.5718                 1.4834

                     67                     68                     69
                      A                      A                      A
 Frequencies --   1402.6096              1414.6853              1416.4578
 Red. masses --      1.3289                 1.3466                 1.4140
 Frc consts  --      1.5403                 1.5879                 1.6715
 IR Inten    --     20.9289                 8.6307                 7.6226

                     70                     71                     72
                      A                      A                      A
 Frequencies --   1420.9975              1431.5755              1441.2038
 Red. masses --      1.4330                 1.3666                 1.3098
 Frc consts  --      1.7048                 1.6502                 1.6029
 IR Inten    --      1.5828                 7.1186                 6.1800

                     73                     74                     75
                      A                      A                      A
 Frequencies --   1444.4983              1447.4568              1459.7712
 Red. masses --      1.2712                 1.2984                 1.4294
 Frc consts  --      1.5628                 1.6028                 1.7946
 IR Inten    --      8.6007                19.3277                27.3614

                     76                     77                     78
                      A                      A                      A
 Frequencies --   1504.1581              1513.1903              1515.1187
 Red. masses --      1.0826                 1.0819                 1.0737
 Frc consts  --      1.4432                 1.4596                 1.4523
 IR Inten    --      1.6426                 6.1665                 3.7804

                     79                     80                     81
                      A                      A                      A
 Frequencies --   1518.3080              1523.3051              1529.1758
 Red. masses --      1.0729                 1.0671                 1.0594
 Frc consts  --      1.4572                 1.4589                 1.4596
 IR Inten    --      1.9151                 0.7901                 3.7641

                     82                     83                     84
                      A                      A                      A
 Frequencies --   1530.3656              1531.3110              1534.8062
 Red. masses --      1.0847                 1.0888                 1.0673
 Frc consts  --      1.4967                 1.5042                 1.4813
 IR Inten    --     12.9751                 0.8027                 9.6938

                     85                     86                     87
                      A                      A                      A
 Frequencies --   1537.7232              1540.2504              1545.2289
 Red. masses --      1.0678                 1.0902                 1.0828
 Frc consts  --      1.4877                 1.5238                 1.5233
 IR Inten    --      1.0291                 6.5681                 1.4986

                     88                     89                     90
                      A                      A                      A
 Frequencies --   1549.3532              2992.0969              2999.7610
 Red. masses --      1.0532                 1.0643                 1.0742
 Frc consts  --      1.4896                 5.6140                 5.6951
 IR Inten    --      2.3407                19.3965                39.8161

                     91                     92                     93
                      A                      A                      A
 Frequencies --   3003.7804              3027.1017              3029.6885
 Red. masses --      1.0755                 1.0639                 1.0619
 Frc consts  --      5.7174                 5.7436                 5.7431
 IR Inten    --     62.1766                20.6283                18.9999

                     94                     95                     96
                      A                      A                      A
 Frequencies --   3034.9777              3038.7072              3043.3292
 Red. masses --      1.0645                 1.0652                 1.0889
 Frc consts  --      5.7773                 5.7949                 5.9421
 IR Inten    --     24.3477                41.1538                28.8337

                     97                     98                     99
                      A                      A                      A
 Frequencies --   3044.0894              3044.7448              3047.8616
 Red. masses --      1.0533                 1.0446                 1.0524
 Frc consts  --      5.7506                 5.7054                 5.7601
 IR Inten    --     76.8475                 9.4674                 9.3157

                    100                    101                    102
                      A                      A                      A
 Frequencies --   3052.3794              3058.4987              3060.8321
 Red. masses --      1.0652                 1.0764                 1.0917
 Frc consts  --      5.8473                 5.9328                 6.0259
 IR Inten    --     30.8997                 6.6776                22.0530

                    103                    104                    105
                      A                      A                      A
 Frequencies --   3062.3299              3069.5551              3081.0875
 Red. masses --      1.0938                 1.0970                 1.0982
 Frc consts  --      6.0435                 6.0899                 6.1426
 IR Inten    --     23.7541                56.3785                40.6734

                    106                    107                    108
                      A                      A                      A
 Frequencies --   3083.4274              3091.5222              3096.5082
 Red. masses --      1.0973                 1.0995                 1.1018
 Frc consts  --      6.1468                 6.1914                 6.2244
 IR Inten    --    116.4031                58.6743                35.8207

                    109                    110                    111
                      A                      A                      A
 Frequencies --   3104.9729              3106.2782              3110.6679
 Red. masses --      1.0942                 1.1000                 1.1016
 Frc consts  --      6.2154                 6.2537                 6.2805
 IR Inten    --     65.2133                37.1938                51.0087

                    112                    113                    114
                      A                      A                      A
 Frequencies --   3117.4618              3138.7350              3719.5904
 Red. masses --      1.1020                 1.0995                 1.0650
 Frc consts  --      6.3100                 6.3820                 8.6817
 IR Inten    --     45.2244                32.8377                35.0482

 - Thermochemistry -
 -------------------
 Temperature   298.150 Kelvin.  Pressure   1.00000 Atm.
 Atom     1 has atomic number  6 and mass  12.00000

 Molecular mass:   202.19328 amu.
 Principal axes and moments of inertia in atomic units:
                           1         2         3
     Eigenvalues --  2397.531814581.231966193.50284
           X            0.99964   0.02636   0.00513
           Y           -0.02630   0.99958  -0.01238
           Z           -0.00545   0.01224   0.99991
 This molecule is an asymmetric top.
 Rotational symmetry number  1.
 Warning -- assumption of classical behavior for rotation
           may cause significant error
 Rotational temperatures (Kelvin)      0.03613     0.01891     0.01398
 Rotational constants (GHZ):           0.75275     0.39394     0.29139
 Zero-point vibrational energy     980406.7 (Joules/Mol)
                                  234.32283 (Kcal/Mol)
 Warning -- explicit consideration of  26 degrees of freedom as
           vibrations may cause significant error
 Vibrational temperatures:     20.71    54.12    66.45    86.43    93.26
          (Kelvin)            126.65   137.58   196.44   216.37   231.05
                              265.56   328.96   355.38   386.92   421.58
                              437.75   469.40   500.82   548.13   573.19
                              626.91   635.26   658.80   740.51   834.85
                              881.25  1032.59  1081.45  1110.82  1136.67
                             1202.02  1237.63  1251.38  1299.65  1307.18
                             1328.83  1342.11  1389.03  1418.32  1471.83
                             1485.93  1505.58  1523.26  1568.15  1578.38
                             1583.89  1616.08  1634.10  1638.69  1659.36
                             1677.86  1690.30  1753.40  1792.37  1798.87
                             1826.62  1834.69  1854.45  1882.49  1922.46
                             1935.02  1964.99  1983.03  1997.54  2007.62
                             2014.26  2018.04  2035.42  2037.97  2044.50
                             2059.72  2073.57  2078.31  2082.57  2100.29
                             2164.15  2177.14  2179.92  2184.51  2191.70
                             2200.14  2201.85  2203.22  2208.24  2212.44
                             2216.08  2223.24  2229.17  4304.96  4315.99
                             4321.77  4355.32  4359.05  4366.66  4372.02
                             4378.67  4379.77  4380.71  4385.19  4391.69
                             4400.50  4403.85  4406.01  4416.41  4433.00
                             4436.36  4448.01  4455.18  4467.36  4469.24
                             4475.56  4485.33  4515.94  5351.66

 Zero-point correction=                           0.373417 (Hartree/Particle)
 Thermal correction to Energy=                    0.390984
 Thermal correction to Enthalpy=                  0.391929
 Thermal correction to Gibbs Free Energy=         0.326081
 Sum of electronic and zero-point Energies=           -623.064294
 Sum of electronic and thermal Energies=              -623.046727
 Sum of electronic and thermal Enthalpies=            -623.045783
 Sum of electronic and thermal Free Energies=         -623.111630

                     E (Thermal)             CV                S
                      KCal/Mol        Cal/Mol-Kelvin    Cal/Mol-Kelvin
 Total                  245.346             64.251            138.587
 Electronic               0.000              0.000              0.000
 Translational            0.889              2.981             41.817
 Rotational               0.889              2.981             32.586
 Vibrational            243.569             58.289             64.184
 Vibration     1          0.593              1.986              7.287
 Vibration     2          0.594              1.982              5.381
 Vibration     3          0.595              1.979              4.974
 Vibration     4          0.597              1.973              4.455
 Vibration     5          0.597              1.971              4.305
 Vibration     6          0.601              1.958              3.703
 Vibration     7          0.603              1.952              3.542
 Vibration     8          0.614              1.917              2.852
 Vibration     9          0.618              1.902              2.667
 Vibration    10          0.622              1.891              2.543
 Vibration    11          0.631              1.861              2.282
 Vibration    12          0.651              1.797              1.890
 Vibration    13          0.661              1.768              1.752
 Vibration    14          0.673              1.730              1.603
 Vibration    15          0.688              1.687              1.456
 Vibration    16          0.695              1.666              1.393
 Vibration    17          0.710              1.623              1.279
 Vibration    18          0.726              1.579              1.175
 Vibration    19          0.751              1.511              1.035
 Vibration    20          0.765              1.474              0.969
 Vibration    21          0.796              1.392              0.840
 Vibration    22          0.801              1.380              0.822
 Vibration    23          0.816              1.343              0.772
 Vibration    24          0.870              1.217              0.622
 Vibration    25          0.937              1.074              0.485
 Vibration    26          0.972              1.005              0.429

 Optimization completed.
    -- Stationary point found.
 Normal termination of Gaussian 16 at Thu Dec 10 10:33:15 2020.

 ----------------------------------------------------------------------
 # B3LYP/6-311++G(d,p) empiricaldispersion=gd3bj scf=xqc pop=npa geom=c
 heck
 ----------------------------------------------------------------------

 --------------------------------------
 CID_88442291_JID_4653_Energie_neutraal
 --------------------------------------
 Structure from the checkpoint file:  "JID_4653.chk"
 Charge =  0 Multiplicity = 1

 SCF Done:  E(RB3LYP) =  -623.627056463     A.U. after   13 cycles
 Normal termination of Gaussian 16 at Thu Dec 10 10:39:17 2020.

 ----------------------------------------------------------------------
 # B3LYP/6-311++G(d,p) empiricaldispersion=gd3bj scf=xqc pop=npa geom=c
 heck
 ----------------------------------------------------------------------

 ------------------------------------
 CID_88442291_JID_4653_Energie_kation
 ------------------------------------
 Structure from the checkpoint file:  "JID_4653.chk"
 Charge =  1 Multiplicity = 2

 SCF Done:  E(UB3LYP) =  -623.292272363     A.U. after   25 cycles
 Normal termination of Gaussian 16 at Thu Dec 10 10:57:27 2020.
 Gaussian 16:  ES64L-G16RevA.03 25-Dec-2016

 ----------------------------------------------------------------------
 # B3LYP/6-311++G(d,p) empiricaldispersion=gd3bj scf=xqc pop=npa geom=c
 heck
 ----------------------------------------------------------------------

 -----------------------------------
 CID_88442291_JID_4653_Energie_anion
 -----------------------------------
 Structure from the checkpoint file:  "JID_4653.chk"
 Charge = -1 Multiplicity = 2

                         Standard orientation:
 ---------------------------------------------------------------------
 Center     Atomic      Atomic             Coordinates (Angstroms)
 Number     Number       Type             X           Y           Z
 ---------------------------------------------------------------------
      1          6           0        4.369909    0.871712    0.673897
      2          6           0        3.615951    0.416187   -0.578799
      3          6           0        3.058320   -1.012278   -0.485136
      4          6           0        2.073777   -1.254215    0.671968
      5          6           0        0.870008   -0.300600    0.713590
      6          6           0        0.010176   -0.292895   -0.556112
      7          6           0       -0.620113   -1.645601   -0.907554
      8          6           0       -1.381109   -2.376866    0.210709
      9          6           0       -2.594307   -1.647580    0.809656
     10          6           0       -3.673092   -1.283450   -0.213294
     11          8           0       -1.047896    0.669786   -0.428231
     12          6           0       -0.690791    2.005076   -0.749803
     13          6           0       -1.864727    2.870569   -0.321648
     14          8           0       -2.110146    2.736438    1.066877
     15          1           0        3.710529    0.926492    1.547199
     16          1           0        4.809819    1.864815    0.531058
     17          1           0        5.183535    0.177187    0.917107
     18          1           0        2.800179    1.120887   -0.789192
     19          1           0        4.288461    0.469966   -1.444763
     20          1           0        2.576244   -1.267332   -1.438289
     21          1           0        3.896861   -1.713856   -0.376407
     22          1           0        1.719413   -2.291332    0.617904
     23          1           0        2.608122   -1.172205    1.626465
     24          1           0        0.229416   -0.559305    1.564284
     25          1           0        1.221479    0.720876    0.901099
     26          1           0        0.631581    0.010585   -1.412335
     27          1           0       -1.279998   -1.483106   -1.767351
     28          1           0        0.184188   -2.304124   -1.260388
     29          1           0       -1.720922   -3.338454   -0.199026
     30          1           0       -0.683757   -2.628888    1.020166
     31          1           0       -3.029033   -2.294008    1.583965
     32          1           0       -2.260261   -0.736649    1.319448
     33          1           0       -3.998700   -2.166718   -0.777644
     34          1           0       -4.555603   -0.861343    0.280841
     35          1           0       -3.301144   -0.540016   -0.923722
     36          1           0        0.211527    2.314312   -0.202760
     37          1           0       -0.493638    2.105016   -1.829774
     38          1           0       -1.644175    3.925963   -0.511973
     39          1           0       -2.750592    2.593256   -0.915947
     40          1           0       -2.133187    1.777836    1.226023
 ---------------------------------------------------------------------

 SCF Done:  E(UB3LYP) =  -623.613006136     A.U. after   27 cycles

 The electronic state is 2-A.
 Alpha  occ. eigenvalues --  -19.03367 -19.03219 -10.12744 -10.12639 -10.12537
 Alpha  occ. eigenvalues --  -10.07099 -10.07084 -10.07055 -10.07040 -10.06920
 Alpha  occ. eigenvalues --  -10.06646 -10.06603 -10.06164 -10.06134  -0.95386
 Alpha  occ. eigenvalues --   -0.92792  -0.72592  -0.70349  -0.67705  -0.64961
 Alpha  occ. eigenvalues --   -0.63245  -0.59734  -0.57199  -0.53860  -0.52907
 Alpha  occ. eigenvalues --   -0.49821  -0.46743  -0.44894  -0.42137  -0.41565
 Alpha  occ. eigenvalues --   -0.39744  -0.37810  -0.36380  -0.35880  -0.35645
 Alpha  occ. eigenvalues --   -0.34468  -0.33305  -0.32990  -0.31501  -0.30800
 Alpha  occ. eigenvalues --   -0.30230  -0.29200  -0.28631  -0.27801  -0.27174
 Alpha  occ. eigenvalues --   -0.26418  -0.25921  -0.24698  -0.24560  -0.23588
 Alpha  occ. eigenvalues --   -0.23152  -0.22697  -0.22403  -0.21943  -0.20869
 Alpha  occ. eigenvalues --   -0.18873  -0.16876   0.04270
 Alpha virt. eigenvalues --    0.06121   0.06392   0.07079   0.07966   0.08266
 Alpha virt. eigenvalues --    0.08501   0.09005   0.09491   0.10237   0.10393
 Alpha virt. eigenvalues --    0.10566   0.11348   0.11728   0.11992   0.12531

  Beta  occ. eigenvalues --  -19.03358 -19.03215 -10.12732 -10.12632 -10.12517
  Beta  occ. eigenvalues --  -10.07091 -10.07071 -10.07040 -10.07033 -10.06902
  Beta  occ. eigenvalues --  -10.06624 -10.06582 -10.06147 -10.06105  -0.95374
  Beta  occ. eigenvalues --   -0.92783  -0.72567  -0.70318  -0.67678  -0.64928
  Beta  occ. eigenvalues --   -0.63212  -0.59693  -0.57158  -0.53813  -0.52859
  Beta  occ. eigenvalues --   -0.49772  -0.46687  -0.44845  -0.42113  -0.41538
  Beta  occ. eigenvalues --   -0.39716  -0.37780  -0.36352  -0.35845  -0.35613
  Beta  occ. eigenvalues --   -0.34444  -0.33282  -0.32957  -0.31468  -0.30770
  Beta  occ. eigenvalues --   -0.30202  -0.29163  -0.28606  -0.27773  -0.27141
  Beta  occ. eigenvalues --   -0.26389  -0.25894  -0.24676  -0.24533  -0.23559
  Beta  occ. eigenvalues --   -0.23118  -0.22668  -0.22363  -0.21908  -0.20837
  Beta  occ. eigenvalues --   -0.18855  -0.16861
  Beta virt. eigenvalues --    0.06242   0.06857   0.06982   0.07567   0.08346
  Beta virt. eigenvalues --    0.08635   0.08862   0.09381   0.09830   0.10501
  Beta virt. eigenvalues --    0.10666   0.10945   0.11738   0.11997   0.12182

 Mulliken charges and spin densities:
               1          2
     1  C    1.023039  -1.659325
     2  C   -0.559406   0.390966
     3  C    0.611064  -0.899453
     4  C   -0.027374  -0.353371
     5  C    0.164894  -0.044933
     6  C   -0.627746   0.079706
     7  C   -0.157087  -0.201117
     8  C    0.247124  -0.668360
     9  C   -0.527483   0.554764
    10  C    0.335319  -1.028466
    11  O   -0.037131   0.021628
    12  C    0.174403  -0.097992
    13  C    0.268035  -0.804873
    14  O   -0.232892   0.008256
    15  H   -0.109468   0.241634
    16  H   -0.245477   0.387141
    17  H   -0.064822   0.201067
    18  H   -0.181828   0.334975
    19  H   -0.519147   0.683996
    20  H   -0.181067   0.325974
    21  H   -0.264539   0.428949
    22  H    0.063076   0.094379
    23  H   -0.014585   0.177362
    24  H    0.130045   0.040756
    25  H    0.191445  -0.016464
    26  H    0.222577  -0.024644
    27  H   -0.170444   0.348227
    28  H   -0.156109   0.332775
    29  H   -0.231738   0.397705
    30  H   -0.101219   0.234547
    31  H   -0.087492   0.248612
    32  H    0.109609  -0.024800
    33  H   -0.071941   0.205435
    34  H    0.022230   0.099838
    35  H    0.173365  -0.012288
    36  H    0.210665  -0.080741
    37  H   -0.517070   0.653185
    38  H   -0.122377   0.287196
    39  H    0.050429   0.106611
    40  H    0.211123   0.031144
 Sum of Mulliken charges =  -1.00000   1.00000

 Dipole moment (field-independent basis, Debye):
    X=             -3.6752    Y=             -0.0689    Z=              2.6319  Tot=              4.5209
 Quadrupole moment (field-independent basis, Debye-Ang):
   XX=           -176.5148   YY=           -149.3312   ZZ=           -130.1529
   XY=             -4.3505   XZ=              5.4272   YZ=             -2.5121

 Summary of Natural Population Analysis:

                                       Natural Population
                Natural  -----------------------------------------------
    Atom  No    Charge         Core      Valence    Rydberg      Total
 -----------------------------------------------------------------------
      C    1   -0.28749      0.99967     2.28198    0.00584     3.28749
      C    2   -0.19286      0.99964     2.18506    0.00816     3.19286
      C    3   -0.18975      0.99963     2.18158    0.00854     3.18975
      C    4   -0.19224      0.99962     2.18420    0.00842     3.19224
      C    5   -0.20477      0.99960     2.19725    0.00792     3.20477
      C    6    0.06921      0.99953     1.91740    0.01386     2.93079
      C    7   -0.19933      0.99960     2.18955    0.01018     3.19933
      C    8   -0.19044      0.99962     2.18189    0.00892     3.19044
      C    9   -0.19184      0.99964     2.18313    0.00907     3.19184
      C   10   -0.28822      0.99966     2.28417    0.00438     3.28822
      O   11   -0.32088      0.99987     3.30865    0.01236     4.32088
      C   12   -0.02075      0.99958     2.00894    0.01222     3.02075
      C   13   -0.01721      0.99961     2.00462    0.01299     3.01721
      O   14   -0.37025      0.99990     3.36365    0.00670     4.37025
      H   15    0.09442      0.00000     0.40463    0.00094     0.40558
      H   16    0.10014      0.00000     0.39888    0.00098     0.39986
      H   17    0.09568      0.00000     0.40330    0.00102     0.40432
      H   18    0.09223      0.00000     0.40596    0.00180     0.40777
      H   19    0.09826      0.00000     0.40013    0.00160     0.40174
      H   20    0.09692      0.00000     0.40156    0.00151     0.40308
      H   21    0.09680      0.00000     0.40200    0.00120     0.40320
      H   22    0.09825      0.00000     0.40055    0.00120     0.40175
      H   23    0.09704      0.00000     0.40197    0.00099     0.40296
      H   24    0.09979      0.00000     0.39900    0.00121     0.40021
      H   25    0.09963      0.00000     0.39885    0.00152     0.40037
      H   26    0.08555      0.00000     0.41183    0.00262     0.41445
      H   27    0.10271      0.00000     0.39593    0.00137     0.39729
      H   28    0.10403      0.00000     0.39478    0.00119     0.39597
      H   29    0.09723      0.00000     0.40162    0.00115     0.40277
      H   30    0.09591      0.00000     0.40285    0.00124     0.40409
      H   31    0.09196      0.00000     0.40706    0.00099     0.40804
      H   32    0.09282      0.00000     0.40535    0.00183     0.40718
      H   33    0.09347      0.00000     0.40545    0.00108     0.40653
      H   34    0.09544      0.00000     0.40368    0.00088     0.40456
      H   35    0.10402      0.00000     0.39451    0.00147     0.39598
      H   36    0.08275      0.00000     0.41561    0.00165     0.41725
      H   37    0.08520      0.00000     0.41308    0.00173     0.41480
      H   38    0.08725      0.00000     0.41167    0.00108     0.41275
      H   39    0.07720      0.00000     0.42143    0.00137     0.42280
      H   40    0.23210      0.00000     0.26455    0.00335     0.26790
 =======================================================================
   * Total *   -0.00000     13.99516    42.83830    0.16654    57.00000

 Normal termination of Gaussian 16 at Thu Dec 10 11:15:11 2020.
