 Gaussian 16, Revision A.03,

 -----------------------------------------------------------
 # opt freq B3LYP/6-31G(d) empiricaldispersion=gd3bj scf=xqc
 -----------------------------------------------------------

 ------------------------------
 CID_89267406_JID_3597_neutraal
 ------------------------------
 Symbolic Z-matrix:
 Charge =  0 Multiplicity = 1

 SCF Done:  E(RB3LYP) =  -699.082885298     A.U. after   15 cycles
 SCF Done:  E(RB3LYP) =  -699.099992972     A.U. after   13 cycles
 SCF Done:  E(RB3LYP) =  -699.109721423     A.U. after   14 cycles
 SCF Done:  E(RB3LYP) =  -699.114155421     A.U. after   13 cycles
 SCF Done:  E(RB3LYP) =  -699.113063083     A.U. after   13 cycles
 SCF Done:  E(RB3LYP) =  -699.116024898     A.U. after   12 cycles
 SCF Done:  E(RB3LYP) =  -699.116942241     A.U. after   12 cycles
 SCF Done:  E(RB3LYP) =  -699.117353462     A.U. after   12 cycles
 SCF Done:  E(RB3LYP) =  -699.117518736     A.U. after   12 cycles
 SCF Done:  E(RB3LYP) =  -699.117591833     A.U. after   11 cycles
 SCF Done:  E(RB3LYP) =  -699.117646566     A.U. after    9 cycles
 SCF Done:  E(RB3LYP) =  -699.117647108     A.U. after    9 cycles
 SCF Done:  E(RB3LYP) =  -699.117647499     A.U. after    8 cycles
 SCF Done:  E(RB3LYP) =  -699.117647793     A.U. after    8 cycles
 SCF Done:  E(RB3LYP) =  -699.117647899     A.U. after    7 cycles
 Optimization completed.
    -- Stationary point found.
 Normal termination of Gaussian 16 at Wed Dec  9 23:31:36 2020.

 --------------------------------------------------------------------
 #N Geom=AllCheck Guess=TCheck SCRF=Check GenChk RB3LYP/6-31G(d) Freq
 --------------------------------------------------------------------

 Structure from the checkpoint file:  "JID_3597.chk"
 ------------------------------
 CID_89267406_JID_3597_neutraal
 ------------------------------
 Charge =  0 Multiplicity = 1

 SCF Done:  E(RB3LYP) =  -699.117647899     A.U. after    1 cycles

  Exact polarizability: 121.323  -0.280  96.303  -2.176  -1.929  67.404
 Approx polarizability: 157.857  -3.972 170.100  -7.466  -6.098 101.762

                      1                      2                      3
                      A                      A                      A
 Frequencies --     22.6709                66.4106                74.0787
 Red. masses --      6.9451                 6.6272                 5.6753
 Frc consts  --      0.0021                 0.0172                 0.0183
 IR Inten    --      1.7948                 1.7742                 0.0666

                      4                      5                      6
                      A                      A                      A
 Frequencies --    113.2346               154.2976               166.1140
 Red. masses --      4.6934                 1.9875                 3.0819
 Frc consts  --      0.0355                 0.0279                 0.0501
 IR Inten    --      2.5389                 1.1294                 1.5644

                      7                      8                      9
                      A                      A                      A
 Frequencies --    187.5240               215.0929               244.6338
 Red. masses --      3.7150                 2.3579                 4.2626
 Frc consts  --      0.0770                 0.0643                 0.1503
 IR Inten    --      2.8300                 2.9480                 4.7945

                     10                     11                     12
                      A                      A                      A
 Frequencies --    295.6145               336.1766               344.5092
 Red. masses --      3.0505                 1.4829                 2.2050
 Frc consts  --      0.1571                 0.0987                 0.1542
 IR Inten    --      7.8083                79.4829                13.5172

                     13                     14                     15
                      A                      A                      A
 Frequencies --    347.0311               407.0523               432.9683
 Red. masses --      2.7947                 2.8745                 3.7579
 Frc consts  --      0.1983                 0.2806                 0.4151
 IR Inten    --      7.9380                10.0882                22.0210

                     16                     17                     18
                      A                      A                      A
 Frequencies --    483.2986               530.0441               597.2252
 Red. masses --      1.6735                 4.1009                 4.0857
 Frc consts  --      0.2303                 0.6788                 0.8586
 IR Inten    --     98.6123                44.6891                44.5213

                     19                     20                     21
                      A                      A                      A
 Frequencies --    634.1129               690.9638               711.3937
 Red. masses --      5.3062                 5.9331                 6.2111
 Frc consts  --      1.2571                 1.6689                 1.8520
 IR Inten    --      8.7762                 1.5932                 7.9325

                     22                     23                     24
                      A                      A                      A
 Frequencies --    748.6462               768.9435               808.4500
 Red. masses --      4.8814                 5.2741                 5.3606
 Frc consts  --      1.6119                 1.8373                 2.0643
 IR Inten    --      9.9074                 9.5213                31.5792

                     25                     26                     27
                      A                      A                      A
 Frequencies --    840.1407               883.3411               896.5370
 Red. masses --      1.3727                10.7101                 6.5317
 Frc consts  --      0.5709                 4.9238                 3.0932
 IR Inten    --     21.2926                84.2541                43.9572

                     28                     29                     30
                      A                      A                      A
 Frequencies --    951.1072              1004.0773              1028.6231
 Red. masses --      7.4905                 2.1823                 2.6466
 Frc consts  --      3.9922                 1.2963                 1.6499
 IR Inten    --     42.6337                20.3242                44.7404

                     31                     32                     33
                      A                      A                      A
 Frequencies --   1039.0711              1166.8156              1176.9628
 Red. masses --      1.6637                 1.4245                 1.6850
 Frc consts  --      1.0583                 1.1427                 1.3752
 IR Inten    --      2.0706                 4.3905                47.0020

                     34                     35                     36
                      A                      A                      A
 Frequencies --   1204.9481              1213.5925              1246.8212
 Red. masses --      2.2412                 3.4222                 4.7416
 Frc consts  --      1.9172                 2.9696                 4.3430
 IR Inten    --     13.4959               321.0787                 6.5932

                     37                     38                     39
                      A                      A                      A
 Frequencies --   1311.3412              1319.8944              1402.9429
 Red. masses --      1.8513                 1.9532                 1.3288
 Frc consts  --      1.8757                 2.0048                 1.5409
 IR Inten    --     12.8177                 9.4574                12.7052

                     40                     41                     42
                      A                      A                      A
 Frequencies --   1409.5941              1420.5027              1424.7894
 Red. masses --      1.2406                 1.1868                 3.5422
 Frc consts  --      1.4524                 1.4110                 4.2366
 IR Inten    --     41.6350                 5.3863                 4.3476

                     43                     44                     45
                      A                      A                      A
 Frequencies --   1444.4983              1463.0177              1500.1343
 Red. masses --      1.3050                 1.7209                 1.2264
 Frc consts  --      1.6043                 2.1702                 1.6260
 IR Inten    --     62.7180                15.4543                17.6573

                     46                     47                     48
                      A                      A                      A
 Frequencies --   1521.6304              1528.0937              1536.6670
 Red. masses --      3.0490                 1.8021                 1.1688
 Frc consts  --      4.1593                 2.4793                 1.6261
 IR Inten    --     16.5358                35.3899                 5.4363

                     49                     50                     51
                      A                      A                      A
 Frequencies --   1542.4036              1596.0892              1810.7241
 Red. masses --      1.2767                 5.2116                 8.9443
 Frc consts  --      1.7896                 7.8223                17.2782
 IR Inten    --      6.4522                12.0963               258.2971

                     52                     53                     54
                      A                      A                      A
 Frequencies --   3077.4200              3082.8372              3124.0953
 Red. masses --      1.0890                 1.0379                 1.0586
 Frc consts  --      6.0762                 5.8116                 6.0871
 IR Inten    --     82.1373                17.8438                10.5436

                     55                     56                     57
                      A                      A                      A
 Frequencies --   3155.1293              3187.5159              3199.0565
 Red. masses --      1.1021                 1.1092                 1.1058
 Frc consts  --      6.4640                 6.6400                 6.6676
 IR Inten    --      6.0560                 2.0260                 6.9159

                     58                     59                     60
                      A                      A                      A
 Frequencies --   3291.6143              3561.4026              3735.6432
 Red. masses --      1.0972                 1.0667                 1.0678
 Frc consts  --      7.0041                 7.9717                 8.7795
 IR Inten    --      2.1443                 4.6325                63.0427

 - Thermochemistry -
 -------------------
 Temperature   298.150 Kelvin.  Pressure   1.00000 Atm.
 Atom     1 has atomic number  6 and mass  12.00000

 Molecular mass:   187.05931 amu.
 Principal axes and moments of inertia in atomic units:
                           1         2         3
     Eigenvalues --  1062.502823926.957944529.19468
           X            1.00000   0.00000  -0.00256
           Y           -0.00002   0.99998  -0.00620
           Z            0.00256   0.00620   0.99998
 This molecule is an asymmetric top.
 Rotational symmetry number  1.
 Warning -- assumption of classical behavior for rotation
           may cause significant error
 Rotational temperatures (Kelvin)      0.08152     0.02206     0.01912
 Rotational constants (GHZ):           1.69858     0.45958     0.39847
 Zero-point vibrational energy     440701.7 (Joules/Mol)
                                  105.33022 (Kcal/Mol)
 Warning -- explicit consideration of  18 degrees of freedom as
           vibrations may cause significant error
 Vibrational temperatures:     32.62    95.55   106.58   162.92   222.00
          (Kelvin)            239.00   269.81   309.47   351.97   425.32
                              483.68   495.67   499.30   585.66   622.94
                              695.36   762.62   859.27   912.35   994.14
                             1023.54  1077.13  1106.34  1163.18  1208.78
                             1270.93  1289.92  1368.43  1444.64  1479.96
                             1494.99  1678.79  1693.39  1733.65  1746.09
                             1793.90  1886.73  1899.03  2018.52  2028.09
                             2043.79  2049.95  2078.31  2104.96  2158.36
                             2189.29  2198.59  2210.92  2219.17  2296.42
                             2605.23  4427.72  4435.52  4494.88  4539.53
                             4586.12  4602.73  4735.90  5124.06  5374.76

 Zero-point correction=                           0.167854 (Hartree/Particle)
 Thermal correction to Energy=                    0.180578
 Thermal correction to Enthalpy=                  0.181523
 Thermal correction to Gibbs Free Energy=         0.127627
 Sum of electronic and zero-point Energies=           -698.949794
 Sum of electronic and thermal Energies=              -698.937069
 Sum of electronic and thermal Enthalpies=            -698.936125
 Sum of electronic and thermal Free Energies=         -698.990021

                     E (Thermal)             CV                S
                      KCal/Mol        Cal/Mol-Kelvin    Cal/Mol-Kelvin
 Total                  113.315             45.967            113.433
 Electronic               0.000              0.000              0.000
 Translational            0.889              2.981             41.585
 Rotational               0.889              2.981             31.314
 Vibrational            111.537             40.005             40.534
 Vibration     1          0.593              1.985              6.385
 Vibration     2          0.598              1.970              4.257
 Vibration     3          0.599              1.966              4.042
 Vibration     4          0.607              1.938              3.213
 Vibration     5          0.620              1.898              2.619
 Vibration     6          0.624              1.884              2.479
 Vibration     7          0.632              1.857              2.252
 Vibration     8          0.645              1.818              2.000
 Vibration     9          0.660              1.772              1.769
 Vibration    10          0.690              1.682              1.442
 Vibration    11          0.717              1.603              1.230
 Vibration    12          0.723              1.586              1.191
 Vibration    13          0.725              1.581              1.180
 Vibration    14          0.772              1.455              0.937
 Vibration    15          0.794              1.398              0.849
 Vibration    16          0.839              1.287              0.701
 Vibration    17          0.885              1.184              0.587
 Vibration    18          0.955              1.038              0.454

 Optimization completed.
    -- Stationary point found.
 Normal termination of Gaussian 16 at Wed Dec  9 23:36:59 2020.

 ----------------------------------------------------------------------
 # B3LYP/6-311++G(d,p) empiricaldispersion=gd3bj scf=xqc pop=npa geom=c
 heck
 ----------------------------------------------------------------------

 --------------------------------------
 CID_89267406_JID_3597_Energie_neutraal
 --------------------------------------
 Structure from the checkpoint file:  "JID_3597.chk"
 Charge =  0 Multiplicity = 1

 SCF Done:  E(RB3LYP) =  -699.336271613     A.U. after   14 cycles
 Normal termination of Gaussian 16 at Wed Dec  9 23:39:07 2020.

 ----------------------------------------------------------------------
 # B3LYP/6-311++G(d,p) empiricaldispersion=gd3bj scf=xqc pop=npa geom=c
 heck
 ----------------------------------------------------------------------

 ------------------------------------
 CID_89267406_JID_3597_Energie_kation
 ------------------------------------
 Structure from the checkpoint file:  "JID_3597.chk"
 Charge =  1 Multiplicity = 2

 SCF Done:  E(UB3LYP) =  -699.025394645     A.U. after   24 cycles
 Normal termination of Gaussian 16 at Wed Dec  9 23:44:14 2020.
 Gaussian 16:  ES64L-G16RevA.03 25-Dec-2016

 ----------------------------------------------------------------------
 # B3LYP/6-311++G(d,p) empiricaldispersion=gd3bj scf=xqc pop=npa geom=c
 heck
 ----------------------------------------------------------------------

 -----------------------------------
 CID_89267406_JID_3597_Energie_anion
 -----------------------------------
 Structure from the checkpoint file:  "JID_3597.chk"
 Charge = -1 Multiplicity = 2

                         Standard orientation:
 ---------------------------------------------------------------------
 Center     Atomic      Atomic             Coordinates (Angstroms)
 Number     Number       Type             X           Y           Z
 ---------------------------------------------------------------------
      1          6           0        0.068350    1.689253   -0.370715
      2          7           0       -0.194019    0.261222   -0.219434
      3          6           0       -1.410927   -0.283453    0.129373
      4          6           0       -1.260026   -1.652593    0.100604
      5          7           0        0.021831   -1.962649   -0.267184
      6          6           0        0.640197   -0.807172   -0.460213
      7          6           0        2.068522   -0.705726   -0.864105
      8          8           0        2.969994   -0.778079    0.285730
      9          6           0        3.446818    0.371121    0.771402
     10          8           0        3.207666    1.487197    0.369004
     11          7           0       -2.495315    0.574752    0.441031
     12          8           0       -3.530335   -0.273950    0.917616
     13          8           0       -2.966524    1.185633   -0.765575
     14          1           0       -0.282135    2.040538   -1.345194
     15          1           0       -0.481652    2.224158    0.405641
     16          1           0        1.135706    1.872894   -0.256264
     17          1           0       -1.993368   -2.405655    0.345300
     18          1           0        2.320414   -1.586433   -1.452982
     19          1           0        2.289096    0.203816   -1.424192
     20          1           0        4.117551    0.149353    1.614392
     21          1           0       -4.028308    0.317756    1.505769
     22          1           0       -3.168801    0.435321   -1.365648
 ---------------------------------------------------------------------

 SCF Done:  E(UB3LYP) =  -699.324663788     A.U. after   33 cycles
 SCF Done:  E(UB3LYP) =  -699.324663788     a.u. after    1 cycles

 The electronic state is 2-A.
 Alpha  occ. eigenvalues --  -19.08415 -19.05266 -19.04347 -19.03183 -14.31710
 Alpha  occ. eigenvalues --  -14.26546 -14.18921 -10.21272 -10.14456 -10.12015
 Alpha  occ. eigenvalues --  -10.11972 -10.09629 -10.07659  -1.02200  -1.01675
 Alpha  occ. eigenvalues --   -0.94062  -0.91618  -0.90251  -0.78408  -0.71695
 Alpha  occ. eigenvalues --   -0.67333  -0.61379  -0.58977  -0.52164  -0.49765
 Alpha  occ. eigenvalues --   -0.47082  -0.44584  -0.43729  -0.42547  -0.39738
 Alpha  occ. eigenvalues --   -0.38512  -0.37848  -0.36257  -0.34797  -0.33362
 Alpha  occ. eigenvalues --   -0.32974  -0.32158  -0.30159  -0.29432  -0.28293
 Alpha  occ. eigenvalues --   -0.27242  -0.23073  -0.22401  -0.20722  -0.20212
 Alpha  occ. eigenvalues --   -0.18236  -0.16948  -0.15644  -0.11610   0.04969
 Alpha virt. eigenvalues --    0.07022   0.07184   0.07766   0.08856   0.09482
 Alpha virt. eigenvalues --    0.10519   0.11005   0.11583   0.12416   0.13102
 Alpha virt. eigenvalues --    0.13733   0.14717   0.15587   0.15876   0.16818

  Beta  occ. eigenvalues --  -19.08365 -19.05197 -19.04262 -19.03130 -14.31678
  Beta  occ. eigenvalues --  -14.26472 -14.18910 -10.21198 -10.14441 -10.11951
  Beta  occ. eigenvalues --  -10.11946 -10.09608 -10.07646  -1.02083  -1.01522
  Beta  occ. eigenvalues --   -0.93959  -0.91511  -0.90062  -0.78320  -0.71550
  Beta  occ. eigenvalues --   -0.67205  -0.61321  -0.58868  -0.52039  -0.49670
  Beta  occ. eigenvalues --   -0.46974  -0.44512  -0.43641  -0.42450  -0.39632
  Beta  occ. eigenvalues --   -0.38389  -0.37694  -0.36105  -0.34670  -0.33288
  Beta  occ. eigenvalues --   -0.32874  -0.32020  -0.30084  -0.29355  -0.28166
  Beta  occ. eigenvalues --   -0.27176  -0.22889  -0.22274  -0.20633  -0.20105
  Beta  occ. eigenvalues --   -0.18160  -0.16729  -0.15521  -0.11372
  Beta virt. eigenvalues --    0.07154   0.07705   0.08122   0.08784   0.09344
  Beta virt. eigenvalues --    0.09770   0.11044   0.11409   0.11906   0.12939
  Beta virt. eigenvalues --    0.13147   0.13696   0.14624   0.15582   0.15889

 Mulliken charges and spin densities:
               1          2
     1  C    0.516250  -0.964950
     2  N   -0.185159   0.168446
     3  C   -0.003337  -0.337339
     4  C   -0.366369   0.576779
     5  N   -0.106395   0.012790
     6  C    0.239672   0.062214
     7  C    0.249401  -1.129529
     8  O    0.013259   0.000161
     9  C    0.111371   0.023214
    10  O   -0.310711   0.005626
    11  N   -0.049456  -0.161108
    12  O   -0.119208   0.023074
    13  O   -0.132191   0.042646
    14  H   -0.470014   0.694187
    15  H   -0.084169   0.273281
    16  H    0.310053  -0.158935
    17  H   -0.157183   0.343065
    18  H    0.186395   0.003537
    19  H    0.047342   0.174416
    20  H   -0.012185   0.133150
    21  H   -0.380437   0.679707
    22  H   -0.296929   0.535570
 Sum of Mulliken charges =  -1.00000   1.00000

 Dipole moment (field-independent basis, Debye):
    X=              8.0149    Y=             -1.6469    Z=              0.4848  Tot=              8.1967
 Quadrupole moment (field-independent basis, Debye-Ang):
   XX=           -137.1557   YY=           -108.8022   ZZ=           -100.6478
   XY=              2.5285   XZ=              0.5590   YZ=              3.8720

 Summary of Natural Population Analysis:

                                       Natural Population
                Natural  -----------------------------------------------
    Atom  No    Charge         Core      Valence    Rydberg      Total
 -----------------------------------------------------------------------
      C    1   -0.18553      0.99962     2.17783    0.00807     3.18553
      N    2   -0.18956      0.99958     2.67955    0.01043     3.68956
      C    3    0.14034      0.99945     1.84448    0.01573     2.85966
      C    4   -0.03471      0.99951     2.02138    0.01381     3.03471
      N    5   -0.25069      0.99970     2.74125    0.00974     3.75069
      C    6    0.17367      0.99959     1.80958    0.01716     2.82633
      C    7   -0.04327      0.99950     2.03022    0.01354     3.04327
      O    8   -0.26774      0.99988     3.25957    0.00829     4.26774
      C    9    0.34392      0.99978     1.63192    0.02438     2.65608
      O   10   -0.30391      0.99987     3.29758    0.00646     4.30391
      N   11    0.02315      0.99966     2.45839    0.01880     3.47685
      O   12   -0.28450      0.99990     3.27742    0.00718     4.28450
      O   13   -0.27983      0.99991     3.27227    0.00765     4.27983
      H   14    0.10560      0.00000     0.39202    0.00237     0.39440
      H   15    0.10630      0.00000     0.39227    0.00143     0.39370
      H   16    0.11243      0.00000     0.38616    0.00141     0.38757
      H   17    0.10372      0.00000     0.39494    0.00135     0.39628
      H   18    0.10534      0.00000     0.39340    0.00125     0.39466
      H   19    0.10364      0.00000     0.39528    0.00108     0.39636
      H   20    0.05396      0.00000     0.44421    0.00183     0.44604
      H   21    0.24179      0.00000     0.23954    0.01867     0.25821
      H   22    0.22587      0.00000     0.25676    0.01737     0.27413
 =======================================================================
   * Total *    0.00000     12.99597    35.79604    0.20799    49.00000

 Normal termination of Gaussian 16 at Wed Dec  9 23:51:23 2020.
