 Gaussian 16, Revision A.03,

 -----------------------------------------------------------
 # opt freq B3LYP/6-31G(d) empiricaldispersion=gd3bj scf=xqc
 -----------------------------------------------------------

 -------------------------------
 CID_116539797_JID_5651_neutraal
 -------------------------------
 Symbolic Z-matrix:
 Charge =  0 Multiplicity = 1

 SCF Done:  E(RB3LYP) =  -961.022269583     A.U. after   14 cycles
 SCF Done:  E(RB3LYP) =  -961.025957455     A.U. after   12 cycles
 SCF Done:  E(RB3LYP) =  -961.026427424     A.U. after   11 cycles
 SCF Done:  E(RB3LYP) =  -961.026664172     A.U. after   11 cycles
 SCF Done:  E(RB3LYP) =  -961.026794522     A.U. after   11 cycles
 SCF Done:  E(RB3LYP) =  -961.026876517     A.U. after   11 cycles
 SCF Done:  E(RB3LYP) =  -961.026884280     A.U. after    9 cycles
 SCF Done:  E(RB3LYP) =  -961.026887397     A.U. after    9 cycles
 SCF Done:  E(RB3LYP) =  -961.026887672     A.U. after    7 cycles
 SCF Done:  E(RB3LYP) =  -961.026887733     A.U. after    7 cycles
 SCF Done:  E(RB3LYP) =  -961.026887762     A.U. after    6 cycles
 Optimization completed.
    -- Stationary point found.
 Normal termination of Gaussian 16 at Thu Dec 10 16:32:37 2020.

 --------------------------------------------------------------------
 #N Geom=AllCheck Guess=TCheck SCRF=Check GenChk RB3LYP/6-31G(d) Freq
 --------------------------------------------------------------------

 Structure from the checkpoint file:  "JID_5651.chk"
 -------------------------------
 CID_116539797_JID_5651_neutraal
 -------------------------------
 Charge =  0 Multiplicity = 1

 SCF Done:  E(RB3LYP) =  -961.026887762     A.U. after    1 cycles

  Exact polarizability: 201.001  -0.108 149.574   2.884   2.591 110.894
 Approx polarizability: 254.562  -4.046 248.375   5.518   7.440 172.150

                      1                      2                      3
                      A                      A                      A
 Frequencies --     25.7742                40.3274                53.3863
 Red. masses --      4.3185                 3.4713                 3.8102
 Frc consts  --      0.0017                 0.0033                 0.0064
 IR Inten    --      0.1037                 0.1052                 0.2293

                      4                      5                      6
                      A                      A                      A
 Frequencies --     65.0115               112.0309               121.7474
 Red. masses --      2.6520                 3.1105                 2.9582
 Frc consts  --      0.0066                 0.0230                 0.0258
 IR Inten    --      0.4160                 0.1944                 0.8478

                      7                      8                      9
                      A                      A                      A
 Frequencies --    140.7302               180.6131               209.1844
 Red. masses --      2.4829                 2.3045                 2.2495
 Frc consts  --      0.0290                 0.0443                 0.0580
 IR Inten    --      0.4696                 0.3546                 1.2368

                     10                     11                     12
                      A                      A                      A
 Frequencies --    251.4510               256.3813               272.9133
 Red. masses --      1.6562                 1.7980                 1.5269
 Frc consts  --      0.0617                 0.0696                 0.0670
 IR Inten    --      0.6689                 0.7255                 0.2299

                     13                     14                     15
                      A                      A                      A
 Frequencies --    295.8674               313.6845               329.7403
 Red. masses --      2.6025                 2.1935                 2.7670
 Frc consts  --      0.1342                 0.1272                 0.1773
 IR Inten    --      0.9700                 0.1624                 0.1776

                     16                     17                     18
                      A                      A                      A
 Frequencies --    404.7551               405.3035               432.8997
 Red. masses --      2.3359                 2.6292                 2.8044
 Frc consts  --      0.2255                 0.2545                 0.3096
 IR Inten    --      0.6167                 0.5099                 3.8011

                     19                     20                     21
                      A                      A                      A
 Frequencies --    461.1965               507.0588               537.3394
 Red. masses --      3.3092                 2.1633                 3.8128
 Frc consts  --      0.4147                 0.3277                 0.6486
 IR Inten    --      0.5294                 1.8593                 4.8788

                     22                     23                     24
                      A                      A                      A
 Frequencies --    612.7425               632.6721               662.5845
 Red. masses --      3.3699                 4.1455                 3.6140
 Frc consts  --      0.7455                 0.9776                 0.9348
 IR Inten    --      0.5017                 0.8303                 0.2767

                     25                     26                     27
                      A                      A                      A
 Frequencies --    700.2029               740.6046               751.3731
 Red. masses --      1.2009                 4.2989                 3.7443
 Frc consts  --      0.3469                 1.3892                 1.2455
 IR Inten    --     55.3489                 1.9051                 3.7445

                     28                     29                     30
                      A                      A                      A
 Frequencies --    770.7242               804.6040               832.3212
 Red. masses --      1.6017                 1.3094                 1.8232
 Frc consts  --      0.5606                 0.4994                 0.7441
 IR Inten    --      4.0608                40.9275                 6.1264

                     31                     32                     33
                      A                      A                      A
 Frequencies --    833.3984               836.9474               864.2462
 Red. masses --      2.6149                 1.4382                 2.4443
 Frc consts  --      1.0701                 0.5936                 1.0757
 IR Inten    --      7.9234                10.7663                 3.2949

                     34                     35                     36
                      A                      A                      A
 Frequencies --    872.2593               896.8794               904.7804
 Red. masses --      3.2336                 2.5002                 1.3215
 Frc consts  --      1.4496                 1.1849                 0.6374
 IR Inten    --      3.4623                 1.0277                 0.6279

                     37                     38                     39
                      A                      A                      A
 Frequencies --    918.6989               941.2910               962.4029
 Red. masses --      1.4604                 1.7386                 1.7495
 Frc consts  --      0.7262                 0.9076                 0.9547
 IR Inten    --      2.5557                 9.7270                 0.4222

                     40                     41                     42
                      A                      A                      A
 Frequencies --    993.4846              1012.7915              1033.9111
 Red. masses --      1.8764                 1.6385                 2.0879
 Frc consts  --      1.0912                 0.9902                 1.3150
 IR Inten    --      2.3919                 7.2692                 1.1722

                     43                     44                     45
                      A                      A                      A
 Frequencies --   1057.2010              1058.6823              1073.4092
 Red. masses --      2.0450                 1.9118                 2.0345
 Frc consts  --      1.3467                 1.2625                 1.3811
 IR Inten    --      3.2866                15.7033                 8.1815

                     46                     47                     48
                      A                      A                      A
 Frequencies --   1085.8081              1100.5530              1120.8148
 Red. masses --      1.7998                 1.7944                 1.1965
 Frc consts  --      1.2502                 1.2806                 0.8856
 IR Inten    --      9.8484                 4.2455                 4.6447

                     49                     50                     51
                      A                      A                      A
 Frequencies --   1135.4923              1167.0214              1189.6217
 Red. masses --      2.1822                 1.8397                 2.0635
 Frc consts  --      1.6577                 1.4762                 1.7206
 IR Inten    --     21.9572                 4.7875                10.8119

                     52                     53                     54
                      A                      A                      A
 Frequencies --   1194.0895              1214.6909              1244.0634
 Red. masses --      2.1383                 1.9933                 1.3965
 Frc consts  --      1.7963                 1.7328                 1.2734
 IR Inten    --      6.5039                 5.2148                 3.0109

                     55                     56                     57
                      A                      A                      A
 Frequencies --   1260.6488              1277.7794              1283.8546
 Red. masses --      1.7562                 1.2611                 1.5366
 Frc consts  --      1.6444                 1.2132                 1.4922
 IR Inten    --      3.6765                 8.9832                42.6359

                     58                     59                     60
                      A                      A                      A
 Frequencies --   1289.0038              1316.6772              1329.4372
 Red. masses --      1.5468                 1.2843                 1.3266
 Frc consts  --      1.5142                 1.3118                 1.3814
 IR Inten    --      0.5057                 0.5013                10.6924

                     61                     62                     63
                      A                      A                      A
 Frequencies --   1346.6483              1355.5662              1377.8053
 Red. masses --      1.2472                 1.4390                 1.4581
 Frc consts  --      1.3326                 1.5580                 1.6308
 IR Inten    --     14.1073                 4.3902                 1.2944

                     64                     65                     66
                      A                      A                      A
 Frequencies --   1395.7172              1396.1052              1400.2529
 Red. masses --      1.6336                 1.7759                 1.4818
 Frc consts  --      1.8750                 2.0394                 1.7118
 IR Inten    --      3.5143                 6.1370                28.3693

                     67                     68                     69
                      A                      A                      A
 Frequencies --   1421.2573              1438.8344              1444.8533
 Red. masses --      1.3918                 1.2172                 1.2710
 Frc consts  --      1.6565                 1.4847                 1.5633
 IR Inten    --      9.0993                 8.6195                 4.4211

                     70                     71                     72
                      A                      A                      A
 Frequencies --   1500.0857              1506.4002              1509.7752
 Red. masses --      1.1717                 4.4409                 1.0832
 Frc consts  --      1.5534                 5.9374                 1.4548
 IR Inten    --     17.0188                 7.8469                 2.6720

                     73                     74                     75
                      A                      A                      A
 Frequencies --   1514.4536              1518.0667              1522.3144
 Red. masses --      1.1164                 1.1185                 1.0889
 Frc consts  --      1.5086                 1.5187                 1.4868
 IR Inten    --      1.3402                 7.9462                 4.8064

                     76                     77                     78
                      A                      A                      A
 Frequencies --   1530.9743              1539.5329              1540.9172
 Red. masses --      1.0724                 1.0950                 1.0663
 Frc consts  --      1.4810                 1.5292                 1.4918
 IR Inten    --     11.3121                 0.4758                 7.2614

                     79                     80                     81
                      A                      A                      A
 Frequencies --   1546.0645              1546.3693              1601.8720
 Red. masses --      1.0808                 1.0714                 5.3419
 Frc consts  --      1.5221                 1.5095                 8.0761
 IR Inten    --      4.1226                 3.7919                 2.1596

                     82                     83                     84
                      A                      A                      A
 Frequencies --   2915.2197              2939.9708              3042.1331
 Red. masses --      1.0744                 1.0836                 1.0400
 Frc consts  --      5.3798                 5.5183                 5.6709
 IR Inten    --     76.7320                85.8251                17.5519

                     85                     86                     87
                      A                      A                      A
 Frequencies --   3044.5568              3052.6117              3053.9838
 Red. masses --      1.0587                 1.0446                 1.0545
 Frc consts  --      5.7819                 5.7349                 5.7948
 IR Inten    --     33.5430                26.6209                29.0280

                     88                     89                     90
                      A                      A                      A
 Frequencies --   3059.6654              3071.2091              3077.4575
 Red. masses --      1.0580                 1.0693                 1.0794
 Frc consts  --      5.8357                 5.9423                 6.0230
 IR Inten    --     17.7118                 5.8141                47.1407

                     91                     92                     93
                      A                      A                      A
 Frequencies --   3081.0290              3098.2325              3101.1090
 Red. masses --      1.1003                 1.1019                 1.1049
 Frc consts  --      6.1540                 6.2317                 6.2603
 IR Inten    --     11.0063                18.3037                19.0513

                     94                     95                     96
                      A                      A                      A
 Frequencies --   3109.6174              3115.1437              3117.7860
 Red. masses --      1.1028                 1.1009                 1.1055
 Frc consts  --      6.2829                 6.2946                 6.3317
 IR Inten    --     61.4058                50.0656                39.2348

                     97                     98                     99
                      A                      A                      A
 Frequencies --   3119.9508              3146.3425              3215.5220
 Red. masses --      1.1029                 1.1021                 1.0882
 Frc consts  --      6.3256                 6.4282                 6.6289
 IR Inten    --     29.6972                12.0521                11.2772

                    100                    101                    102
                      A                      A                      A
 Frequencies --   3230.8677              3270.0518              3491.0616
 Red. masses --      1.0949                 1.0971                 1.0733
 Frc consts  --      6.7338                 6.9120                 7.7069
 IR Inten    --      7.7953                 2.1223                 0.6577

 - Thermochemistry -
 -------------------
 Temperature   298.150 Kelvin.  Pressure   1.00000 Atm.
 Atom     1 has atomic number  6 and mass  12.00000

 Molecular mass:   223.13947 amu.
 Principal axes and moments of inertia in atomic units:
                           1         2         3
     Eigenvalues --  1329.957037779.738918487.07574
           X            0.99992  -0.01298  -0.00058
           Y            0.01298   0.99991  -0.00241
           Z            0.00062   0.00240   1.00000
 This molecule is an asymmetric top.
 Rotational symmetry number  1.
 Warning -- assumption of classical behavior for rotation
           may cause significant error
 Rotational temperatures (Kelvin)      0.06513     0.01113     0.01021
 Rotational constants (GHZ):           1.35699     0.23198     0.21265
 Zero-point vibrational energy     841588.2 (Joules/Mol)
                                  201.14440 (Kcal/Mol)
 Warning -- explicit consideration of  22 degrees of freedom as
           vibrations may cause significant error
 Vibrational temperatures:     37.08    58.02    76.81    93.54   161.19
          (Kelvin)            175.17   202.48   259.86   300.97   361.78
                              368.88   392.66   425.69   451.32   474.42
                              582.35   583.14   622.85   663.56   729.54
                              773.11   881.60   910.27   953.31  1007.44
                             1065.56  1081.06  1108.90  1157.65  1197.52
                             1199.07  1204.18  1243.46  1254.99  1290.41
                             1301.78  1321.80  1354.31  1384.68  1429.40
                             1457.18  1487.57  1521.08  1523.21  1544.40
                             1562.24  1583.45  1612.60  1633.72  1679.08
                             1711.60  1718.03  1747.67  1789.93  1813.79
                             1838.44  1847.18  1854.59  1894.40  1912.76
                             1937.53  1950.36  1982.35  2008.13  2008.68
                             2014.65  2044.87  2070.16  2078.82  2158.29
                             2167.37  2172.23  2178.96  2184.16  2190.27
                             2202.73  2215.04  2217.04  2224.44  2224.88
                             2304.74  4194.35  4229.96  4376.95  4380.44
                             4392.03  4394.00  4402.18  4418.78  4427.77
                             4432.91  4457.67  4461.80  4474.05  4482.00
                             4485.80  4488.91  4526.89  4626.42  4648.50
                             4704.88  5022.86

 Zero-point correction=                           0.320544 (Hartree/Particle)
 Thermal correction to Energy=                    0.336172
 Thermal correction to Enthalpy=                  0.337116
 Thermal correction to Gibbs Free Energy=         0.276374
 Sum of electronic and zero-point Energies=           -960.706344
 Sum of electronic and thermal Energies=              -960.690716
 Sum of electronic and thermal Enthalpies=            -960.689772
 Sum of electronic and thermal Free Energies=         -960.750514

                     E (Thermal)             CV                S
                      KCal/Mol        Cal/Mol-Kelvin    Cal/Mol-Kelvin
 Total                  210.951             60.158            127.842
 Electronic               0.000              0.000              0.000
 Translational            0.889              2.981             42.110
 Rotational               0.889              2.981             32.840
 Vibrational            209.173             54.196             52.891
 Vibration     1          0.593              1.985              6.131
 Vibration     2          0.594              1.981              5.243
 Vibration     3          0.596              1.976              4.688
 Vibration     4          0.597              1.971              4.299
 Vibration     5          0.607              1.940              3.233
 Vibration     6          0.609              1.931              3.072
 Vibration     7          0.615              1.913              2.794
 Vibration     8          0.630              1.866              2.322
 Vibration     9          0.642              1.827              2.051
 Vibration    10          0.663              1.760              1.720
 Vibration    11          0.666              1.752              1.686
 Vibration    12          0.676              1.723              1.578
 Vibration    13          0.690              1.681              1.440
 Vibration    14          0.702              1.648              1.343
 Vibration    15          0.713              1.616              1.261
 Vibration    16          0.770              1.460              0.945
 Vibration    17          0.770              1.459              0.943
 Vibration    18          0.794              1.399              0.849
 Vibration    19          0.819              1.336              0.763
 Vibration    20          0.862              1.234              0.641
 Vibration    21          0.892              1.167              0.571
 Vibration    22          0.972              1.005              0.428

                           ! Non-Optimized Parameters !
 Normal termination of Gaussian 16 at Thu Dec 10 16:45:30 2020.

 ----------------------------------------------------------------------
 # B3LYP/6-311++G(d,p) empiricaldispersion=gd3bj scf=xqc pop=npa geom=c
 heck
 ----------------------------------------------------------------------

 ---------------------------------------
 CID_116539797_JID_5651_Energie_neutraal
 ---------------------------------------
 Structure from the checkpoint file:  "JID_5651.chk"
 Charge =  0 Multiplicity = 1

 SCF Done:  E(RB3LYP) =  -961.207754977     A.U. after   16 cycles
 Normal termination of Gaussian 16 at Thu Dec 10 16:54:20 2020.

 ----------------------------------------------------------------------
 # B3LYP/6-311++G(d,p) empiricaldispersion=gd3bj scf=xqc pop=npa geom=c
 heck
 ----------------------------------------------------------------------

 -------------------------------------
 CID_116539797_JID_5651_Energie_kation
 -------------------------------------
 Structure from the checkpoint file:  "JID_5651.chk"
 Charge =  1 Multiplicity = 2

 SCF Done:  E(UB3LYP) =  -960.920233681     A.U. after   33 cycles
 SCF Done:  E(UB3LYP) =  -960.920233681     a.u. after    1 cycles
 Normal termination of Gaussian 16 at Thu Dec 10 17:17:30 2020.
 Gaussian 16:  ES64L-G16RevA.03 25-Dec-2016

 ----------------------------------------------------------------------
 # B3LYP/6-311++G(d,p) empiricaldispersion=gd3bj scf=xqc pop=npa geom=c
 heck
 ----------------------------------------------------------------------

 ------------------------------------
 CID_116539797_JID_5651_Energie_anion
 ------------------------------------
 Structure from the checkpoint file:  "JID_5651.chk"
 Charge = -1 Multiplicity = 2

                         Standard orientation:
 ---------------------------------------------------------------------
 Center     Atomic      Atomic             Coordinates (Angstroms)
 Number     Number       Type             X           Y           Z
 ---------------------------------------------------------------------
      1          6           0        5.099122   -1.708217    0.037598
      2          6           0        4.893344   -0.253435    0.471546
      3          6           0        3.817025    0.483216   -0.328270
      4          7           0        2.498314   -0.118610   -0.143857
      5          6           0        1.430738    0.583670   -0.866494
      6          6           0        1.089509    1.935047   -0.173257
      7          6           0       -0.424827    1.900003    0.103298
      8          6           0       -0.759411    0.401468    0.281728
      9          6           0        0.115204   -0.229104   -0.833581
     10          6           0       -0.301420   -0.098815    1.670126
     11          6           0       -2.228910    0.121072    0.096404
     12          6           0       -3.288746    0.989330    0.120565
     13          6           0       -4.558597    0.355322   -0.057060
     14          6           0       -4.457440   -0.997189   -0.213896
     15         16           0       -2.801549   -1.519263   -0.146215
     16          1           0        4.210344   -2.318845    0.235063
     17          1           0        5.931599   -2.167856    0.581151
     18          1           0        5.324081   -1.773727   -1.034555
     19          1           0        4.622905   -0.219539    1.534029
     20          1           0        5.838061    0.294766    0.362488
     21          1           0        3.764323    1.522590    0.016303
     22          1           0        4.111391    0.524779   -1.396954
     23          1           0        2.531646   -1.076665   -0.487452
     24          1           0        1.724843    0.765001   -1.916285
     25          1           0        1.372792    2.800961   -0.779402
     26          1           0        1.648356    1.996195    0.765682
     27          1           0       -0.974906    2.287207   -0.762584
     28          1           0       -0.712015    2.502243    0.971888
     29          1           0        0.291896   -1.298882   -0.670336
     30          1           0       -0.404636   -0.128527   -1.792261
     31          1           0       -0.830511    0.440345    2.463443
     32          1           0       -0.524247   -1.165222    1.783724
     33          1           0        0.776872    0.031105    1.794662
     34          1           0       -3.169321    2.056892    0.265628
     35          1           0       -5.502499    0.889548   -0.068500
     36          1           0       -5.247932   -1.718107   -0.371538
 ---------------------------------------------------------------------

 SCF Done:  E(UB3LYP) =  -961.192742306     A.U. after   33 cycles
 SCF Done:  E(UB3LYP) =  -961.192742306     a.u. after    1 cycles

 The electronic state is 2-A.
 Alpha  occ. eigenvalues --  -88.78119 -14.20344 -10.11067 -10.10590 -10.10493
 Alpha  occ. eigenvalues --  -10.10239 -10.09664 -10.08547 -10.08095 -10.07540
 Alpha  occ. eigenvalues --  -10.07527 -10.07490 -10.07093 -10.06851 -10.06479
 Alpha  occ. eigenvalues --   -7.86747  -5.83028  -5.82664  -5.82352  -0.82064
 Alpha  occ. eigenvalues --   -0.79198  -0.74770  -0.68572  -0.65747  -0.64288
 Alpha  occ. eigenvalues --   -0.62104  -0.61510  -0.57987  -0.56396  -0.49730
 Alpha  occ. eigenvalues --   -0.48759  -0.47638  -0.45754  -0.43449  -0.42323
 Alpha  occ. eigenvalues --   -0.39992  -0.38801  -0.36661  -0.35977  -0.34487
 Alpha  occ. eigenvalues --   -0.33282  -0.32782  -0.31762  -0.30897  -0.30786
 Alpha  occ. eigenvalues --   -0.30459  -0.29070  -0.27866  -0.27092  -0.26110
 Alpha  occ. eigenvalues --   -0.25620  -0.25545  -0.24705  -0.24513  -0.23811
 Alpha  occ. eigenvalues --   -0.23674  -0.23166  -0.22203  -0.16230  -0.14068
 Alpha  occ. eigenvalues --   -0.13756   0.04126
 Alpha virt. eigenvalues --    0.05465   0.06365   0.06884   0.07117   0.07296
 Alpha virt. eigenvalues --    0.07657   0.08691   0.08905   0.09318   0.09758
 Alpha virt. eigenvalues --    0.10272   0.10749   0.11002   0.11360   0.12111

  Beta  occ. eigenvalues --  -88.78115 -14.20325 -10.11065 -10.10578 -10.10482
  Beta  occ. eigenvalues --  -10.10239 -10.09649 -10.08535 -10.08085 -10.07530
  Beta  occ. eigenvalues --  -10.07513 -10.07476 -10.07080 -10.06815 -10.06471
  Beta  occ. eigenvalues --   -7.86743  -5.83023  -5.82662  -5.82349  -0.82040
  Beta  occ. eigenvalues --   -0.79184  -0.74754  -0.68542  -0.65722  -0.64265
  Beta  occ. eigenvalues --   -0.62077  -0.61487  -0.57943  -0.56356  -0.49687
  Beta  occ. eigenvalues --   -0.48719  -0.47590  -0.45711  -0.43421  -0.42283
  Beta  occ. eigenvalues --   -0.39963  -0.38772  -0.36628  -0.35956  -0.34469
  Beta  occ. eigenvalues --   -0.33238  -0.32753  -0.31736  -0.30870  -0.30756
  Beta  occ. eigenvalues --   -0.30430  -0.29052  -0.27851  -0.27054  -0.26087
  Beta  occ. eigenvalues --   -0.25590  -0.25517  -0.24678  -0.24487  -0.23789
  Beta  occ. eigenvalues --   -0.23649  -0.23142  -0.22185  -0.16220  -0.14056
  Beta  occ. eigenvalues --   -0.13699
  Beta virt. eigenvalues --    0.06020   0.06412   0.06904   0.07093   0.07562
  Beta virt. eigenvalues --    0.07687   0.08077   0.09157   0.09303   0.09673
  Beta virt. eigenvalues --    0.09985   0.10365   0.10876   0.11387   0.11612

 Mulliken charges and spin densities:
               1          2
     1  C    0.617044  -1.152748
     2  C   -0.750551   0.550852
     3  C    0.561228  -0.857048
     4  N    0.180283  -0.016009
     5  C   -1.317383   0.941442
     6  C    0.262766  -0.721931
     7  C   -0.199308  -0.533653
     8  C    1.221514  -0.294111
     9  C    0.310967  -1.115117
    10  C   -0.511063  -0.353102
    11  C    0.942667  -1.344341
    12  C   -0.946537   2.399964
    13  C    0.813314  -1.836403
    14  C   -0.169380   0.391924
    15  S   -0.086412  -0.370908
    16  H   -0.101343   0.227497
    17  H   -0.460415   0.610904
    18  H   -0.208728   0.352716
    19  H    0.008173   0.122272
    20  H   -0.076177   0.205161
    21  H   -0.041799   0.192236
    22  H   -0.096570   0.220555
    23  H    0.556409  -0.361062
    24  H   -0.310574   0.500213
    25  H   -0.222440   0.394106
    26  H    0.054281   0.080981
    27  H    0.003571   0.140082
    28  H   -0.030283   0.198348
    29  H   -0.227705   0.384205
    30  H   -0.011897   0.202806
    31  H    0.014103   0.147996
    32  H    0.002696   0.127202
    33  H    0.430024  -0.232796
    34  H   -0.307257   0.502310
    35  H   -0.430815   0.578016
    36  H   -0.472402   0.717442
 Sum of Mulliken charges =  -1.00000   1.00000

 Dipole moment (field-independent basis, Debye):
    X=             -1.3897    Y=              0.2775    Z=              1.7452  Tot=              2.2482
 Quadrupole moment (field-independent basis, Debye-Ang):
   XX=           -225.4637   YY=           -145.0950   ZZ=           -135.9486
   XY=             10.3939   XZ=              2.5113   YZ=              2.7260

 Summary of Natural Population Analysis:

                                       Natural Population
                Natural  -----------------------------------------------
    Atom  No    Charge         Core      Valence    Rydberg      Total
 -----------------------------------------------------------------------
      C    1   -0.28947      0.99967     2.28476    0.00504     3.28947
      C    2   -0.19313      0.99964     2.18418    0.00931     3.19313
      C    3   -0.08486      0.99962     2.07507    0.01017     3.08486
      N    4   -0.34086      0.99972     2.83039    0.01074     3.84086
      C    5   -0.00824      0.99960     1.99599    0.01265     3.00824
      C    6   -0.19640      0.99962     2.18828    0.00850     3.19640
      C    7   -0.18603      0.99961     2.17658    0.00984     3.18603
      C    8   -0.05890      0.99951     2.04669    0.01270     3.05890
      C    9   -0.18793      0.99959     2.17742    0.01093     3.18793
      C   10   -0.28369      0.99962     2.27800    0.00606     3.28369
      C   11   -0.07967      0.99944     2.06474    0.01548     3.07967
      C   12   -0.13214      0.99945     2.12230    0.01039     3.13214
      C   13   -0.12477      0.99953     2.11434    0.01090     3.12477
      C   14   -0.19835      0.99954     2.18698    0.01183     3.19835
      S   15    0.20002      4.99940     2.78104    0.01954     7.79998
      H   16    0.09543      0.00000     0.40349    0.00107     0.40457
      H   17    0.10077      0.00000     0.39799    0.00124     0.39923
      H   18    0.09737      0.00000     0.40138    0.00125     0.40263
      H   19    0.09600      0.00000     0.40282    0.00118     0.40400
      H   20    0.09569      0.00000     0.40334    0.00097     0.40431
      H   21    0.09238      0.00000     0.40606    0.00156     0.40762
      H   22    0.07742      0.00000     0.42095    0.00163     0.42258
      H   23    0.17201      0.00000     0.32440    0.00359     0.32799
      H   24    0.08368      0.00000     0.41423    0.00210     0.41632
      H   25    0.10252      0.00000     0.39642    0.00106     0.39748
      H   26    0.10124      0.00000     0.39741    0.00135     0.39876
      H   27    0.10171      0.00000     0.39682    0.00147     0.39829
      H   28    0.10190      0.00000     0.39709    0.00101     0.39810
      H   29    0.10280      0.00000     0.39597    0.00124     0.39720
      H   30    0.10610      0.00000     0.39270    0.00120     0.39390
      H   31    0.09862      0.00000     0.40053    0.00084     0.40138
      H   32    0.09989      0.00000     0.39909    0.00102     0.40011
      H   33    0.11126      0.00000     0.38742    0.00133     0.38874
      H   34    0.11019      0.00000     0.38850    0.00131     0.38981
      H   35    0.10716      0.00000     0.39152    0.00132     0.39284
      H   36    0.11029      0.00000     0.38845    0.00127     0.38971
 =======================================================================
   * Total *   -0.00000     18.99356    41.81335    0.19309    61.00000

 Normal termination of Gaussian 16 at Thu Dec 10 17:40:38 2020.
