 Gaussian 16, Revision A.03,

 -----------------------------------------------------------
 # opt freq B3LYP/6-31G(d) empiricaldispersion=gd3bj scf=xqc
 -----------------------------------------------------------

 -------------------------------
 CID_147996880_JID_6660_neutraal
 -------------------------------
 Symbolic Z-matrix:
 Charge =  0 Multiplicity = 1

 SCF Done:  E(RB3LYP) =  -700.742139278     A.U. after   15 cycles
 SCF Done:  E(RB3LYP) =  -700.749197624     A.U. after   13 cycles
 SCF Done:  E(RB3LYP) =  -700.750262878     A.U. after   13 cycles
 SCF Done:  E(RB3LYP) =  -700.750912165     A.U. after   14 cycles
 SCF Done:  E(RB3LYP) =  -700.752211612     A.U. after   12 cycles
 SCF Done:  E(RB3LYP) =  -700.754075173     A.U. after   15 cycles
 SCF Done:  E(RB3LYP) =  -700.754956484     A.U. after   12 cycles
 SCF Done:  E(RB3LYP) =  -700.756012399     A.U. after   12 cycles
 SCF Done:  E(RB3LYP) =  -700.756208140     A.U. after   12 cycles
 SCF Done:  E(RB3LYP) =  -700.756281258     A.U. after   11 cycles
 SCF Done:  E(RB3LYP) =  -700.756291826     A.U. after   10 cycles
 SCF Done:  E(RB3LYP) =  -700.756292607     A.U. after    8 cycles
 SCF Done:  E(RB3LYP) =  -700.756292943     A.U. after    8 cycles
 SCF Done:  E(RB3LYP) =  -700.756293057     A.U. after    8 cycles
 SCF Done:  E(RB3LYP) =  -700.756293076     A.U. after    7 cycles
 Optimization completed.
    -- Stationary point found.
 Normal termination of Gaussian 16 at Fri Dec 11 00:10:44 2020.

 --------------------------------------------------------------------
 #N Geom=AllCheck Guess=TCheck SCRF=Check GenChk RB3LYP/6-31G(d) Freq
 --------------------------------------------------------------------

 Structure from the checkpoint file:  "JID_6660.chk"
 -------------------------------
 CID_147996880_JID_6660_neutraal
 -------------------------------
 Charge =  0 Multiplicity = 1

 SCF Done:  E(RB3LYP) =  -700.756293076     A.U. after    1 cycles

  Exact polarizability: 209.528   7.016 154.399 -20.611  -2.557  84.997
 Approx polarizability: 306.950   5.086 301.158 -42.596  -0.185 127.108

                      1                      2                      3
                      A                      A                      A
 Frequencies --     32.6301                35.2322               101.6243
 Red. masses --      4.9596                 4.2839                 4.0557
 Frc consts  --      0.0031                 0.0031                 0.0247
 IR Inten    --      1.5075                 1.8207                 1.0133

                      4                      5                      6
                      A                      A                      A
 Frequencies --    118.4995               128.2550               160.8997
 Red. masses --      3.9895                 3.4964                 5.9449
 Frc consts  --      0.0330                 0.0339                 0.0907
 IR Inten    --      1.9057                 3.6014                 2.1698

                      7                      8                      9
                      A                      A                      A
 Frequencies --    166.4955               244.7992               260.7995
 Red. masses --      2.3652                 3.4498                 4.7120
 Frc consts  --      0.0386                 0.1218                 0.1888
 IR Inten    --      2.1889                 0.2540                 0.7853

                     10                     11                     12
                      A                      A                      A
 Frequencies --    269.5427               302.4781               322.5689
 Red. masses --      1.0882                 2.4983                 3.1837
 Frc consts  --      0.0466                 0.1347                 0.1952
 IR Inten    --     42.6409                 9.1538                 5.9734

                     13                     14                     15
                      A                      A                      A
 Frequencies --    360.8603               373.6355               435.9856
 Red. masses --      4.2393                 4.5806                 3.1056
 Frc consts  --      0.3253                 0.3768                 0.3478
 IR Inten    --      6.5905                 8.3932                 5.4248

                     16                     17                     18
                      A                      A                      A
 Frequencies --    439.9010               475.5103               545.9837
 Red. masses --      4.0115                 8.0944                 2.4075
 Frc consts  --      0.4574                 1.0783                 0.4228
 IR Inten    --      3.1270                 0.9504                 3.9628

                     19                     20                     21
                      A                      A                      A
 Frequencies --    557.7153               571.8005               596.4593
 Red. masses --      1.3925                 3.2982                 4.5753
 Frc consts  --      0.2552                 0.6353                 0.9590
 IR Inten    --     10.3662                11.4129                 3.8686

                     22                     23                     24
                      A                      A                      A
 Frequencies --    612.0940               647.8503               671.4745
 Red. masses --      2.6137                 4.9802                 1.7011
 Frc consts  --      0.5770                 1.2315                 0.4519
 IR Inten    --    114.1697                10.3864               268.5215

                     25                     26                     27
                      A                      A                      A
 Frequencies --    691.4819               737.5484               754.9776
 Red. masses --      4.3414                 4.0162                 4.5387
 Frc consts  --      1.2230                 1.2872                 1.5242
 IR Inten    --     19.2489                 7.3677                 3.5671

                     28                     29                     30
                      A                      A                      A
 Frequencies --    796.5585               827.7681               843.6756
 Red. masses --      6.1563                 1.6823                 2.5668
 Frc consts  --      2.3015                 0.6792                 1.0765
 IR Inten    --      1.1607                43.1393                11.7838

                     31                     32                     33
                      A                      A                      A
 Frequencies --    863.7411               871.2630               892.7740
 Red. masses --      1.5825                 3.0029                 1.3434
 Frc consts  --      0.6956                 1.3431                 0.6309
 IR Inten    --     11.3012                15.0250                58.5300

                     34                     35                     36
                      A                      A                      A
 Frequencies --    919.0382               963.0737               967.5777
 Red. masses --      2.5126                 1.3592                 1.2653
 Frc consts  --      1.2504                 0.7428                 0.6979
 IR Inten    --     33.5502                32.9120                 0.0078

                     37                     38                     39
                      A                      A                      A
 Frequencies --    980.1345               995.2047              1017.0007
 Red. masses --      3.5423                 2.3946                 1.8665
 Frc consts  --      2.0050                 1.3974                 1.1374
 IR Inten    --     16.5015                12.7541                 1.6152

                     40                     41                     42
                      A                      A                      A
 Frequencies --   1033.0670              1047.1250              1096.6345
 Red. masses --      1.8964                 1.0789                 2.6666
 Frc consts  --      1.1924                 0.6970                 1.8895
 IR Inten    --      5.1400                22.7341                28.1911

                     43                     44                     45
                      A                      A                      A
 Frequencies --   1133.8243              1136.3306              1163.6307
 Red. masses --      1.4553                 1.6165                 1.5759
 Frc consts  --      1.1023                 1.2298                 1.2572
 IR Inten    --      7.6036                23.6666                 4.2760

                     46                     47                     48
                      A                      A                      A
 Frequencies --   1186.1569              1222.0856              1261.6308
 Red. masses --      3.1747                 1.1107                 1.2630
 Frc consts  --      2.6317                 0.9774                 1.1844
 IR Inten    --     37.7376                 2.6047                 2.5175

                     49                     50                     51
                      A                      A                      A
 Frequencies --   1276.9349              1302.0634              1341.6843
 Red. masses --      2.4937                 2.0046                 2.4431
 Frc consts  --      2.3957                 2.0024                 2.5912
 IR Inten    --     12.5953                15.7568                36.0830

                     52                     53                     54
                      A                      A                      A
 Frequencies --   1348.6779              1359.2811              1367.8245
 Red. masses --      1.3440                 1.9148                 2.9220
 Frc consts  --      1.4403                 2.0845                 3.2210
 IR Inten    --      3.6659                30.8054                17.6311

                     55                     56                     57
                      A                      A                      A
 Frequencies --   1389.9337              1406.2608              1429.2746
 Red. masses --      2.3559                 1.6880                 3.0446
 Frc consts  --      2.6817                 1.9668                 3.6645
 IR Inten    --     28.3265                11.8412                 6.8075

                     58                     59                     60
                      A                      A                      A
 Frequencies --   1476.7165              1481.8812              1508.4543
 Red. masses --      4.5818                 1.1958                 1.0963
 Frc consts  --      5.8868                 1.5472                 1.4697
 IR Inten    --      1.3429                 0.4832                11.7314

                     61                     62                     63
                      A                      A                      A
 Frequencies --   1519.7377              1526.1438              1559.1629
 Red. masses --      3.1102                 1.2353                 4.9871
 Frc consts  --      4.2323                 1.6952                 7.1430
 IR Inten    --    115.6278                45.1500                59.0598

                     64                     65                     66
                      A                      A                      A
 Frequencies --   1597.3209              1684.6633              1689.4822
 Red. masses --      5.4391                 8.1224                 1.4119
 Frc consts  --      8.1764                13.5819                 2.3745
 IR Inten    --     22.3917                96.4525                15.8164

                     67                     68                     69
                      A                      A                      A
 Frequencies --   1709.8117              1736.6536              3014.1326
 Red. masses --      3.0700                 4.2141                 1.0634
 Frc consts  --      5.2879                 7.4882                 5.6922
 IR Inten    --    119.9283                 6.5235                33.7999

                     70                     71                     72
                      A                      A                      A
 Frequencies --   3036.2434              3054.3828              3139.8496
 Red. masses --      1.0960                 1.0723                 1.0842
 Frc consts  --      5.9530                 5.8943                 6.2977
 IR Inten    --     26.1530                27.7687                28.8065

                     73                     74                     75
                      A                      A                      A
 Frequencies --   3145.5331              3170.7871              3198.5931
 Red. masses --      1.0920                 1.0662                 1.0898
 Frc consts  --      6.3661                 6.3160                 6.5695
 IR Inten    --      2.5879                20.4859                 8.9040

                     76                     77                     78
                      A                      A                      A
 Frequencies --   3241.8590              3250.3633              3266.4916
 Red. masses --      1.0941                 1.1155                 1.0935
 Frc consts  --      6.7746                 6.9437                 6.8741
 IR Inten    --      1.7691                 6.6269                30.1326

                     79                     80                     81
                      A                      A                      A
 Frequencies --   3431.5558              3545.7442              3643.1461
 Red. masses --      1.0743                 1.0482                 1.0978
 Frc consts  --      7.4531                 7.7642                 8.5850
 IR Inten    --      1.8756                16.9137                 9.7236

 - Thermochemistry -
 -------------------
 Temperature   298.150 Kelvin.  Pressure   1.00000 Atm.
 Atom     1 has atomic number  6 and mass  12.00000

 Molecular mass:   215.11710 amu.
 Principal axes and moments of inertia in atomic units:
                           1         2         3
     Eigenvalues --  1696.324545556.623576424.44950
           X            1.00000   0.00013  -0.00289
           Y           -0.00016   0.99993  -0.01141
           Z            0.00289   0.01142   0.99993
 This molecule is an asymmetric top.
 Rotational symmetry number  1.
 Warning -- assumption of classical behavior for rotation
           may cause significant error
 Rotational temperatures (Kelvin)      0.05106     0.01559     0.01348
 Rotational constants (GHZ):           1.06391     0.32479     0.28092
 Zero-point vibrational energy     620180.3 (Joules/Mol)
                                  148.22664 (Kcal/Mol)
 Warning -- explicit consideration of  22 degrees of freedom as
           vibrations may cause significant error
 Vibrational temperatures:     46.95    50.69   146.21   170.49   184.53
          (Kelvin)            231.50   239.55   352.21   375.23   387.81
                              435.20   464.10   519.20   537.58   627.29
                              632.92   684.15   785.55   802.43   822.69
                              858.17   880.67   932.11   966.10   994.89
                             1061.17  1086.24  1146.07  1190.97  1213.86
                             1242.73  1253.55  1284.50  1322.29  1385.65
                             1392.13  1410.19  1431.88  1463.24  1486.35
                             1506.58  1577.81  1631.32  1634.93  1674.21
                             1706.62  1758.31  1815.21  1837.22  1873.38
                             1930.38  1940.45  1955.70  1967.99  1999.80
                             2023.30  2056.41  2124.67  2132.10  2170.33
                             2186.56  2195.78  2243.29  2298.19  2423.85
                             2430.79  2460.04  2498.66  4336.66  4368.48
                             4394.58  4517.54  4525.72  4562.06  4602.06
                             4664.31  4676.55  4699.75  4937.24  5101.54
                             5241.67

 Zero-point correction=                           0.236214 (Hartree/Particle)
 Thermal correction to Energy=                    0.250243
 Thermal correction to Enthalpy=                  0.251188
 Thermal correction to Gibbs Free Energy=         0.194680
 Sum of electronic and zero-point Energies=           -700.520079
 Sum of electronic and thermal Energies=              -700.506050
 Sum of electronic and thermal Enthalpies=            -700.505105
 Sum of electronic and thermal Free Energies=         -700.561613

                     E (Thermal)             CV                S
                      KCal/Mol        Cal/Mol-Kelvin    Cal/Mol-Kelvin
 Total                  157.030             54.664            118.929
 Electronic               0.000              0.000              0.000
 Translational            0.889              2.981             42.001
 Rotational               0.889              2.981             32.471
 Vibrational            155.253             48.703             44.457
 Vibration     1          0.594              1.983              5.663
 Vibration     2          0.594              1.982              5.511
 Vibration     3          0.604              1.948              3.423
 Vibration     4          0.609              1.934              3.125
 Vibration     5          0.611              1.925              2.972
 Vibration     6          0.622              1.890              2.539
 Vibration     7          0.624              1.884              2.475
 Vibration     8          0.660              1.771              1.768
 Vibration     9          0.669              1.744              1.656
 Vibration    10          0.674              1.729              1.599
 Vibration    11          0.694              1.669              1.403
 Vibration    12          0.708              1.630              1.297
 Vibration    13          0.735              1.553              1.118
 Vibration    14          0.745              1.526              1.065
 Vibration    15          0.796              1.392              0.839
 Vibration    16          0.800              1.383              0.827
 Vibration    17          0.832              1.304              0.722
 Vibration    18          0.901              1.148              0.553
 Vibration    19          0.913              1.123              0.528
 Vibration    20          0.928              1.092              0.501
 Vibration    21          0.954              1.039              0.456
 Vibration    22          0.971              1.006              0.429

 Optimization completed.
    -- Stationary point found.
 Normal termination of Gaussian 16 at Fri Dec 11 00:19:44 2020.

 ----------------------------------------------------------------------
 # B3LYP/6-311++G(d,p) empiricaldispersion=gd3bj scf=xqc pop=npa geom=c
 heck
 ----------------------------------------------------------------------

 ---------------------------------------
 CID_147996880_JID_6660_Energie_neutraal
 ---------------------------------------
 Structure from the checkpoint file:  "JID_6660.chk"
 Charge =  0 Multiplicity = 1

 SCF Done:  E(RB3LYP) =  -700.949956614     A.U. after   15 cycles
 Normal termination of Gaussian 16 at Fri Dec 11 00:23:53 2020.

 ----------------------------------------------------------------------
 # B3LYP/6-311++G(d,p) empiricaldispersion=gd3bj scf=xqc pop=npa geom=c
 heck
 ----------------------------------------------------------------------

 -------------------------------------
 CID_147996880_JID_6660_Energie_kation
 -------------------------------------
 Structure from the checkpoint file:  "JID_6660.chk"
 Charge =  1 Multiplicity = 2

 SCF Done:  E(UB3LYP) =  -700.665895570     A.U. after   23 cycles
 Normal termination of Gaussian 16 at Fri Dec 11 00:32:50 2020.
 Gaussian 16:  ES64L-G16RevA.03 25-Dec-2016

 ----------------------------------------------------------------------
 # B3LYP/6-311++G(d,p) empiricaldispersion=gd3bj scf=xqc pop=npa geom=c
 heck
 ----------------------------------------------------------------------

 ------------------------------------
 CID_147996880_JID_6660_Energie_anion
 ------------------------------------
 Structure from the checkpoint file:  "JID_6660.chk"
 Charge = -1 Multiplicity = 2

                         Standard orientation:
 ---------------------------------------------------------------------
 Center     Atomic      Atomic             Coordinates (Angstroms)
 Number     Number       Type             X           Y           Z
 ---------------------------------------------------------------------
      1          6           0        3.164041   -0.820902    1.703118
      2          6           0        3.898251    0.189770    1.236826
      3          6           0        3.887447    0.742902   -0.165088
      4          6           0        2.781876    0.208522   -1.087006
      5          6           0        1.388465    0.687558   -0.699477
      6          7           0        1.051523    1.918737   -0.537240
      7          6           0        0.373771   -0.343987   -0.532557
      8          7           0        0.589095   -1.659834   -0.633445
      9          7           0       -0.555012   -2.329406   -0.407917
     10          6           0       -1.503528   -1.413109   -0.163063
     11          7           0       -0.958990   -0.135980   -0.230674
     12          6           0       -1.695543    1.007482   -0.005676
     13          6           0       -3.035881    0.882129    0.273573
     14          6           0       -3.625873   -0.422385    0.341203
     15          6           0       -2.876571   -1.548618    0.133341
     16          7           0       -3.853316    2.005410    0.430676
     17          1           0        2.449152   -1.363612    1.091960
     18          1           0        3.263448   -1.147923    2.734696
     19          1           0        4.602413    0.680872    1.909959
     20          1           0        3.829068    1.840712   -0.112118
     21          1           0        4.861080    0.538540   -0.634226
     22          1           0        2.973543    0.560216   -2.109188
     23          1           0        2.799876   -0.882126   -1.119863
     24          1           0        1.859697    2.529972   -0.689162
     25          1           0       -1.144195    1.934508   -0.075618
     26          1           0       -4.688274   -0.502752    0.552977
     27          1           0       -3.299838   -2.544754    0.183131
     28          1           0       -3.350280    2.866113    0.611006
     29          1           0       -4.607519    1.881571    1.095504
 ---------------------------------------------------------------------

 SCF Done:  E(UB3LYP) =  -700.954778204     A.U. after   33 cycles
 SCF Done:  E(UB3LYP) =  -700.954778204     a.u. after    2 cycles

 The electronic state is 2-A.
 Alpha  occ. eigenvalues --  -14.24499 -14.20858 -14.19427 -14.18820 -14.14336
 Alpha  occ. eigenvalues --  -10.09666 -10.09579 -10.08782 -10.07597 -10.07261
 Alpha  occ. eigenvalues --  -10.07234 -10.07186 -10.05986 -10.05459 -10.05338
 Alpha  occ. eigenvalues --  -10.05224  -0.93142  -0.82139  -0.79751  -0.77122
 Alpha  occ. eigenvalues --   -0.70200  -0.69493  -0.65226  -0.62524  -0.61863
 Alpha  occ. eigenvalues --   -0.55416  -0.52661  -0.50864  -0.50061  -0.45346
 Alpha  occ. eigenvalues --   -0.43048  -0.41090  -0.39697  -0.37608  -0.36654
 Alpha  occ. eigenvalues --   -0.35509  -0.35196  -0.34295  -0.33092  -0.32485
 Alpha  occ. eigenvalues --   -0.30402  -0.29293  -0.29233  -0.27354  -0.25928
 Alpha  occ. eigenvalues --   -0.25274  -0.24065  -0.23418  -0.20777  -0.19726
 Alpha  occ. eigenvalues --   -0.19147  -0.17345  -0.15685  -0.13234  -0.12503
 Alpha  occ. eigenvalues --   -0.11188  -0.08229   0.04312
 Alpha virt. eigenvalues --    0.06464   0.07163   0.07864   0.08975   0.09145
 Alpha virt. eigenvalues --    0.09813   0.10210   0.10930   0.11028   0.12197
 Alpha virt. eigenvalues --    0.12545   0.13329   0.14148   0.14429   0.14765

  Beta  occ. eigenvalues --  -14.24169 -14.20835 -14.19402 -14.18913 -14.13967
  Beta  occ. eigenvalues --  -10.09613 -10.09598 -10.08741 -10.07406 -10.07228
  Beta  occ. eigenvalues --  -10.07163 -10.07136 -10.05986 -10.05460 -10.05357
  Beta  occ. eigenvalues --  -10.04962  -0.92946  -0.81952  -0.79585  -0.76540
  Beta  occ. eigenvalues --   -0.69973  -0.69394  -0.64995  -0.62326  -0.61736
  Beta  occ. eigenvalues --   -0.55152  -0.52479  -0.50600  -0.49853  -0.45162
  Beta  occ. eigenvalues --   -0.42956  -0.40945  -0.39550  -0.37549  -0.36500
  Beta  occ. eigenvalues --   -0.35341  -0.35026  -0.33575  -0.33003  -0.32368
  Beta  occ. eigenvalues --   -0.30255  -0.29115  -0.29072  -0.27214  -0.25615
  Beta  occ. eigenvalues --   -0.25162  -0.23883  -0.23315  -0.19998  -0.19176
  Beta  occ. eigenvalues --   -0.19115  -0.16061  -0.15541  -0.12848  -0.12481
  Beta  occ. eigenvalues --   -0.10375  -0.07510
  Beta virt. eigenvalues --    0.07030   0.07243   0.08586   0.08896   0.09126
  Beta virt. eigenvalues --    0.09646   0.09840   0.10277   0.11098   0.11120
  Beta virt. eigenvalues --    0.12146   0.12641   0.13377   0.14278   0.14404

 Mulliken charges and spin densities:
               1          2
     1  C   -0.620651  -0.058710
     2  C    0.115561   0.203020
     3  C   -0.202010  -0.452159
     4  C   -0.395198   0.238605
     5  C    0.108479   0.070532
     6  N   -0.428015   0.206795
     7  C   -0.099864  -0.060664
     8  N   -0.158963   0.008378
     9  N   -0.040854  -0.042508
    10  C    0.197211   0.040183
    11  N    0.081384   0.090012
    12  C   -0.132421  -0.177086
    13  C    0.003523  -0.196025
    14  C   -0.254575   0.448565
    15  C   -0.236872  -0.119628
    16  N   -0.308566  -0.033539
    17  H    0.139471   0.004657
    18  H    0.107885  -0.002386
    19  H    0.141890   0.016631
    20  H    0.094851   0.001116
    21  H    0.056520   0.083098
    22  H    0.016017   0.150899
    23  H    0.220192  -0.007750
    24  H    0.172942   0.015824
    25  H    0.244834  -0.000017
    26  H   -0.027454   0.155693
    27  H    0.170704  -0.010712
    28  H    0.164342   0.054811
    29  H   -0.130364   0.372367
 Sum of Mulliken charges =  -1.00000   1.00000

 Dipole moment (field-independent basis, Debye):
    X=              2.5967    Y=              1.6394    Z=              1.0224  Tot=              3.2367
 Quadrupole moment (field-independent basis, Debye-Ang):
   XX=           -141.5583   YY=           -122.6607   ZZ=           -110.5085
   XY=              7.4718   XZ=              4.3693   YZ=             -1.2409

 Summary of Natural Population Analysis:

                                       Natural Population
                Natural  -----------------------------------------------
    Atom  No    Charge         Core      Valence    Rydberg      Total
 -----------------------------------------------------------------------
      C    1   -0.19663      0.99957     2.19021    0.00686     3.19663
      C    2   -0.08569      0.99958     2.07654    0.00956     3.08569
      C    3   -0.20495      0.99961     2.19522    0.01013     3.20495
      C    4   -0.22437      0.99960     2.21412    0.01065     3.22437
      C    5    0.14065      0.99960     1.84136    0.01839     2.85935
      N    6   -0.28876      0.99971     2.78149    0.00756     3.78876
      C    7    0.15032      0.99955     1.83245    0.01769     2.84968
      N    8   -0.15188      0.99970     2.63985    0.01233     3.65188
      N    9   -0.18799      0.99971     2.67452    0.01377     3.68799
      C   10    0.17108      0.99959     1.81305    0.01628     2.82892
      N   11   -0.13801      0.99957     2.63069    0.00774     3.63801
      C   12    0.00885      0.99952     1.97995    0.01168     2.99115
      C   13    0.05167      0.99951     1.93830    0.01053     2.94833
      C   14   -0.06165      0.99955     2.05125    0.01086     3.06165
      C   15   -0.11394      0.99953     2.10566    0.00875     3.11394
      N   16   -0.40273      0.99972     2.89289    0.01012     3.90273
      H   17    0.10732      0.00000     0.39117    0.00151     0.39268
      H   18    0.08807      0.00000     0.41081    0.00112     0.41193
      H   19    0.08583      0.00000     0.41297    0.00119     0.41417
      H   20    0.09688      0.00000     0.40165    0.00146     0.40312
      H   21    0.09971      0.00000     0.39899    0.00130     0.40029
      H   22    0.10530      0.00000     0.39338    0.00132     0.39470
      H   23    0.11530      0.00000     0.38289    0.00181     0.38470
      H   24    0.15061      0.00000     0.34744    0.00194     0.34939
      H   25    0.12096      0.00000     0.37786    0.00117     0.37904
      H   26    0.09445      0.00000     0.40464    0.00091     0.40555
      H   27    0.10363      0.00000     0.39469    0.00168     0.39637
      H   28    0.18191      0.00000     0.31677    0.00132     0.31809
      H   29    0.18407      0.00000     0.31250    0.00343     0.31593
 =======================================================================
   * Total *   -0.00000     15.99360    40.80332    0.20308    57.00000

 Normal termination of Gaussian 16 at Fri Dec 11 01:02:19 2020.
