 Gaussian 16, Revision A.03,

 -----------------------------------------------------------
 # opt freq B3LYP/6-31G(d) empiricaldispersion=gd3bj scf=xqc
 -----------------------------------------------------------

 ------------------------------
 CID_13748433_JID_5893_neutraal
 ------------------------------
 Symbolic Z-matrix:
 Charge =  0 Multiplicity = 1

 SCF Done:  E(RB3LYP) =  -1003.05899520     A.U. after   15 cycles
 SCF Done:  E(RB3LYP) =  -1003.07061226     A.U. after   14 cycles
 SCF Done:  E(RB3LYP) =  -1003.07415190     A.U. after   14 cycles
 SCF Done:  E(RB3LYP) =  -1003.07536823     A.U. after   14 cycles
 SCF Done:  E(RB3LYP) =  -1003.07615475     A.U. after   14 cycles
 SCF Done:  E(RB3LYP) =  -1003.07651902     A.U. after   13 cycles
 SCF Done:  E(RB3LYP) =  -1003.07702913     A.U. after   13 cycles
 SCF Done:  E(RB3LYP) =  -1003.07712578     A.U. after   12 cycles
 SCF Done:  E(RB3LYP) =  -1003.07716511     A.U. after   11 cycles
 SCF Done:  E(RB3LYP) =  -1003.07718025     A.U. after   10 cycles
 SCF Done:  E(RB3LYP) =  -1003.07718809     A.U. after   10 cycles
 SCF Done:  E(RB3LYP) =  -1003.07718903     A.U. after    8 cycles
 SCF Done:  E(RB3LYP) =  -1003.07718963     A.U. after    9 cycles
 SCF Done:  E(RB3LYP) =  -1003.07718976     A.U. after    8 cycles
 Optimization completed.
    -- Stationary point found.
 Normal termination of Gaussian 16 at Thu Dec 10 17:36:12 2020.

 --------------------------------------------------------------------
 #N Geom=AllCheck Guess=TCheck SCRF=Check GenChk RB3LYP/6-31G(d) Freq
 --------------------------------------------------------------------

 Structure from the checkpoint file:  "JID_5893.chk"
 ------------------------------
 CID_13748433_JID_5893_neutraal
 ------------------------------
 Charge =  0 Multiplicity = 1

 SCF Done:  E(RB3LYP) =  -1003.07718976     A.U. after    1 cycles

  Exact polarizability: 261.012   4.327 104.220   6.036 -11.573  94.609
 Approx polarizability: 386.147   7.770 181.293  13.468 -30.091 161.056

                      1                      2                      3
                      A                      A                      A
 Frequencies --     35.9372                40.3706                62.6436
 Red. masses --     10.5094                 7.5313                 4.2591
 Frc consts  --      0.0080                 0.0072                 0.0098
 IR Inten    --      3.7767                 3.0680                 0.8699

                      4                      5                      6
                      A                      A                      A
 Frequencies --     77.0491               109.6777               122.1318
 Red. masses --      4.4689                 5.8880                 6.6204
 Frc consts  --      0.0156                 0.0417                 0.0582
 IR Inten    --      2.3934                 0.7915                 0.9649

                      7                      8                      9
                      A                      A                      A
 Frequencies --    143.7587               167.5978               174.4868
 Red. masses --      8.2046                 5.7065                 1.3254
 Frc consts  --      0.0999                 0.0944                 0.0238
 IR Inten    --      5.2160                 8.3442                 2.0310

                     10                     11                     12
                      A                      A                      A
 Frequencies --    240.7010               268.7792               280.7313
 Red. masses --      2.7331                 7.4401                 7.1448
 Frc consts  --      0.0933                 0.3167                 0.3318
 IR Inten    --      4.7363                 2.0904                 1.1066

                     13                     14                     15
                      A                      A                      A
 Frequencies --    368.6231               400.3060               417.4836
 Red. masses --      9.0398                 5.4216                 3.1953
 Frc consts  --      0.7237                 0.5119                 0.3281
 IR Inten    --      1.5953                13.4496                 1.7798

                     16                     17                     18
                      A                      A                      A
 Frequencies --    464.7005               476.0633               491.9464
 Red. masses --      1.6478                 4.6721                 6.3436
 Frc consts  --      0.2097                 0.6239                 0.9045
 IR Inten    --     64.0798                15.4568                 2.1625

                     19                     20                     21
                      A                      A                      A
 Frequencies --    514.7644               559.5401               568.9021
 Red. masses --      7.1113                 7.4188                 3.7101
 Frc consts  --      1.1102                 1.3685                 0.7075
 IR Inten    --      4.1520                 1.1539                15.0360

                     22                     23                     24
                      A                      A                      A
 Frequencies --    597.8086               603.6412               652.5691
 Red. masses --      6.1036                 5.3914                 6.7436
 Frc consts  --      1.2852                 1.1575                 1.6920
 IR Inten    --     21.7754                24.5629                 6.9938

                     25                     26                     27
                      A                      A                      A
 Frequencies --    678.6269               713.8704               743.7941
 Red. masses --      7.1013                 6.8564                 4.3808
 Frc consts  --      1.9269                 2.0587                 1.4279
 IR Inten    --      5.9855                 3.9065                 1.1555

                     28                     29                     30
                      A                      A                      A
 Frequencies --    747.8853               845.0331               862.6177
 Red. masses --      6.4178                 1.2620                 2.2284
 Frc consts  --      2.1150                 0.5309                 0.9770
 IR Inten    --     11.9527                 2.4603                22.3833

                     31                     32                     33
                      A                      A                      A
 Frequencies --    869.6647               966.1212               974.0908
 Red. masses --      3.6085                 1.3139                 1.3013
 Frc consts  --      1.6080                 0.7226                 0.7275
 IR Inten    --     30.0863                 0.2265                 0.0041

                     34                     35                     36
                      A                      A                      A
 Frequencies --    998.7062              1016.0164              1037.5240
 Red. masses --      1.1886                 1.2554                 2.7251
 Frc consts  --      0.6985                 0.7635                 1.7284
 IR Inten    --      4.0703                10.4069                 0.6350

                     37                     38                     39
                      A                      A                      A
 Frequencies --   1118.8358              1142.8393              1203.7231
 Red. masses --      5.3143                 1.3313                 1.3103
 Frc consts  --      3.9195                 1.0244                 1.1186
 IR Inten    --     57.3228                 8.0118                72.7372

                     40                     41                     42
                      A                      A                      A
 Frequencies --   1236.9666              1242.6828              1283.5439
 Red. masses --      3.2824                 4.3380                 2.6447
 Frc consts  --      2.9591                 3.9470                 2.5672
 IR Inten    --      0.1573               317.2404                19.4306

                     43                     44                     45
                      A                      A                      A
 Frequencies --   1333.2843              1339.3410              1390.4072
 Red. masses --      6.8815                 1.3625                 1.1514
 Frc consts  --      7.2074                 1.4400                 1.3114
 IR Inten    --      2.8631                 1.2599                 1.0452

                     46                     47                     48
                      A                      A                      A
 Frequencies --   1460.6693              1470.6321              1493.5081
 Red. masses --      2.9279                 1.8540                 1.0560
 Frc consts  --      3.6806                 2.3625                 1.3878
 IR Inten    --      3.5178                55.7095                16.0474

                     49                     50                     51
                      A                      A                      A
 Frequencies --   1510.2462              1553.1922              1602.9505
 Red. masses --      1.0552                 2.5227                 6.6032
 Frc consts  --      1.4180                 3.5856                 9.9964
 IR Inten    --     11.7002                24.6452                 6.0167

                     52                     53                     54
                      A                      A                      A
 Frequencies --   1659.1921              1713.0523              2348.0823
 Red. masses --      5.8871                 9.1627                12.6774
 Frc consts  --      9.5488                15.8421                41.1821
 IR Inten    --    340.6791               735.3099                63.3838

                     55                     56                     57
                      A                      A                      A
 Frequencies --   2364.4355              3090.4752              3178.8584
 Red. masses --     12.5453                 1.0299                 1.1049
 Frc consts  --     41.3223                 5.7954                 6.5783
 IR Inten    --    161.3004                 7.8083                 1.7401

                     58                     59                     60
                      A                      A                      A
 Frequencies --   3197.0619              3210.5906              3212.1545
 Red. masses --      1.1085                 1.0882                 1.0883
 Frc consts  --      6.6756                 6.6091                 6.6162
 IR Inten    --      1.3944                 6.2886                 0.6520

                     61                     62                     63
                      A                      A                      A
 Frequencies --   3224.9740              3226.9355              3570.2537
 Red. masses --      1.0951                 1.0958                 1.0754
 Frc consts  --      6.7102                 6.7233                 8.0763
 IR Inten    --      4.8484                 1.9224                71.9018

 - Thermochemistry -
 -------------------
 Temperature   298.150 Kelvin.  Pressure   1.00000 Atm.
 Atom     1 has atomic number  6 and mass  12.00000

 Molecular mass:   216.04697 amu.
 Principal axes and moments of inertia in atomic units:
                           1         2         3
     Eigenvalues --  1053.532857473.128677870.78361
           X            1.00000  -0.00006   0.00035
           Y            0.00005   0.99997   0.00792
           Z           -0.00035  -0.00792   0.99997
 This molecule is an asymmetric top.
 Rotational symmetry number  1.
 Warning -- assumption of classical behavior for rotation
           may cause significant error
 Rotational temperatures (Kelvin)      0.08221     0.01159     0.01100
 Rotational constants (GHZ):           1.71304     0.24150     0.22930
 Zero-point vibrational energy     434681.4 (Joules/Mol)
                                  103.89134 (Kcal/Mol)
 Warning -- explicit consideration of  23 degrees of freedom as
           vibrations may cause significant error
 Vibrational temperatures:     51.71    58.08    90.13   110.86   157.80
          (Kelvin)            175.72   206.84   241.14   251.05   346.31
                              386.71   403.91   530.37   575.95   600.67
                              668.60   684.95   707.80   740.63   805.05
                              818.52   860.11   868.51   938.90   976.39
                             1027.10  1070.15  1076.04  1215.81  1241.11
                             1251.25  1390.03  1401.50  1436.92  1461.82
                             1492.77  1609.76  1644.29  1731.89  1779.72
                             1787.94  1846.73  1918.30  1927.01  2000.49
                             2101.58  2115.91  2148.82  2172.91  2234.70
                             2306.29  2387.21  2464.70  3378.37  3401.90
                             4446.50  4573.67  4599.86  4619.32  4621.57
                             4640.02  4642.84  5136.80

 Zero-point correction=                           0.165561 (Hartree/Particle)
 Thermal correction to Energy=                    0.180037
 Thermal correction to Enthalpy=                  0.180981
 Thermal correction to Gibbs Free Energy=         0.122566
 Sum of electronic and zero-point Energies=          -1002.911628
 Sum of electronic and thermal Energies=             -1002.897153
 Sum of electronic and thermal Enthalpies=           -1002.896209
 Sum of electronic and thermal Free Energies=        -1002.954624

                     E (Thermal)             CV                S
                      KCal/Mol        Cal/Mol-Kelvin    Cal/Mol-Kelvin
 Total                  112.975             52.225            122.944
 Electronic               0.000              0.000              0.000
 Translational            0.889              2.981             42.014
 Rotational               0.889              2.981             32.494
 Vibrational            111.197             46.263             48.436
 Vibration     1          0.594              1.982              5.471
 Vibration     2          0.594              1.981              5.241
 Vibration     3          0.597              1.972              4.372
 Vibration     4          0.599              1.964              3.965
 Vibration     5          0.606              1.941              3.275
 Vibration     6          0.610              1.931              3.066
 Vibration     7          0.616              1.909              2.753
 Vibration     8          0.624              1.882              2.462
 Vibration     9          0.627              1.874              2.387
 Vibration    10          0.658              1.778              1.798
 Vibration    11          0.673              1.731              1.604
 Vibration    12          0.680              1.709              1.529
 Vibration    13          0.741              1.537              1.086
 Vibration    14          0.766              1.469              0.962
 Vibration    15          0.781              1.432              0.901
 Vibration    16          0.822              1.328              0.753
 Vibration    17          0.833              1.303              0.721
 Vibration    18          0.848              1.268              0.679
 Vibration    19          0.870              1.217              0.622
 Vibration    20          0.915              1.119              0.525
 Vibration    21          0.925              1.099              0.506
 Vibration    22          0.956              1.036              0.453
 Vibration    23          0.962              1.024              0.443

 Optimization completed.
    -- Stationary point found.
 Normal termination of Gaussian 16 at Thu Dec 10 17:42:42 2020.

 ----------------------------------------------------------------------
 # B3LYP/6-311++G(d,p) empiricaldispersion=gd3bj scf=xqc pop=npa geom=c
 heck
 ----------------------------------------------------------------------

 --------------------------------------
 CID_13748433_JID_5893_Energie_neutraal
 --------------------------------------
 Structure from the checkpoint file:  "JID_5893.chk"
 Charge =  0 Multiplicity = 1

 SCF Done:  E(RB3LYP) =  -1003.26766181     A.U. after   16 cycles
 Normal termination of Gaussian 16 at Thu Dec 10 17:45:29 2020.

 ----------------------------------------------------------------------
 # B3LYP/6-311++G(d,p) empiricaldispersion=gd3bj scf=xqc pop=npa geom=c
 heck
 ----------------------------------------------------------------------

 ------------------------------------
 CID_13748433_JID_5893_Energie_kation
 ------------------------------------
 Structure from the checkpoint file:  "JID_5893.chk"
 Charge =  1 Multiplicity = 2

 SCF Done:  E(UB3LYP) =  -1002.95360814     A.U. after   27 cycles
 Normal termination of Gaussian 16 at Thu Dec 10 17:51:22 2020.
 Gaussian 16:  ES64L-G16RevA.03 25-Dec-2016

 ----------------------------------------------------------------------
 # B3LYP/6-311++G(d,p) empiricaldispersion=gd3bj scf=xqc pop=npa geom=c
 heck
 ----------------------------------------------------------------------

 -----------------------------------
 CID_13748433_JID_5893_Energie_anion
 -----------------------------------
 Structure from the checkpoint file:  "JID_5893.chk"
 Charge = -1 Multiplicity = 2

                         Standard orientation:
 ---------------------------------------------------------------------
 Center     Atomic      Atomic             Coordinates (Angstroms)
 Number     Number       Type             X           Y           Z
 ---------------------------------------------------------------------
      1          6           0       -0.651196    1.817978    1.117606
      2         16           0       -1.993686    1.350523   -0.036467
      3          6           0       -1.848938   -0.433583   -0.072671
      4          7           0       -0.842015   -1.202829    0.060897
      5          6           0        0.492802   -0.805034   -0.002439
      6          6           0        1.376099   -1.235439    1.001262
      7          6           0        2.719712   -0.894630    0.950142
      8          6           0        3.215237   -0.135226   -0.123965
      9          6           0        2.340972    0.268371   -1.147371
     10          6           0        0.994731   -0.064799   -1.088183
     11          6           0        4.600266    0.217819   -0.178994
     12          7           0        5.726033    0.508797   -0.221301
     13          7           0       -3.079277   -1.065456   -0.300000
     14          6           0       -4.294675   -0.506599   -0.201999
     15          7           0       -5.369946   -0.060902   -0.146687
     16          1           0       -0.933338    2.804037    1.493459
     17          1           0        0.315068    1.870314    0.617075
     18          1           0       -0.607868    1.115697    1.950711
     19          1           0        0.985205   -1.828978    1.820919
     20          1           0        3.396577   -1.215450    1.734856
     21          1           0        2.725731    0.841626   -1.984332
     22          1           0        0.319750    0.242782   -1.879749
     23          1           0       -3.015768   -2.068815   -0.440151
 ---------------------------------------------------------------------

 SCF Done:  E(UB3LYP) =  -1003.29747240     A.U. after   25 cycles

 The electronic state is 2-A.
 Alpha  occ. eigenvalues --  -88.74900 -14.27930 -14.20708 -14.18597 -14.17331
 Alpha  occ. eigenvalues --  -10.15211 -10.14079 -10.09201 -10.07810 -10.07598
 Alpha  occ. eigenvalues --  -10.06625 -10.06246 -10.06120 -10.05199 -10.05058
 Alpha  occ. eigenvalues --   -7.83479  -5.79868  -5.79480  -5.78896  -0.89756
 Alpha  occ. eigenvalues --   -0.81862  -0.78775  -0.77635  -0.73334  -0.68548
 Alpha  occ. eigenvalues --   -0.64543  -0.63379  -0.58118  -0.55120  -0.49960
 Alpha  occ. eigenvalues --   -0.49484  -0.47767  -0.42875  -0.40665  -0.36230
 Alpha  occ. eigenvalues --   -0.35590  -0.33596  -0.32727  -0.32465  -0.31021
 Alpha  occ. eigenvalues --   -0.30025  -0.28173  -0.27539  -0.27224  -0.25559
 Alpha  occ. eigenvalues --   -0.25047  -0.24429  -0.23619  -0.22824  -0.22538
 Alpha  occ. eigenvalues --   -0.20348  -0.17928  -0.16054  -0.14689  -0.13571
 Alpha  occ. eigenvalues --   -0.10678   0.02380
 Alpha virt. eigenvalues --    0.07414   0.08009   0.09250   0.09616   0.09748
 Alpha virt. eigenvalues --    0.09909   0.11033   0.11565   0.11727   0.12096
 Alpha virt. eigenvalues --    0.12862   0.13509   0.13764   0.14604   0.14825

  Beta  occ. eigenvalues --  -88.74890 -14.27907 -14.20650 -14.18554 -14.17123
  Beta  occ. eigenvalues --  -10.14747 -10.14064 -10.09134 -10.07613 -10.07481
  Beta  occ. eigenvalues --  -10.06383 -10.06199 -10.06047 -10.05208 -10.05046
  Beta  occ. eigenvalues --   -7.83468  -5.79844  -5.79487  -5.78864  -0.89491
  Beta  occ. eigenvalues --   -0.81569  -0.78588  -0.77322  -0.73031  -0.68313
  Beta  occ. eigenvalues --   -0.64036  -0.63149  -0.57717  -0.54876  -0.49782
  Beta  occ. eigenvalues --   -0.49194  -0.47599  -0.42724  -0.40317  -0.35944
  Beta  occ. eigenvalues --   -0.35197  -0.33242  -0.32586  -0.32248  -0.30969
  Beta  occ. eigenvalues --   -0.29806  -0.27911  -0.27256  -0.26591  -0.25116
  Beta  occ. eigenvalues --   -0.24716  -0.24167  -0.23301  -0.22312  -0.21760
  Beta  occ. eigenvalues --   -0.20232  -0.17332  -0.15618  -0.14039  -0.13136
  Beta  occ. eigenvalues --   -0.09640
  Beta virt. eigenvalues --    0.07085   0.07455   0.08536   0.09234   0.09585
  Beta virt. eigenvalues --    0.10018   0.10933   0.11525   0.11657   0.11731
  Beta virt. eigenvalues --    0.12239   0.12902   0.13576   0.13814   0.14679

 Mulliken charges and spin densities:
               1          2
     1  C   -0.591590  -0.094045
     2  S    0.310662   0.102443
     3  C   -0.396018   0.236075
     4  N   -0.069116   0.015645
     5  C   -0.718655   0.108681
     6  C    0.289374   0.050886
     7  C   -0.387360   0.053301
     8  C    1.756606   0.143585
     9  C   -0.404268   0.113345
    10  C   -0.020064   0.033716
    11  C   -1.687888  -0.060785
    12  N   -0.299474   0.112202
    13  N    0.025202  -0.007176
    14  C    0.166273   0.057953
    15  N   -0.342334   0.020281
    16  H    0.162871   0.018273
    17  H    0.149895   0.029634
    18  H    0.142356   0.048531
    19  H    0.152226   0.003974
    20  H    0.155773   0.000112
    21  H    0.170280  -0.003281
    22  H    0.141908  -0.002128
    23  H    0.293339   0.018779
 Sum of Mulliken charges =  -1.00000   1.00000

 Dipole moment (field-independent basis, Debye):
    X=             -3.6481    Y=             -1.1197    Z=              0.7126  Tot=              3.8820
 Quadrupole moment (field-independent basis, Debye-Ang):
   XX=           -215.8948   YY=           -102.2065   ZZ=            -98.7513
   XY=              1.6624   XZ=              2.9392   YZ=              1.0683

 Summary of Natural Population Analysis:

                                       Natural Population
                Natural  -----------------------------------------------
    Atom  No    Charge         Core      Valence    Rydberg      Total
 -----------------------------------------------------------------------
      C    1   -0.33910      0.99961     2.33381    0.00568     3.33910
      S    2    0.10255      4.99956     2.87968    0.01821     7.89745
      C    3    0.22800      0.99953     1.75291    0.01955     2.77200
      N    4   -0.26675      0.99957     2.75454    0.01264     3.76675
      C    5    0.12569      0.99946     1.86118    0.01367     2.87431
      C    6   -0.11162      0.99952     2.10239    0.00971     3.11162
      C    7   -0.06906      0.99955     2.06048    0.00903     3.06906
      C    8   -0.07535      0.99942     2.06511    0.01082     3.07535
      C    9   -0.06467      0.99955     2.05584    0.00928     3.06467
      C   10   -0.12356      0.99952     2.11502    0.00902     3.12356
      C   11    0.14961      0.99964     1.83273    0.01802     2.85039
      N   12   -0.17899      0.99979     2.66812    0.01108     3.67899
      N   13   -0.33119      0.99959     2.82216    0.00943     3.83119
      C   14    0.22654      0.99965     1.75723    0.01658     2.77346
      N   15   -0.20266      0.99978     2.69461    0.00827     3.70266
      H   16    0.10103      0.00000     0.39769    0.00128     0.39897
      H   17    0.11177      0.00000     0.38642    0.00181     0.38823
      H   18    0.10925      0.00000     0.38941    0.00134     0.39075
      H   19    0.09977      0.00000     0.39938    0.00085     0.40023
      H   20    0.09805      0.00000     0.40119    0.00076     0.40195
      H   21    0.09847      0.00000     0.40076    0.00077     0.40153
      H   22    0.10284      0.00000     0.39633    0.00083     0.39716
      H   23    0.20937      0.00000     0.28818    0.00244     0.29063
 =======================================================================
   * Total *    0.00000     18.99375    36.81517    0.19107    56.00000

 Normal termination of Gaussian 16 at Thu Dec 10 17:56:16 2020.
