 Gaussian 16, Revision A.03,

 -----------------------------------------------------------
 # opt freq B3LYP/6-31G(d) empiricaldispersion=gd3bj scf=xqc
 -----------------------------------------------------------

 -------------------------------
 CID_23257783_JID_10856_neutraal
 -------------------------------
 Symbolic Z-matrix:
 Charge =  0 Multiplicity = 1

 SCF Done:  E(RB3LYP) =  -933.767792432     A.U. after   17 cycles
 SCF Done:  E(RB3LYP) =  -933.793404608     A.U. after   15 cycles
 SCF Done:  E(RB3LYP) =  -933.800601875     A.U. after   15 cycles
 SCF Done:  E(RB3LYP) =  -933.800396772     A.U. after   15 cycles
 SCF Done:  E(RB3LYP) =  -933.803362153     A.U. after   14 cycles
 SCF Done:  E(RB3LYP) =  -933.803709052     A.U. after   13 cycles
 SCF Done:  E(RB3LYP) =  -933.803322213     A.U. after   14 cycles
 SCF Done:  E(RB3LYP) =  -933.803858568     A.U. after   13 cycles
 SCF Done:  E(RB3LYP) =  -933.803890609     A.U. after   11 cycles
 SCF Done:  E(RB3LYP) =  -933.803903907     A.U. after   11 cycles
 SCF Done:  E(RB3LYP) =  -933.803908267     A.U. after   10 cycles
 SCF Done:  E(RB3LYP) =  -933.803910501     A.U. after   10 cycles
 SCF Done:  E(RB3LYP) =  -933.803910938     A.U. after    8 cycles
 Optimization completed.
    -- Stationary point found.
 Normal termination of Gaussian 16 at Sat Dec 12 16:10:34 2020.

 --------------------------------------------------------------------
 #N Geom=AllCheck Guess=TCheck SCRF=Check GenChk RB3LYP/6-31G(d) Freq
 --------------------------------------------------------------------

 Structure from the checkpoint file:  "JID_10856.chk"
 -------------------------------
 CID_23257783_JID_10856_neutraal
 -------------------------------
 Charge =  0 Multiplicity = 1

 SCF Done:  E(RB3LYP) =  -933.803910938     A.U. after    1 cycles

  Exact polarizability: 226.341   9.834 150.570  -2.771   5.077 164.719
 Approx polarizability: 430.254  24.053 213.174  -6.791  25.634 304.068

                      1                      2                      3
                      A                      A                      A
 Frequencies --     20.9786                44.7418                52.7449
 Red. masses --      6.3049                 5.0900                 6.0861
 Frc consts  --      0.0016                 0.0060                 0.0100
 IR Inten    --      1.2186                 0.9411                 1.0301

                      4                      5                      6
                      A                      A                      A
 Frequencies --     65.3083                76.5314                91.7342
 Red. masses --      4.6942                 6.1628                 4.7547
 Frc consts  --      0.0118                 0.0213                 0.0236
 IR Inten    --      1.0136                 0.7714                 0.4787

                      7                      8                      9
                      A                      A                      A
 Frequencies --    124.4391               132.3259               134.3087
 Red. masses --      4.1011                 1.2981                 1.4382
 Frc consts  --      0.0374                 0.0134                 0.0153
 IR Inten    --      4.6093                 1.0516                 0.8275

                     10                     11                     12
                      A                      A                      A
 Frequencies --    144.7267               160.8440               168.4426
 Red. masses --      3.2126                 3.1650                 3.8889
 Frc consts  --      0.0396                 0.0482                 0.0650
 IR Inten    --      0.4691                 0.2103                 6.0461

                     13                     14                     15
                      A                      A                      A
 Frequencies --    207.6133               224.3727               283.8238
 Red. masses --      5.2857                 4.8921                 3.8703
 Frc consts  --      0.1342                 0.1451                 0.1837
 IR Inten    --      5.1531                 9.2902                19.8975

                     16                     17                     18
                      A                      A                      A
 Frequencies --    304.1621               309.1752               346.5667
 Red. masses --      4.4674                 4.2762                 4.9330
 Frc consts  --      0.2435                 0.2408                 0.3491
 IR Inten    --      0.8740                 8.2770                 8.5565

                     19                     20                     21
                      A                      A                      A
 Frequencies --    360.2426               379.0213               414.2087
 Red. masses --      4.2009                 6.7562                 6.3494
 Frc consts  --      0.3212                 0.5718                 0.6418
 IR Inten    --      2.9846                12.7160                 6.2059

                     22                     23                     24
                      A                      A                      A
 Frequencies --    448.2377               472.2122               494.4682
 Red. masses --      7.9077                 5.3314                 4.5640
 Frc consts  --      0.9361                 0.7004                 0.6575
 IR Inten    --      0.7294                 3.0983                 7.0233

                     25                     26                     27
                      A                      A                      A
 Frequencies --    511.1975               546.6828               576.2927
 Red. masses --      5.9255                 8.0136                 5.7275
 Frc consts  --      0.9123                 1.4111                 1.1207
 IR Inten    --      2.0165                 0.3439                 0.8821

                     28                     29                     30
                      A                      A                      A
 Frequencies --    629.7086               653.2961               668.8565
 Red. masses --      5.6214                 3.2298                 3.8445
 Frc consts  --      1.3133                 0.8122                 1.0133
 IR Inten    --      3.7428                 1.9325                 2.9950

                     31                     32                     33
                      A                      A                      A
 Frequencies --    678.7447               717.6029               734.4882
 Red. masses --      6.4125                 2.8273                 2.9642
 Frc consts  --      1.7406                 0.8578                 0.9422
 IR Inten    --      1.1101                 3.2465                32.4331

                     34                     35                     36
                      A                      A                      A
 Frequencies --    761.2713               789.7159               802.9663
 Red. masses --      2.4349                 5.3827                 3.4181
 Frc consts  --      0.8314                 1.9778                 1.2985
 IR Inten    --     43.0532                21.8707                17.1695

                     37                     38                     39
                      A                      A                      A
 Frequencies --    810.5343               825.2222               841.3173
 Red. masses --      6.3549                 4.4150                 4.3210
 Frc consts  --      2.4598                 1.7714                 1.8020
 IR Inten    --     15.8736                 9.1073                 3.6283

                     40                     41                     42
                      A                      A                      A
 Frequencies --    885.0756               917.1489               933.3269
 Red. masses --      2.1919                 3.2849                 1.3669
 Frc consts  --      1.0116                 1.6280                 0.7016
 IR Inten    --     26.3353                 3.1139                 0.2400

                     43                     44                     45
                      A                      A                      A
 Frequencies --    975.1120               984.4653              1009.8390
 Red. masses --      1.9677                 2.3721                 6.6801
 Frc consts  --      1.1023                 1.3545                 4.0136
 IR Inten    --      0.2569                 9.8333                 1.0616

                     46                     47                     48
                      A                      A                      A
 Frequencies --   1058.8952              1097.2228              1132.8839
 Red. masses --      8.0869                 2.0280                 1.3477
 Frc consts  --      5.3424                 1.4385                 1.0191
 IR Inten    --     58.8780                 8.4881                14.1229

                     49                     50                     51
                      A                      A                      A
 Frequencies --   1153.1126              1166.8724              1172.3304
 Red. masses --      2.0925                 3.1411                 3.1057
 Frc consts  --      1.6393                 2.5199                 2.5148
 IR Inten    --     25.0771               100.0435                60.2616

                     52                     53                     54
                      A                      A                      A
 Frequencies --   1185.1470              1185.5680              1222.0034
 Red. masses --      1.2928                 1.2758                 1.5333
 Frc consts  --      1.0699                 1.0565                 1.3491
 IR Inten    --      2.7500                 0.7562                25.1423

                     55                     56                     57
                      A                      A                      A
 Frequencies --   1224.9895              1234.3985              1258.4963
 Red. masses --      1.6350                 1.9604                 6.8597
 Frc consts  --      1.4456                 1.7599                 6.4011
 IR Inten    --     35.6235                10.3485               841.3684

                     58                     59                     60
                      A                      A                      A
 Frequencies --   1296.5941              1320.6191              1354.6042
 Red. masses --      2.4379                 4.8695                 2.6535
 Frc consts  --      2.4148                 5.0037                 2.8688
 IR Inten    --    101.4910                63.9990                 9.8317

                     61                     62                     63
                      A                      A                      A
 Frequencies --   1395.3789              1412.6912              1490.5220
 Red. masses --      2.2939                 1.8612                 1.1945
 Frc consts  --      2.6315                 2.1884                 1.5636
 IR Inten    --     12.9355                 0.8934                10.2011

                     64                     65                     66
                      A                      A                      A
 Frequencies --   1490.5858              1511.4222              1511.5148
 Red. masses --      1.1934                 1.0478                 1.0486
 Frc consts  --      1.5622                 1.4102                 1.4116
 IR Inten    --      6.4152                 7.6054                 6.9504

                     67                     68                     69
                      A                      A                      A
 Frequencies --   1523.2092              1523.5309              1535.6473
 Red. masses --      1.0487                 1.0488                 8.5160
 Frc consts  --      1.4336                 1.4343                11.8322
 IR Inten    --     11.3600                 7.9953                27.4215

                     70                     71                     72
                      A                      A                      A
 Frequencies --   1593.7708              1600.3723              1626.2052
 Red. masses --     10.6409                 6.7287                 6.5078
 Frc consts  --     15.9250                10.1537                10.1399
 IR Inten    --     65.9840                21.1776                 7.9543

                     73                     74                     75
                      A                      A                      A
 Frequencies --   1647.5534              1793.1812              1798.0659
 Red. masses --      7.4344                11.7871                11.7696
 Frc consts  --     11.8898                22.3309                22.4193
 IR Inten    --      9.0482               200.5112               158.2293

                     76                     77                     78
                      A                      A                      A
 Frequencies --   2334.8791              3075.4013              3077.6472
 Red. masses --     12.6703                 1.0297                 1.0294
 Frc consts  --     40.6973                 5.7379                 5.7450
 IR Inten    --     25.9070                33.7875                32.6445

                     79                     80                     81
                      A                      A                      A
 Frequencies --   3150.4648              3153.2580              3173.9223
 Red. masses --      1.1071                 1.1076                 1.0878
 Frc consts  --      6.4745                 6.4885                 6.4565
 IR Inten    --     16.1921                15.9811                 2.2354

                     82                     83                     84
                      A                      A                      A
 Frequencies --   3184.4984              3186.8355              3205.1640
 Red. masses --      1.1072                 1.1073                 1.0918
 Frc consts  --      6.6155                 6.6257                 6.6084
 IR Inten    --     14.7513                15.1788                 8.5579

                     85                     86                     87
                      A                      A                      A
 Frequencies --   3236.4374              3245.5536              3266.0366
 Red. masses --      1.0941                 1.0882                 1.1043
 Frc consts  --      6.7524                 6.7538                 6.9406
 IR Inten    --      4.3859                 0.2501                 5.4020

 - Thermochemistry -
 -------------------
 Temperature   298.150 Kelvin.  Pressure   1.00000 Atm.
 Atom     1 has atomic number  6 and mass  12.00000

 Molecular mass:   269.06881 amu.
 Principal axes and moments of inertia in atomic units:
                           1         2         3
     Eigenvalues --  4757.240025520.182617546.85934
           X            0.99917  -0.04079   0.00038
           Y            0.04079   0.99911  -0.01067
           Z            0.00006   0.01068   0.99994
 This molecule is an asymmetric top.
 Rotational symmetry number  1.
 Warning -- assumption of classical behavior for rotation
           may cause significant error
 Rotational temperatures (Kelvin)      0.01821     0.01569     0.01148
 Rotational constants (GHZ):           0.37937     0.32694     0.23914
 Zero-point vibrational energy     601252.6 (Joules/Mol)
                                  143.70282 (Kcal/Mol)
 Warning -- explicit consideration of  27 degrees of freedom as
           vibrations may cause significant error
 Vibrational temperatures:     30.18    64.37    75.89    93.96   110.11
          (Kelvin)            131.99   179.04   190.39   193.24   208.23
                              231.42   242.35   298.71   322.82   408.36
                              437.62   444.83   498.63   518.31   545.33
                              595.95   644.91   679.41   711.43   735.50
                              786.55   829.16   906.01   939.95   962.34
                              976.56  1032.47  1056.76  1095.30  1136.23
                             1155.29  1166.18  1187.31  1210.47  1273.43
                             1319.57  1342.85  1402.97  1416.43  1452.93
                             1523.51  1578.66  1629.97  1659.07  1678.87
                             1686.72  1705.16  1705.77  1758.19  1762.49
                             1776.02  1810.70  1865.51  1900.08  1948.97
                             2007.64  2032.55  2144.53  2144.62  2174.60
                             2174.73  2191.56  2192.02  2209.45  2293.08
                             2302.58  2339.75  2370.46  2579.99  2587.02
                             3359.37  4424.82  4428.05  4532.82  4536.84
                             4566.57  4581.78  4585.15  4611.52  4656.51
                             4669.63  4699.10

 Zero-point correction=                           0.229005 (Hartree/Particle)
 Thermal correction to Energy=                    0.247451
 Thermal correction to Enthalpy=                  0.248396
 Thermal correction to Gibbs Free Energy=         0.180852
 Sum of electronic and zero-point Energies=           -933.574906
 Sum of electronic and thermal Energies=              -933.556459
 Sum of electronic and thermal Enthalpies=            -933.555515
 Sum of electronic and thermal Free Energies=         -933.623059

                     E (Thermal)             CV                S
                      KCal/Mol        Cal/Mol-Kelvin    Cal/Mol-Kelvin
 Total                  155.278             67.157            142.158
 Electronic               0.000              0.000              0.000
 Translational            0.889              2.981             42.668
 Rotational               0.889              2.981             33.649
 Vibrational            153.501             61.196             65.841
 Vibration     1          0.593              1.986              6.539
 Vibration     2          0.595              1.980              5.037
 Vibration     3          0.596              1.977              4.712
 Vibration     4          0.597              1.971              4.290
 Vibration     5          0.599              1.965              3.978
 Vibration     6          0.602              1.955              3.623
 Vibration     7          0.610              1.929              3.030
 Vibration     8          0.612              1.921              2.912
 Vibration     9          0.613              1.919              2.883
 Vibration    10          0.616              1.908              2.740
 Vibration    11          0.622              1.890              2.540
 Vibration    12          0.625              1.881              2.453
 Vibration    13          0.641              1.829              2.065
 Vibration    14          0.649              1.804              1.924
 Vibration    15          0.682              1.704              1.511
 Vibration    16          0.695              1.666              1.394
 Vibration    17          0.699              1.656              1.367
 Vibration    18          0.725              1.582              1.182
 Vibration    19          0.735              1.554              1.121
 Vibration    20          0.749              1.515              1.043
 Vibration    21          0.778              1.439              0.912
 Vibration    22          0.807              1.365              0.801
 Vibration    23          0.829              1.312              0.731
 Vibration    24          0.850              1.262              0.672
 Vibration    25          0.866              1.225              0.631
 Vibration    26          0.902              1.147              0.551
 Vibration    27          0.933              1.083              0.492

                           ! Non-Optimized Parameters !
 Normal termination of Gaussian 16 at Sat Dec 12 16:28:43 2020.

 ----------------------------------------------------------------------
 # B3LYP/6-311++G(d,p) empiricaldispersion=gd3bj scf=xqc pop=npa geom=c
 heck
 ----------------------------------------------------------------------

 ---------------------------------------
 CID_23257783_JID_10856_Energie_neutraal
 ---------------------------------------
 Structure from the checkpoint file:  "JID_10856.chk"
 Charge =  0 Multiplicity = 1

 SCF Done:  E(RB3LYP) =  -934.060066186     A.U. after   18 cycles
 Normal termination of Gaussian 16 at Sat Dec 12 16:37:14 2020.

 ----------------------------------------------------------------------
 # B3LYP/6-311++G(d,p) empiricaldispersion=gd3bj scf=xqc pop=npa geom=c
 heck
 ----------------------------------------------------------------------

 -------------------------------------
 CID_23257783_JID_10856_Energie_kation
 -------------------------------------
 Structure from the checkpoint file:  "JID_10856.chk"
 Charge =  1 Multiplicity = 2

 SCF Done:  E(UB3LYP) =  -933.759315800     A.U. after   30 cycles
 Normal termination of Gaussian 16 at Sat Dec 12 16:57:42 2020.
 Gaussian 16:  ES64L-G16RevA.03 25-Dec-2016

 ----------------------------------------------------------------------
 # B3LYP/6-311++G(d,p) empiricaldispersion=gd3bj scf=xqc pop=npa geom=c
 heck
 ----------------------------------------------------------------------

 ------------------------------------
 CID_23257783_JID_10856_Energie_anion
 ------------------------------------
 Structure from the checkpoint file:  "JID_10856.chk"
 Charge = -1 Multiplicity = 2

                         Standard orientation:
 ---------------------------------------------------------------------
 Center     Atomic      Atomic             Coordinates (Angstroms)
 Number     Number       Type             X           Y           Z
 ---------------------------------------------------------------------
      1          6           0       -1.464017   -3.906689    0.908533
      2          8           0       -1.599713   -2.528169    0.532416
      3          6           0       -0.900963   -2.169425   -0.570986
      4          8           0       -0.267647   -2.950779   -1.250670
      5          6           0       -1.065389   -0.722651   -0.885882
      6          6           0       -1.423502    0.182517    0.072581
      7          6           0       -0.716972    0.050467    1.358114
      8          6           0        0.633234    0.082713    1.197058
      9          6           0        1.626359    0.151495    2.277370
     10          6           0        2.846635    0.356673    1.735841
     11          6           0        2.699451    0.435772    0.273105
     12          6           0        1.382273    0.255240   -0.097252
     13          6           0        0.954356    0.247774   -1.504031
     14          6           0       -0.230493   -0.198204   -1.985598
     15          6           0        3.779834    0.668416   -0.617317
     16          7           0        4.669947    0.866202   -1.342201
     17          6           0       -1.923371    1.528584   -0.323832
     18          8           0       -2.374711    1.815043   -1.412693
     19          8           0       -1.872925    2.386783    0.721733
     20          6           0       -2.395880    3.698184    0.457143
     21          1           0       -2.088370   -4.030962    1.793366
     22          1           0       -0.420088   -4.140579    1.135073
     23          1           0       -1.805136   -4.557173    0.099378
     24          1           0       -1.179594    0.095571    2.339639
     25          1           0        1.381629    0.061227    3.327834
     26          1           0        3.792650    0.460995    2.251019
     27          1           0        1.732976    0.532460   -2.209611
     28          1           0       -0.430878   -0.299056   -3.045483
     29          1           0       -1.820280    4.183399   -0.335126
     30          1           0       -3.442929    3.636864    0.149364
     31          1           0       -2.298979    4.245619    1.394577
 ---------------------------------------------------------------------

 SCF Done:  E(UB3LYP) =  -934.143656261     A.U. after   25 cycles

 The electronic state is 2-A.
 Alpha  occ. eigenvalues --  -19.05557 -19.04800 -18.98418 -18.98299 -14.18355
 Alpha  occ. eigenvalues --  -10.17394 -10.16995 -10.12864 -10.12390 -10.08560
 Alpha  occ. eigenvalues --  -10.06987 -10.06914 -10.06422 -10.06184 -10.05627
 Alpha  occ. eigenvalues --  -10.05580 -10.05504 -10.05447 -10.05414 -10.04810
 Alpha  occ. eigenvalues --   -0.99201  -0.98693  -0.90026  -0.89701  -0.78445
 Alpha  occ. eigenvalues --   -0.75901  -0.71991  -0.67038  -0.63702  -0.63082
 Alpha  occ. eigenvalues --   -0.60743  -0.59676  -0.53291  -0.52294  -0.47711
 Alpha  occ. eigenvalues --   -0.46612  -0.45538  -0.43419  -0.41319  -0.38899
 Alpha  occ. eigenvalues --   -0.38116  -0.37779  -0.37451  -0.36390  -0.35467
 Alpha  occ. eigenvalues --   -0.34957  -0.34031  -0.32476  -0.31041  -0.30335
 Alpha  occ. eigenvalues --   -0.29554  -0.28708  -0.28178  -0.27553  -0.27072
 Alpha  occ. eigenvalues --   -0.25867  -0.25301  -0.24535  -0.24197  -0.23071
 Alpha  occ. eigenvalues --   -0.22380  -0.20548  -0.19951  -0.19591  -0.17123
 Alpha  occ. eigenvalues --   -0.16794  -0.16041  -0.13863  -0.11725  -0.09015
 Alpha  occ. eigenvalues --   -0.02796
 Alpha virt. eigenvalues --    0.04272   0.07273   0.07596   0.08860   0.09885
 Alpha virt. eigenvalues --    0.10583   0.10705   0.11068   0.11415   0.11525
 Alpha virt. eigenvalues --    0.12095   0.12502   0.13036   0.13413   0.14005

  Beta  occ. eigenvalues --  -19.05534 -19.04734 -18.98328 -18.98185 -14.18238
  Beta  occ. eigenvalues --  -10.17353 -10.16978 -10.12866 -10.12393 -10.08594
  Beta  occ. eigenvalues --  -10.06829 -10.06670 -10.06302 -10.06157 -10.05576
  Beta  occ. eigenvalues --  -10.05545 -10.05402 -10.05363 -10.05073 -10.04699
  Beta  occ. eigenvalues --   -0.99123  -0.98556  -0.89888  -0.89509  -0.78250
  Beta  occ. eigenvalues --   -0.75533  -0.71478  -0.66670  -0.63561  -0.62899
  Beta  occ. eigenvalues --   -0.60452  -0.59358  -0.52832  -0.51921  -0.47495
  Beta  occ. eigenvalues --   -0.46449  -0.45319  -0.43270  -0.41106  -0.38723
  Beta  occ. eigenvalues --   -0.37909  -0.37677  -0.37255  -0.36192  -0.35344
  Beta  occ. eigenvalues --   -0.34797  -0.33747  -0.32370  -0.30854  -0.30145
  Beta  occ. eigenvalues --   -0.29263  -0.28305  -0.27940  -0.26925  -0.26827
  Beta  occ. eigenvalues --   -0.25764  -0.25131  -0.24353  -0.23913  -0.22831
  Beta  occ. eigenvalues --   -0.21840  -0.20450  -0.19670  -0.19116  -0.16871
  Beta  occ. eigenvalues --   -0.16326  -0.15729  -0.12698  -0.10255  -0.08396
  Beta virt. eigenvalues --    0.02588   0.05723   0.07272   0.07596   0.08863
  Beta virt. eigenvalues --    0.09887   0.10669   0.10911   0.11399   0.11525
  Beta virt. eigenvalues --    0.11618   0.12102   0.12507   0.13163   0.13461

 Mulliken charges and spin densities:
               1          2
     1  C   -0.230902  -0.002016
     2  O    0.024089   0.007194
     3  C   -0.594840   0.010717
     4  O   -0.247650   0.044564
     5  C    0.269055   0.236197
     6  C    0.287734   0.024191
     7  C   -0.275112   0.212282
     8  C    0.427972  -0.019170
     9  C   -0.289641   0.081928
    10  C   -0.153422   0.014798
    11  C    1.456339   0.128342
    12  C    0.433720   0.105105
    13  C   -0.403210   0.014907
    14  C   -0.291957   0.029488
    15  C   -1.853037  -0.029653
    16  N   -0.261130   0.059095
    17  C   -0.415280   0.054360
    18  O   -0.260370   0.031283
    19  O   -0.044771   0.007302
    20  C   -0.239228   0.001909
    21  H    0.127470   0.000221
    22  H    0.171664   0.000206
    23  H    0.154089   0.001806
    24  H    0.161805  -0.007614
    25  H    0.111550  -0.007210
    26  H    0.133954  -0.002833
    27  H    0.181421   0.000706
    28  H    0.157664   0.000738
    29  H    0.176033  -0.000313
    30  H    0.156737   0.001524
    31  H    0.129251  -0.000053
 Sum of Mulliken charges =  -1.00000   1.00000

 Dipole moment (field-independent basis, Debye):
    X=             -5.6098    Y=              0.1403    Z=              5.3821  Tot=              7.7754
 Quadrupole moment (field-independent basis, Debye-Ang):
   XX=           -167.5201   YY=           -127.2886   ZZ=           -129.2339
   XY=             -3.7694   XZ=              4.3843   YZ=             -1.8392

 Summary of Natural Population Analysis:

                                       Natural Population
                Natural  -----------------------------------------------
    Atom  No    Charge         Core      Valence    Rydberg      Total
 -----------------------------------------------------------------------
      C    1   -0.10587      0.99961     2.09791    0.00835     3.10587
      O    2   -0.27059      0.99986     3.26271    0.00802     4.27059
      C    3    0.39281      0.99962     1.58365    0.02393     2.60719
      O    4   -0.29828      0.99987     3.29258    0.00583     4.29828
      C    5    0.03956      0.99934     1.94608    0.01502     2.96044
      C    6   -0.04445      0.99935     2.03070    0.01440     3.04445
      C    7    0.01796      0.99944     1.97349    0.00911     2.98204
      C    8   -0.03809      0.99949     2.02666    0.01194     3.03809
      C    9   -0.08374      0.99951     2.07564    0.00859     3.08374
      C   10   -0.09026      0.99953     2.08257    0.00816     3.09026
      C   11   -0.06711      0.99936     2.05681    0.01094     3.06711
      C   12    0.01275      0.99944     1.97738    0.01043     2.98725
      C   13   -0.08579      0.99952     2.07874    0.00754     3.08579
      C   14   -0.07354      0.99950     2.06327    0.01077     3.07354
      C   15    0.14877      0.99963     1.83420    0.01740     2.85123
      N   16   -0.18327      0.99979     2.67262    0.01086     3.68327
      C   17    0.39904      0.99962     1.57757    0.02378     2.60096
      O   18   -0.30350      0.99987     3.29790    0.00573     4.30350
      O   19   -0.27587      0.99986     3.26835    0.00765     4.27587
      C   20   -0.10545      0.99961     2.09759    0.00825     3.10545
      H   21    0.08489      0.00000     0.41430    0.00080     0.41511
      H   22    0.08962      0.00000     0.40928    0.00111     0.41038
      H   23    0.08836      0.00000     0.41046    0.00118     0.41164
      H   24    0.09411      0.00000     0.40474    0.00115     0.40589
      H   25    0.09527      0.00000     0.40382    0.00091     0.40473
      H   26    0.09703      0.00000     0.40210    0.00088     0.40297
      H   27    0.10218      0.00000     0.39641    0.00141     0.39782
      H   28    0.09973      0.00000     0.39919    0.00107     0.40027
      H   29    0.09031      0.00000     0.40859    0.00110     0.40969
      H   30    0.08762      0.00000     0.41120    0.00117     0.41238
      H   31    0.08581      0.00000     0.41341    0.00078     0.41419
 =======================================================================
   * Total *   -0.00000     19.99182    49.76991    0.23827    70.00000

 Normal termination of Gaussian 16 at Sat Dec 12 17:14:27 2020.
