 Gaussian 16, Revision A.03,

 -----------------------------------------------------------
 # opt freq B3LYP/6-31G(d) empiricaldispersion=gd3bj scf=xqc
 -----------------------------------------------------------

 --------------------------------
 CID_139787256_JID_10993_neutraal
 --------------------------------
 Symbolic Z-matrix:
 Charge =  0 Multiplicity = 1

 SCF Done:  E(RB3LYP) =  -941.176268527     A.U. after   15 cycles
 SCF Done:  E(RB3LYP) =  -941.182022953     A.U. after   12 cycles
 SCF Done:  E(RB3LYP) =  -941.182875090     A.U. after   12 cycles
 SCF Done:  E(RB3LYP) =  -941.183757695     A.U. after   12 cycles
 SCF Done:  E(RB3LYP) =  -941.184453056     A.U. after   11 cycles
 SCF Done:  E(RB3LYP) =  -941.184619489     A.U. after   11 cycles
 SCF Done:  E(RB3LYP) =  -941.184678156     A.U. after   11 cycles
 SCF Done:  E(RB3LYP) =  -941.184758935     A.U. after   10 cycles
 SCF Done:  E(RB3LYP) =  -941.184771259     A.U. after   10 cycles
 SCF Done:  E(RB3LYP) =  -941.184774534     A.U. after    9 cycles
 SCF Done:  E(RB3LYP) =  -941.184775236     A.U. after    8 cycles
 SCF Done:  E(RB3LYP) =  -941.184775680     A.U. after    8 cycles
 SCF Done:  E(RB3LYP) =  -941.184775753     A.U. after    7 cycles
 SCF Done:  E(RB3LYP) =  -941.184775779     A.U. after    6 cycles
 Optimization completed.
    -- Stationary point found.
 Normal termination of Gaussian 16 at Sun Dec 13 16:53:27 2020.

 --------------------------------------------------------------------
 #N Geom=AllCheck Guess=TCheck SCRF=Check GenChk RB3LYP/6-31G(d) Freq
 --------------------------------------------------------------------

 Structure from the checkpoint file:  "JID_10993.chk"
 --------------------------------
 CID_139787256_JID_10993_neutraal
 --------------------------------
 Charge =  0 Multiplicity = 1

 SCF Done:  E(RB3LYP) =  -941.184775779     A.U. after    1 cycles

  Exact polarizability: 203.967   6.558 185.212 -13.121  12.269 147.959
 Approx polarizability: 284.637  16.270 268.462 -31.936  28.903 212.341

                      1                      2                      3
                      A                      A                      A
 Frequencies --     16.3643                30.9134                42.4464
 Red. masses --      4.3345                 3.1698                 3.7470
 Frc consts  --      0.0007                 0.0018                 0.0040
 IR Inten    --      0.2098                 0.1661                 0.3445

                      4                      5                      6
                      A                      A                      A
 Frequencies --     54.5762                61.1117                83.4146
 Red. masses --      3.0140                 3.0589                 3.3163
 Frc consts  --      0.0053                 0.0067                 0.0136
 IR Inten    --      0.8778                 1.2167                 5.9798

                      7                      8                      9
                      A                      A                      A
 Frequencies --     87.9729                94.3851               134.1152
 Red. masses --      5.0822                 3.4780                 4.0389
 Frc consts  --      0.0232                 0.0183                 0.0428
 IR Inten    --      0.2428                 0.3309                 1.1324

                     10                     11                     12
                      A                      A                      A
 Frequencies --    160.6917               176.8044               209.0757
 Red. masses --      2.9661                 3.5155                 1.2202
 Frc consts  --      0.0451                 0.0647                 0.0314
 IR Inten    --      2.2442                 1.6541                 0.2616

                     13                     14                     15
                      A                      A                      A
 Frequencies --    209.9039               215.2058               221.8345
 Red. masses --      1.7062                 1.8946                 3.0286
 Frc consts  --      0.0443                 0.0517                 0.0878
 IR Inten    --      0.0689                 2.8013                 1.2842

                     16                     17                     18
                      A                      A                      A
 Frequencies --    235.9464               252.4794               256.3378
 Red. masses --      1.3212                 2.5414                 1.0824
 Frc consts  --      0.0433                 0.0954                 0.0419
 IR Inten    --      1.4493                 0.7196                 0.0462

                     19                     20                     21
                      A                      A                      A
 Frequencies --    272.8346               283.6893               287.7673
 Red. masses --      1.0812                 1.6580                 1.7054
 Frc consts  --      0.0474                 0.0786                 0.0832
 IR Inten    --      0.0543                 0.7465                 0.9962

                     22                     23                     24
                      A                      A                      A
 Frequencies --    299.5973               324.4219               340.5745
 Red. masses --      2.3985                 2.9648                 3.0956
 Frc consts  --      0.1268                 0.1839                 0.2116
 IR Inten    --      2.7018                 4.5399                 5.0155

                     25                     26                     27
                      A                      A                      A
 Frequencies --    351.1507               390.8183               401.6184
 Red. masses --      2.5189                 3.5470                 4.2366
 Frc consts  --      0.1830                 0.3192                 0.4026
 IR Inten    --      1.4712                 0.2405                 9.6544

                     28                     29                     30
                      A                      A                      A
 Frequencies --    435.8815               447.8513               453.0434
 Red. masses --      3.5167                 3.2115                 4.3367
 Frc consts  --      0.3937                 0.3795                 0.5244
 IR Inten    --      3.4942                 1.0185                 2.3181

                     31                     32                     33
                      A                      A                      A
 Frequencies --    462.5074               521.2931               531.7821
 Red. masses --      3.0054                 5.5527                 3.0748
 Frc consts  --      0.3788                 0.8890                 0.5123
 IR Inten    --      2.6100                 3.3346                 3.0132

                     34                     35                     36
                      A                      A                      A
 Frequencies --    549.2573               624.7596               640.5066
 Red. masses --      5.2024                 4.1900                 4.1484
 Frc consts  --      0.9247                 0.9636                 1.0027
 IR Inten    --      8.1212                 0.1167                 2.3735

                     37                     38                     39
                      A                      A                      A
 Frequencies --    651.5784               707.8484               729.2969
 Red. masses --      3.4830                 2.4263                 2.9931
 Frc consts  --      0.8712                 0.7163                 0.9380
 IR Inten    --      5.1264                 9.8636                 4.0080

                     40                     41                     42
                      A                      A                      A
 Frequencies --    762.2456               773.7443               813.4385
 Red. masses --      9.2343                 4.3347                 1.4071
 Frc consts  --      3.1611                 1.5290                 0.5486
 IR Inten    --     22.1813                 5.3380                25.1300

                     43                     44                     45
                      A                      A                      A
 Frequencies --    830.2603               836.9714               848.5521
 Red. masses --      1.4890                 1.6344                 1.4970
 Frc consts  --      0.6048                 0.6746                 0.6351
 IR Inten    --      2.2835                42.4529                 4.9645

                     46                     47                     48
                      A                      A                      A
 Frequencies --    883.3993               885.8176               937.0834
 Red. masses --      3.8626                 3.7461                 1.6369
 Frc consts  --      1.7760                 1.7319                 0.8469
 IR Inten    --      7.2850                14.8679                 0.0823

                     49                     50                     51
                      A                      A                      A
 Frequencies --    938.6411               964.8214               982.7676
 Red. masses --      1.6345                 5.3242                 1.1977
 Frc consts  --      0.8485                 2.9201                 0.6815
 IR Inten    --      0.0459                16.1266                 0.2514

                     52                     53                     54
                      A                      A                      A
 Frequencies --    984.5685              1018.0816              1054.9514
 Red. masses --      2.6948                 6.1501                 2.6224
 Frc consts  --      1.5391                 3.7557                 1.7196
 IR Inten    --     34.6886                 1.3524                15.3292

                     55                     56                     57
                      A                      A                      A
 Frequencies --   1067.4514              1076.0943              1100.4293
 Red. masses --      1.4029                 1.6039                 2.6749
 Frc consts  --      0.9418                 1.0943                 1.9084
 IR Inten    --      0.1385                 6.0602                58.2546

                     58                     59                     60
                      A                      A                      A
 Frequencies --   1108.9083              1112.6077              1149.5513
 Red. masses --      2.4053                 2.0444                 1.7496
 Frc consts  --      1.7427                 1.4911                 1.3622
 IR Inten    --     56.7720                22.5134                16.9835

                     61                     62                     63
                      A                      A                      A
 Frequencies --   1186.4874              1187.0162              1195.6143
 Red. masses --      1.2716                 1.2710                 3.9839
 Frc consts  --      1.0547                 1.0551                 3.3553
 IR Inten    --      0.5388                 1.2056               204.0415

                     64                     65                     66
                      A                      A                      A
 Frequencies --   1202.3685              1220.3252              1226.5286
 Red. masses --      1.6800                 1.4768                 2.0699
 Frc consts  --      1.4310                 1.2958                 1.8347
 IR Inten    --    137.5863                60.9096               198.1150

                     67                     68                     69
                      A                      A                      A
 Frequencies --   1249.2867              1265.7568              1286.3692
 Red. masses --      2.1411                 2.5238                 2.6793
 Frc consts  --      1.9689                 2.3823                 2.6122
 IR Inten    --    259.9355                94.0122                15.0189

                     70                     71                     72
                      A                      A                      A
 Frequencies --   1293.9924              1298.0909              1338.1777
 Red. masses --      1.5174                 2.5430                 1.7554
 Frc consts  --      1.4970                 2.5247                 1.8521
 IR Inten    --     32.1934                32.0682               102.4056

                     73                     74                     75
                      A                      A                      A
 Frequencies --   1357.0434              1397.8544              1413.4962
 Red. masses --      4.1737                 2.5558                 1.6682
 Frc consts  --      4.5286                 2.9423                 1.9637
 IR Inten    --    195.4457               137.1381                73.0522

                     76                     77                     78
                      A                      A                      A
 Frequencies --   1422.5482              1426.1442              1435.0019
 Red. masses --      1.2879                 1.3305                 1.5565
 Frc consts  --      1.5355                 1.5944                 1.8885
 IR Inten    --     18.3977                33.0875                60.7665

                     79                     80                     81
                      A                      A                      A
 Frequencies --   1439.1111              1451.7261              1485.3224
 Red. masses --      2.1001                 1.2406                 1.4948
 Frc consts  --      2.5626                 1.5404                 1.9430
 IR Inten    --    121.2462                28.6520                78.6606

                     82                     83                     84
                      A                      A                      A
 Frequencies --   1499.6303              1502.2624              1508.7122
 Red. masses --      1.0472                 1.5100                 1.1482
 Frc consts  --      1.3876                 2.0077                 1.5399
 IR Inten    --      0.4650                30.9170                20.1978

                     85                     86                     87
                      A                      A                      A
 Frequencies --   1519.6677              1520.0181              1520.0822
 Red. masses --      1.5417                 1.0675                 1.0887
 Frc consts  --      2.0977                 1.4531                 1.4821
 IR Inten    --     28.4307                 2.2423                 8.4048

                     88                     89                     90
                      A                      A                      A
 Frequencies --   1520.3744              1520.4185              1521.2743
 Red. masses --      1.1000                 1.0988                 1.4137
 Frc consts  --      1.4981                 1.4965                 1.9276
 IR Inten    --     19.2186                 5.9141                49.0692

                     91                     92                     93
                      A                      A                      A
 Frequencies --   1522.5806              1524.8128              1535.0095
 Red. masses --      1.2488                 1.1261                 1.0527
 Frc consts  --      1.7057                 1.5427                 1.4614
 IR Inten    --     11.9351                 4.9901                 0.9962

                     94                     95                     96
                      A                      A                      A
 Frequencies --   1535.7583              1537.9165              1539.7918
 Red. masses --      1.0533                 1.0937                 1.2116
 Frc consts  --      1.4637                 1.5240                 1.6926
 IR Inten    --      3.3100                 9.4190                22.6836

                     97                     98                     99
                      A                      A                      A
 Frequencies --   1557.5072              1653.9417              1665.4908
 Red. masses --      1.0568                 6.1121                 6.5143
 Frc consts  --      1.5105                 9.8510                10.6465
 IR Inten    --     16.5938               276.3466               251.1542

                    100                    101                    102
                      A                      A                      A
 Frequencies --   1776.6230              3027.4270              3027.9030
 Red. masses --     10.4015                 1.0346                 1.0345
 Frc consts  --     19.3436                 5.5868                 5.5883
 IR Inten    --    362.6391                50.4755                52.0895

                    103                    104                    105
                      A                      A                      A
 Frequencies --   3055.1067              3057.9154              3058.1037
 Red. masses --      1.0352                 1.0365                 1.0377
 Frc consts  --      5.6930                 5.7105                 5.7175
 IR Inten    --     21.1362                12.1276                20.4689

                    106                    107                    108
                      A                      A                      A
 Frequencies --   3065.9108              3086.4451              3087.1180
 Red. masses --      1.0379                 1.1063                 1.1060
 Frc consts  --      5.7481                 6.2091                 6.2102
 IR Inten    --     21.4736                28.5409                46.9299

                    109                    110                    111
                      A                      A                      A
 Frequencies --   3087.3338              3119.9437              3120.8973
 Red. masses --      1.0656                 1.1025                 1.1027
 Frc consts  --      5.9844                 6.3229                 6.3282
 IR Inten    --     26.2668                 7.6626                26.0374

                    112                    113                    114
                      A                      A                      A
 Frequencies --   3122.1967              3135.4959              3136.5850
 Red. masses --      1.1022                 1.0994                 1.1031
 Frc consts  --      6.3303                 6.3683                 6.3941
 IR Inten    --     23.9439                18.8724                28.1168

                    115                    116                    117
                      A                      A                      A
 Frequencies --   3137.0615              3155.2216              3159.7556
 Red. masses --      1.1027                 1.1041                 1.1000
 Frc consts  --      6.3939                 6.4763                 6.4709
 IR Inten    --     49.2948                24.1191                33.5217

                    118                    119                    120
                      A                      A                      A
 Frequencies --   3159.9262              3172.4231              3176.6092
 Red. masses --      1.1000                 1.0995                 1.0990
 Frc consts  --      6.4716                 6.5199                 6.5338
 IR Inten    --     20.1796                 2.1087                 8.9589

                    121                    122                    123
                      A                      A                      A
 Frequencies --   3239.1273              3243.4081              3247.4253
 Red. masses --      1.0918                 1.0903                 1.0901
 Frc consts  --      6.7494                 6.7576                 6.7729
 IR Inten    --      1.5793                 2.4936                 2.5425

 - Thermochemistry -
 -------------------
 Temperature   298.150 Kelvin.  Pressure   1.00000 Atm.
 Atom     1 has atomic number  6 and mass  12.00000

 Molecular mass:   281.16271 amu.
 Principal axes and moments of inertia in atomic units:
                           1         2         3
     Eigenvalues --  4450.144028288.010489472.05680
           X            0.99985  -0.01626   0.00518
           Y            0.01635   0.99972  -0.01723
           Z           -0.00490   0.01731   0.99984
 This molecule is an asymmetric top.
 Rotational symmetry number  1.
 Warning -- assumption of classical behavior for rotation
           may cause significant error
 Rotational temperatures (Kelvin)      0.01946     0.01045     0.00914
 Rotational constants (GHZ):           0.40555     0.21775     0.19053
 Zero-point vibrational energy     966113.2 (Joules/Mol)
                                  230.90660 (Kcal/Mol)
 Warning -- explicit consideration of  34 degrees of freedom as
           vibrations may cause significant error
 Vibrational temperatures:     23.54    44.48    61.07    78.52    87.93
          (Kelvin)            120.02   126.57   135.80   192.96   231.20
                              254.38   300.81   302.00   309.63   319.17
                              339.47   363.26   368.81   392.55   408.17
                              414.03   431.05   466.77   490.01   505.23
                              562.30   577.84   627.14   644.36   651.83
                              665.45   750.02   765.12   790.26   898.89
                              921.55   937.48  1018.44  1049.30  1096.70
                             1113.25  1170.36  1194.56  1204.22  1220.88
                             1271.01  1274.49  1348.25  1350.50  1388.16
                             1413.98  1416.57  1464.79  1517.84  1535.82
                             1548.26  1583.27  1595.47  1600.79  1653.95
                             1707.09  1707.85  1720.22  1729.94  1755.78
                             1764.70  1797.44  1821.14  1850.80  1861.77
                             1867.66  1925.34  1952.48  2011.20  2033.71
                             2046.73  2051.90  2064.65  2070.56  2088.71
                             2137.05  2157.63  2161.42  2170.70  2186.46
                             2186.97  2187.06  2187.48  2187.54  2188.77
                             2190.65  2193.87  2208.54  2209.61  2212.72
                             2215.42  2240.91  2379.65  2396.27  2556.16
                             4355.79  4356.48  4395.62  4399.66  4399.93
                             4411.16  4440.71  4441.67  4441.98  4488.90
                             4490.28  4492.14  4511.28  4512.85  4513.53
                             4539.66  4546.18  4546.43  4564.41  4570.43
                             4660.38  4666.54  4672.32

 Zero-point correction=                           0.367973 (Hartree/Particle)
 Thermal correction to Energy=                    0.389959
 Thermal correction to Enthalpy=                  0.390903
 Thermal correction to Gibbs Free Energy=         0.315947
 Sum of electronic and zero-point Energies=           -940.816803
 Sum of electronic and thermal Energies=              -940.794817
 Sum of electronic and thermal Enthalpies=            -940.793873
 Sum of electronic and thermal Free Energies=         -940.868829

                     E (Thermal)             CV                S
                      KCal/Mol        Cal/Mol-Kelvin    Cal/Mol-Kelvin
 Total                  244.703             81.494            157.759
 Electronic               0.000              0.000              0.000
 Translational            0.889              2.981             42.799
 Rotational               0.889              2.981             34.212
 Vibrational            242.925             75.533             80.747
 Vibration     1          0.593              1.986              7.033
 Vibration     2          0.594              1.984              5.770
 Vibration     3          0.595              1.980              5.142
 Vibration     4          0.596              1.976              4.644
 Vibration     5          0.597              1.973              4.421
 Vibration     6          0.600              1.961              3.809
 Vibration     7          0.601              1.958              3.705
 Vibration     8          0.603              1.953              3.567
 Vibration     9          0.613              1.919              2.886
 Vibration    10          0.622              1.891              2.542
 Vibration    11          0.628              1.871              2.362
 Vibration    12          0.642              1.827              2.052
 Vibration    13          0.642              1.826              2.045
 Vibration    14          0.645              1.818              1.999
 Vibration    15          0.648              1.808              1.944
 Vibration    16          0.655              1.786              1.833
 Vibration    17          0.664              1.759              1.713
 Vibration    18          0.666              1.752              1.687
 Vibration    19          0.676              1.723              1.578
 Vibration    20          0.682              1.704              1.511
 Vibration    21          0.685              1.696              1.487
 Vibration    22          0.692              1.674              1.419
 Vibration    23          0.709              1.627              1.288
 Vibration    24          0.720              1.594              1.209
 Vibration    25          0.728              1.573              1.161
 Vibration    26          0.758              1.490              0.997
 Vibration    27          0.767              1.467              0.957
 Vibration    28          0.796              1.392              0.840
 Vibration    29          0.807              1.366              0.802
 Vibration    30          0.812              1.354              0.787
 Vibration    31          0.820              1.333              0.759
 Vibration    32          0.876              1.203              0.607
 Vibration    33          0.887              1.180              0.583
 Vibration    34          0.905              1.141              0.546

                           ! Non-Optimized Parameters !
 Normal termination of Gaussian 16 at Sun Dec 13 17:15:27 2020.

 ----------------------------------------------------------------------
 # B3LYP/6-311++G(d,p) empiricaldispersion=gd3bj scf=xqc pop=npa geom=c
 heck
 ----------------------------------------------------------------------

 ----------------------------------------
 CID_139787256_JID_10993_Energie_neutraal
 ----------------------------------------
 Structure from the checkpoint file:  "JID_10993.chk"
 Charge =  0 Multiplicity = 1

 SCF Done:  E(RB3LYP) =  -941.448802364     A.U. after   15 cycles
 Normal termination of Gaussian 16 at Sun Dec 13 17:24:28 2020.

 ----------------------------------------------------------------------
 # B3LYP/6-311++G(d,p) empiricaldispersion=gd3bj scf=xqc pop=npa geom=c
 heck
 ----------------------------------------------------------------------

 --------------------------------------
 CID_139787256_JID_10993_Energie_kation
 --------------------------------------
 Structure from the checkpoint file:  "JID_10993.chk"
 Charge =  1 Multiplicity = 2

 SCF Done:  E(UB3LYP) =  -941.164082048     A.U. after   28 cycles
 Normal termination of Gaussian 16 at Sun Dec 13 17:46:45 2020.
 Gaussian 16:  ES64L-G16RevA.03 25-Dec-2016

 ----------------------------------------------------------------------
 # B3LYP/6-311++G(d,p) empiricaldispersion=gd3bj scf=xqc pop=npa geom=c
 heck
 ----------------------------------------------------------------------

 -------------------------------------
 CID_139787256_JID_10993_Energie_anion
 -------------------------------------
 Structure from the checkpoint file:  "JID_10993.chk"
 Charge = -1 Multiplicity = 2

                         Standard orientation:
 ---------------------------------------------------------------------
 Center     Atomic      Atomic             Coordinates (Angstroms)
 Number     Number       Type             X           Y           Z
 ---------------------------------------------------------------------
      1          6           0       -0.596321   -2.287895    2.782873
      2          6           0       -0.562649   -2.590707    1.285801
      3          7           0       -0.656420   -1.373029    0.468623
      4          6           0        0.535880   -0.613133    0.255135
      5          6           0        0.719714    0.607040    0.890309
      6          6           0        1.913572    1.315034    0.686777
      7          6           0        2.920198    0.788724   -0.119716
      8          6           0        2.722555   -0.453342   -0.741987
      9          6           0        1.533266   -1.159634   -0.565987
     10          8           0        3.762152   -0.880663   -1.516045
     11          6           0        3.626084   -2.127751   -2.176740
     12          8           0        2.001307    2.510757    1.336735
     13          6           0        3.194353    3.261825    1.184992
     14          6           0       -1.916210   -0.887125    0.202219
     15          8           0       -2.940235   -1.448896    0.564072
     16          8           0       -1.849098    0.248423   -0.523806
     17          6           0       -3.063432    0.994595   -0.865044
     18          6           0       -3.959442    0.151380   -1.774398
     19          6           0       -3.782831    1.437384    0.410933
     20          6           0       -2.502828    2.201286   -1.617667
     21          1           0        0.219321   -1.611924    3.061321
     22          1           0       -0.493479   -3.210527    3.365345
     23          1           0       -1.548346   -1.817396    3.046069
     24          1           0        0.369705   -3.093864    1.013735
     25          1           0       -1.397055   -3.235903    1.006222
     26          1           0       -0.048615    1.029228    1.525778
     27          1           0        3.857281    1.300957   -0.293473
     28          1           0        1.347372   -2.104419   -1.059402
     29          1           0        3.485177   -2.948326   -1.461069
     30          1           0        2.785572   -2.119035   -2.882851
     31          1           0        4.557642   -2.280295   -2.724227
     32          1           0        4.067262    2.708781    1.555683
     33          1           0        3.363881    3.538965    0.136372
     34          1           0        3.057491    4.165447    1.781265
     35          1           0       -4.342514   -0.719895   -1.242191
     36          1           0       -4.803013    0.757138   -2.123652
     37          1           0       -3.394989   -0.186045   -2.650279
     38          1           0       -3.097435    2.000085    1.054257
     39          1           0       -4.621315    2.092664    0.150964
     40          1           0       -4.163978    0.577474    0.962976
     41          1           0       -1.820758    2.768754   -0.976941
     42          1           0       -1.950483    1.876493   -2.504880
     43          1           0       -3.318252    2.859795   -1.934034
 ---------------------------------------------------------------------

 SCF Done:  E(UB3LYP) =  -941.436313383     A.U. after   33 cycles
 SCF Done:  E(UB3LYP) =  -941.436313383     a.u. after    1 cycles

 The electronic state is 2-A.
 Alpha  occ. eigenvalues --  -19.06858 -19.06843 -19.06595 -19.00682 -14.25804
 Alpha  occ. eigenvalues --  -10.23178 -10.16079 -10.15104 -10.15081 -10.13469
 Alpha  occ. eigenvalues --  -10.13124 -10.13008 -10.12079 -10.08059 -10.08001
 Alpha  occ. eigenvalues --  -10.07947 -10.07847 -10.07830 -10.07821 -10.07656
 Alpha  occ. eigenvalues --   -1.01777  -0.98492  -0.98178  -0.92891  -0.86391
 Alpha  occ. eigenvalues --   -0.76328  -0.73060  -0.68272  -0.67556  -0.65885
 Alpha  occ. eigenvalues --   -0.61564  -0.61422  -0.61298  -0.60908  -0.57446
 Alpha  occ. eigenvalues --   -0.54547  -0.51484  -0.50415  -0.47272  -0.43215
 Alpha  occ. eigenvalues --   -0.42753  -0.42482  -0.40766  -0.40432  -0.39886
 Alpha  occ. eigenvalues --   -0.38586  -0.38485  -0.37875  -0.37605  -0.37065
 Alpha  occ. eigenvalues --   -0.35803  -0.35347  -0.34714  -0.33235  -0.33085
 Alpha  occ. eigenvalues --   -0.31919  -0.31036  -0.30555  -0.30140  -0.29896
 Alpha  occ. eigenvalues --   -0.29806  -0.29025  -0.28704  -0.27809  -0.27126
 Alpha  occ. eigenvalues --   -0.26653  -0.25988  -0.25633  -0.25412  -0.25046
 Alpha  occ. eigenvalues --   -0.22686  -0.21338  -0.19000  -0.17139  -0.14265
 Alpha  occ. eigenvalues --   -0.13245   0.03883
 Alpha virt. eigenvalues --    0.05409   0.05531   0.06625   0.07196   0.07690
 Alpha virt. eigenvalues --    0.08058   0.08188   0.08352   0.08841   0.09146
 Alpha virt. eigenvalues --    0.09302   0.09762   0.10153   0.10701   0.10871

  Beta  occ. eigenvalues --  -19.06855 -19.06836 -19.06586 -19.00680 -14.25803
  Beta  occ. eigenvalues --  -10.23177 -10.16078 -10.15105 -10.15081 -10.13429
  Beta  occ. eigenvalues --  -10.13124 -10.12958 -10.12069 -10.08051 -10.07987
  Beta  occ. eigenvalues --  -10.07940 -10.07844 -10.07816 -10.07804 -10.07643
  Beta  occ. eigenvalues --   -1.01774  -0.98478  -0.98162  -0.92887  -0.86387
  Beta  occ. eigenvalues --   -0.76320  -0.73051  -0.68256  -0.67533  -0.65867
  Beta  occ. eigenvalues --   -0.61508  -0.61396  -0.61271  -0.60859  -0.57428
  Beta  occ. eigenvalues --   -0.54527  -0.51458  -0.50375  -0.47239  -0.43192
  Beta  occ. eigenvalues --   -0.42738  -0.42457  -0.40745  -0.40406  -0.39868
  Beta  occ. eigenvalues --   -0.38567  -0.38462  -0.37844  -0.37591  -0.37050
  Beta  occ. eigenvalues --   -0.35785  -0.35318  -0.34692  -0.33221  -0.33057
  Beta  occ. eigenvalues --   -0.31893  -0.31017  -0.30538  -0.30120  -0.29876
  Beta  occ. eigenvalues --   -0.29787  -0.29008  -0.28687  -0.27797  -0.27111
  Beta  occ. eigenvalues --   -0.26640  -0.25963  -0.25615  -0.25378  -0.25013
  Beta  occ. eigenvalues --   -0.22672  -0.21332  -0.18993  -0.17131  -0.14255
  Beta  occ. eigenvalues --   -0.13234
  Beta virt. eigenvalues --    0.05620   0.06225   0.06530   0.06892   0.07221
  Beta virt. eigenvalues --    0.07935   0.08338   0.08442   0.08598   0.09145
  Beta virt. eigenvalues --    0.09340   0.09497   0.10155   0.10433   0.10783

 Mulliken charges and spin densities:
               1          2
     1  C   -0.410213  -0.095812
     2  C    0.270822  -0.305142
     3  N    0.309225  -0.021651
     4  C   -0.127537  -0.002902
     5  C   -0.320521   0.205473
     6  C   -0.871508   0.355398
     7  C    0.052767  -0.304649
     8  C   -0.151869  -0.158337
     9  C    0.563437  -0.406925
    10  O   -0.213748   0.068256
    11  C    0.853664  -1.236347
    12  O   -0.182981   0.045366
    13  C    0.712551  -1.047827
    14  C    0.095262  -0.078074
    15  O   -0.264524   0.003709
    16  O    0.136853   0.005943
    17  C   -0.706623   0.645031
    18  C   -0.047935  -0.379979
    19  C    0.090894  -0.532521
    20  C    0.020403  -0.396471
    21  H    0.086808   0.062886
    22  H    0.016959   0.118492
    23  H    0.180690  -0.000448
    24  H   -0.036111   0.158205
    25  H    0.117717   0.074201
    26  H    0.200527  -0.016154
    27  H    0.104213   0.114896
    28  H    0.226662   0.001371
    29  H   -0.332094   0.496448
    30  H   -0.310038   0.472938
    31  H   -0.567673   0.749425
    32  H   -0.188516   0.342301
    33  H   -0.188832   0.342289
    34  H   -0.489110   0.667607
    35  H    0.115260   0.070046
    36  H   -0.008272   0.167662
    37  H    0.037974   0.102692
    38  H    0.056006   0.076466
    39  H   -0.038354   0.193056
    40  H    0.130339   0.057723
    41  H    0.070834   0.093883
    42  H   -0.005747   0.166723
    43  H    0.012341   0.124752
 Sum of Mulliken charges =  -1.00000   1.00000

 Dipole moment (field-independent basis, Debye):
    X=             -5.5169    Y=             -0.3477    Z=              2.3715  Tot=              6.0151
 Quadrupole moment (field-independent basis, Debye-Ang):
   XX=           -209.6190   YY=           -186.4392   ZZ=           -166.0728
   XY=              0.4204   XZ=              6.6469   YZ=            -12.1825

 Summary of Natural Population Analysis:

                                       Natural Population
                Natural  -----------------------------------------------
    Atom  No    Charge         Core      Valence    Rydberg      Total
 -----------------------------------------------------------------------
      C    1   -0.29347      0.99966     2.28970    0.00411     3.29347
      C    2   -0.08177      0.99962     2.07223    0.00992     3.08177
      N    3   -0.26591      0.99961     2.75390    0.01240     3.76591
      C    4    0.09776      0.99947     1.89059    0.01218     2.90224
      C    5   -0.13256      0.99946     2.12448    0.00861     3.13256
      C    6    0.17123      0.99940     1.81589    0.01348     2.82877
      C    7   -0.16529      0.99948     2.15723    0.00858     3.16529
      C    8    0.17594      0.99940     1.81111    0.01355     2.82406
      C    9   -0.16325      0.99946     2.15515    0.00864     3.16325
      O   10   -0.27162      0.99986     3.26134    0.01042     4.27162
      C   11   -0.10065      0.99960     2.09196    0.00909     3.10065
      O   12   -0.27127      0.99986     3.26151    0.00991     4.27127
      C   13   -0.10144      0.99960     2.09270    0.00913     3.10144
      C   14    0.47331      0.99964     1.50107    0.02598     2.52669
      O   15   -0.34061      0.99987     3.33622    0.00452     4.34061
      O   16   -0.29550      0.99985     3.28533    0.01032     4.29550
      C   17    0.13438      0.99954     1.85104    0.01504     2.86562
      C   18   -0.30117      0.99960     2.29598    0.00559     3.30117
      C   19   -0.30178      0.99960     2.29679    0.00540     3.30178
      C   20   -0.28811      0.99960     2.28235    0.00616     3.28811
      H   21    0.10120      0.00000     0.39780    0.00100     0.39880
      H   22    0.09795      0.00000     0.40124    0.00081     0.40205
      H   23    0.10281      0.00000     0.39624    0.00095     0.39719
      H   24    0.09802      0.00000     0.40074    0.00124     0.40198
      H   25    0.10653      0.00000     0.39244    0.00104     0.39347
      H   26    0.10920      0.00000     0.38889    0.00191     0.39080
      H   27    0.11252      0.00000     0.38580    0.00169     0.38748
      H   28    0.11139      0.00000     0.38691    0.00170     0.38861
      H   29    0.08609      0.00000     0.41180    0.00212     0.41391
      H   30    0.08615      0.00000     0.41191    0.00195     0.41385
      H   31    0.09567      0.00000     0.40281    0.00152     0.40433
      H   32    0.08539      0.00000     0.41303    0.00158     0.41461
      H   33    0.08611      0.00000     0.41229    0.00160     0.41389
      H   34    0.09539      0.00000     0.40324    0.00136     0.40461
      H   35    0.11487      0.00000     0.38420    0.00093     0.38513
      H   36    0.10017      0.00000     0.39892    0.00091     0.39983
      H   37    0.10314      0.00000     0.39587    0.00098     0.39686
      H   38    0.10221      0.00000     0.39674    0.00105     0.39779
      H   39    0.10143      0.00000     0.39770    0.00087     0.39857
      H   40    0.11420      0.00000     0.38486    0.00094     0.38580
      H   41    0.10626      0.00000     0.39256    0.00118     0.39374
      H   42    0.10550      0.00000     0.39342    0.00108     0.39450
      H   43    0.09957      0.00000     0.39949    0.00094     0.40043
 =======================================================================
   * Total *    0.00000     19.99217    55.77545    0.23238    76.00000

 Normal termination of Gaussian 16 at Sun Dec 13 18:13:12 2020.
