 Gaussian 16, Revision A.03,

 -----------------------------------------------------------
 # opt freq B3LYP/6-31G(d) empiricaldispersion=gd3bj scf=xqc
 -----------------------------------------------------------

 ------------------------------
 CID_43727259_JID_9120_neutraal
 ------------------------------
 Symbolic Z-matrix:
 Charge =  0 Multiplicity = 1

 SCF Done:  E(RB3LYP) =  -844.887598122     A.U. after   15 cycles
 SCF Done:  E(RB3LYP) =  -844.892975088     A.U. after   12 cycles
 SCF Done:  E(RB3LYP) =  -844.893610827     A.U. after   12 cycles
 SCF Done:  E(RB3LYP) =  -844.893802701     A.U. after   11 cycles
 SCF Done:  E(RB3LYP) =  -844.893933655     A.U. after   11 cycles
 SCF Done:  E(RB3LYP) =  -844.893992876     A.U. after   11 cycles
 SCF Done:  E(RB3LYP) =  -844.894021430     A.U. after   10 cycles
 SCF Done:  E(RB3LYP) =  -844.894032917     A.U. after   10 cycles
 SCF Done:  E(RB3LYP) =  -844.894040696     A.U. after    9 cycles
 SCF Done:  E(RB3LYP) =  -844.894049552     A.U. after   10 cycles
 SCF Done:  E(RB3LYP) =  -844.894051972     A.U. after    9 cycles
 SCF Done:  E(RB3LYP) =  -844.894052349     A.U. after    8 cycles
 SCF Done:  E(RB3LYP) =  -844.894052529     A.U. after    7 cycles
 SCF Done:  E(RB3LYP) =  -844.894052552     A.U. after    6 cycles
 Optimization completed.
    -- Stationary point found.
 Normal termination of Gaussian 16 at Sun Dec 13 16:12:18 2020.

 --------------------------------------------------------------------
 #N Geom=AllCheck Guess=TCheck SCRF=Check GenChk RB3LYP/6-31G(d) Freq
 --------------------------------------------------------------------

 Structure from the checkpoint file:  "JID_9120.chk"
 ------------------------------
 CID_43727259_JID_9120_neutraal
 ------------------------------
 Charge =  0 Multiplicity = 1

 SCF Done:  E(RB3LYP) =  -844.894052552     A.U. after    1 cycles

  Exact polarizability: 242.978   5.439 183.771  -7.971   8.046 109.618
 Approx polarizability: 309.335  -1.768 285.633 -20.966  21.168 170.884

                      1                      2                      3
                      A                      A                      A
 Frequencies --     19.9296                24.5236                36.7129
 Red. masses --      4.4797                 3.5478                 4.3971
 Frc consts  --      0.0010                 0.0013                 0.0035
 IR Inten    --      2.6364                 0.3906                 2.4074

                      4                      5                      6
                      A                      A                      A
 Frequencies --     55.9883                64.7981                81.4641
 Red. masses --      3.4959                 2.6006                 4.2406
 Frc consts  --      0.0065                 0.0064                 0.0166
 IR Inten    --      0.6442                 0.4310                 0.5067

                      7                      8                      9
                      A                      A                      A
 Frequencies --    107.7912               139.5872               158.0964
 Red. masses --      2.5172                 3.3950                 2.2692
 Frc consts  --      0.0172                 0.0390                 0.0334
 IR Inten    --      0.7984                 2.8001                 1.4485

                     10                     11                     12
                      A                      A                      A
 Frequencies --    174.8812               183.4654               206.2825
 Red. masses --      2.0147                 4.0199                 3.2912
 Frc consts  --      0.0363                 0.0797                 0.0825
 IR Inten    --      0.2081                 1.5004                 4.1127

                     13                     14                     15
                      A                      A                      A
 Frequencies --    223.2108               238.1281               247.0972
 Red. masses --      1.8427                 1.3681                 2.7085
 Frc consts  --      0.0541                 0.0457                 0.0974
 IR Inten    --      0.7637                 1.4737                 1.2275

                     16                     17                     18
                      A                      A                      A
 Frequencies --    257.5475               275.8904               303.5384
 Red. masses --      2.4565                 4.9569                 3.5938
 Frc consts  --      0.0960                 0.2223                 0.1951
 IR Inten    --      0.5373                 1.5167                 3.9056

                     19                     20                     21
                      A                      A                      A
 Frequencies --    311.4723               363.7640               378.8580
 Red. masses --      1.8840                 3.8064                 2.4034
 Frc consts  --      0.1077                 0.2968                 0.2032
 IR Inten    --      2.8119                 0.1398                26.1961

                     22                     23                     24
                      A                      A                      A
 Frequencies --    417.0777               461.1374               469.4576
 Red. masses --      1.8478                 3.0389                 2.8711
 Frc consts  --      0.1894                 0.3807                 0.3728
 IR Inten    --     69.4695                 2.7570                 4.7228

                     25                     26                     27
                      A                      A                      A
 Frequencies --    497.4919               571.9320               584.3057
 Red. masses --      2.8004                 4.1005                 3.2420
 Frc consts  --      0.4084                 0.7903                 0.6521
 IR Inten    --      8.2771                 5.6920                 4.7924

                     28                     29                     30
                      A                      A                      A
 Frequencies --    628.1892               640.0436               685.3124
 Red. masses --      4.8963                 4.0919                 5.1569
 Frc consts  --      1.1384                 0.9876                 1.4270
 IR Inten    --      4.7211                 5.7207                 9.3872

                     31                     32                     33
                      A                      A                      A
 Frequencies --    696.9842               706.7685               742.8603
 Red. masses --      2.1872                 3.8413                 9.9070
 Frc consts  --      0.6260                 1.1305                 3.2211
 IR Inten    --      4.1609                 7.3805                14.3181

                     34                     35                     36
                      A                      A                      A
 Frequencies --    756.4149               771.4772               779.2161
 Red. masses --      2.3078                 2.1555                 1.3467
 Frc consts  --      0.7780                 0.7559                 0.4818
 IR Inten    --      8.1339                 5.1148                20.9259

                     37                     38                     39
                      A                      A                      A
 Frequencies --    791.0593               823.6106               836.7645
 Red. masses --      1.3274                 1.9897                 1.5842
 Frc consts  --      0.4894                 0.7952                 0.6535
 IR Inten    --      2.5924                40.9918                 2.9021

                     40                     41                     42
                      A                      A                      A
 Frequencies --    862.0295               891.0058               912.2311
 Red. masses --      1.4138                 3.6252                 2.2160
 Frc consts  --      0.6190                 1.6957                 1.0865
 IR Inten    --      1.5608                11.8155                 7.8680

                     43                     44                     45
                      A                      A                      A
 Frequencies --    915.0490               969.2210               989.0889
 Red. masses --      1.5527                 1.2540                 1.3451
 Frc consts  --      0.7660                 0.6940                 0.7753
 IR Inten    --     12.7768                 1.0410                 2.4981

                     46                     47                     48
                      A                      A                      A
 Frequencies --    996.9929              1003.4445              1013.4265
 Red. masses --      2.4172                 1.9091                 5.5927
 Frc consts  --      1.4156                 1.1326                 3.3842
 IR Inten    --      5.6570                 5.8844                 1.8426

                     49                     50                     51
                      A                      A                      A
 Frequencies --   1029.7521              1036.5075              1043.2771
 Red. masses --      2.2899                 1.9607                 1.7041
 Frc consts  --      1.4306                 1.2411                 1.0928
 IR Inten    --     24.7739                17.8303                 5.9405

                     52                     53                     54
                      A                      A                      A
 Frequencies --   1073.9933              1089.9184              1122.7298
 Red. masses --      2.1573                 5.1116                 2.2649
 Frc consts  --      1.4661                 3.5776                 1.6821
 IR Inten    --      0.5685                51.8219                16.0108

                     55                     56                     57
                      A                      A                      A
 Frequencies --   1129.6766              1144.7931              1156.5876
 Red. masses --      2.3471                 2.1641                 1.6878
 Frc consts  --      1.7648                 1.6710                 1.3302
 IR Inten    --     23.3968               119.7530                11.7305

                     58                     59                     60
                      A                      A                      A
 Frequencies --   1169.5461              1184.0864              1198.4526
 Red. masses --      2.3266                 1.9631                 2.0291
 Frc consts  --      1.8750                 1.6216                 1.7171
 IR Inten    --      1.9118                 1.1532                11.1523

                     61                     62                     63
                      A                      A                      A
 Frequencies --   1215.0915              1236.0684              1245.0649
 Red. masses --      1.1554                 2.5803                 1.2280
 Frc consts  --      1.0051                 2.3228                 1.1216
 IR Inten    --     43.2490               187.8601                 4.2083

                     64                     65                     66
                      A                      A                      A
 Frequencies --   1266.3388              1272.3111              1288.0818
 Red. masses --      1.3805                 1.2186                 1.5899
 Frc consts  --      1.3043                 1.1622                 1.5542
 IR Inten    --     22.1324                 7.0479               112.1812

                     67                     68                     69
                      A                      A                      A
 Frequencies --   1304.6830              1313.1457              1340.0499
 Red. masses --      1.3462                 1.2521                 1.6393
 Frc consts  --      1.3501                 1.2720                 1.7344
 IR Inten    --     45.0666                73.9408                72.3739

                     70                     71                     72
                      A                      A                      A
 Frequencies --   1353.7402              1374.7607              1376.3923
 Red. masses --      1.6128                 1.5448                 1.8249
 Frc consts  --      1.7415                 1.7202                 2.0370
 IR Inten    --     19.5760                 5.4048                13.3819

                     73                     74                     75
                      A                      A                      A
 Frequencies --   1381.2913              1396.8089              1410.6420
 Red. masses --      1.9692                 1.4863                 1.5941
 Frc consts  --      2.2137                 1.7086                 1.8689
 IR Inten    --     63.6296                 4.7747                 5.9407

                     76                     77                     78
                      A                      A                      A
 Frequencies --   1422.4911              1423.2876              1436.8346
 Red. masses --      1.4845                 1.5392                 2.0293
 Frc consts  --      1.7699                 1.8370                 2.4684
 IR Inten    --      0.2042                 5.9344               184.1926

                     79                     80                     81
                      A                      A                      A
 Frequencies --   1442.3787              1447.6724              1475.7993
 Red. masses --      1.2433                 1.2772                 2.0018
 Frc consts  --      1.5240                 1.5771                 2.5688
 IR Inten    --      1.4177                13.3996               111.3563

                     82                     83                     84
                      A                      A                      A
 Frequencies --   1516.3659              1521.0176              1531.7765
 Red. masses --      1.0668                 1.0623                 1.0656
 Frc consts  --      1.4453                 1.4480                 1.4732
 IR Inten    --      0.4154                 3.7458                 6.2805

                     85                     86                     87
                      A                      A                      A
 Frequencies --   1534.4913              1537.6735              1545.6288
 Red. masses --      1.0447                 1.0773                 1.3002
 Frc consts  --      1.4493                 1.5008                 1.8301
 IR Inten    --      2.5573                11.6495               154.9372

                     88                     89                     90
                      A                      A                      A
 Frequencies --   1547.4673              1550.7776              1558.1217
 Red. masses --      1.1595                 1.3645                 1.2499
 Frc consts  --      1.6359                 1.9334                 1.7878
 IR Inten    --     32.4968                54.2668                 3.2771

                     91                     92                     93
                      A                      A                      A
 Frequencies --   1560.7571              1567.3004              1646.9844
 Red. masses --      1.1572                 1.7932                 5.0369
 Frc consts  --      1.6609                 2.5953                 8.0499
 IR Inten    --     24.8705                19.8823                42.0165

                     94                     95                     96
                      A                      A                      A
 Frequencies --   1673.2910              1872.3349              2980.9341
 Red. masses --      5.6015                12.5154                 1.0693
 Frc consts  --      9.2405                25.8502                 5.5982
 IR Inten    --    337.8274               431.9558                39.6712

                     97                     98                     99
                      A                      A                      A
 Frequencies --   3010.9457              3027.0463              3031.4885
 Red. masses --      1.0811                 1.0696                 1.0639
 Frc consts  --      5.7747                 5.7745                 5.7603
 IR Inten    --     24.6478                32.8733                50.6569

                    100                    101                    102
                      A                      A                      A
 Frequencies --   3039.5940              3046.3891              3050.0186
 Red. masses --      1.0854                 1.0518                 1.0582
 Frc consts  --      5.9084                 5.7511                 5.8001
 IR Inten    --     10.0596                34.4232                47.4286

                    103                    104                    105
                      A                      A                      A
 Frequencies --   3053.6912              3067.2352              3068.5896
 Red. masses --      1.0386                 1.0942                 1.0673
 Frc consts  --      5.7062                 6.0652                 5.9211
 IR Inten    --     12.2457                41.6832                44.0567

                    106                    107                    108
                      A                      A                      A
 Frequencies --   3079.1180              3105.4081              3112.3688
 Red. masses --      1.0987                 1.0947                 1.1011
 Frc consts  --      6.1373                 6.2199                 6.2845
 IR Inten    --     28.9685                23.8930                35.6473

                    109                    110                    111
                      A                      A                      A
 Frequencies --   3118.6904              3120.2429              3123.6807
 Red. masses --      1.1017                 1.1023                 1.1020
 Frc consts  --      6.3132                 6.3228                 6.3350
 IR Inten    --     45.0513                50.4372                44.7450

                    112                    113                    114
                      A                      A                      A
 Frequencies --   3144.8207              3190.2999              3199.6313
 Red. masses --      1.1033                 1.0888                 1.0885
 Frc consts  --      6.4286                 6.5295                 6.5660
 IR Inten    --     29.1400                22.7484                10.5973

                    115                    116                    117
                      A                      A                      A
 Frequencies --   3226.3139              3282.6112              3595.5553
 Red. masses --      1.0917                 1.0920                 1.0751
 Frc consts  --      6.6951                 6.9327                 8.1887
 IR Inten    --     15.1196                 4.7407                12.2845

 - Thermochemistry -
 -------------------
 Temperature   298.150 Kelvin.  Pressure   1.00000 Atm.
 Atom     1 has atomic number  6 and mass  12.00000

 Molecular mass:   262.16813 amu.
 Principal axes and moments of inertia in atomic units:
                           1         2         3
     Eigenvalues --  2122.18059********************
           X            0.99998   0.00125   0.00654
           Y           -0.00125   1.00000   0.00104
           Z           -0.00654  -0.00104   0.99998
 This molecule is an asymmetric top.
 Rotational symmetry number  1.
 Warning -- assumption of classical behavior for rotation
           may cause significant error
 Rotational temperatures (Kelvin)      0.04081     0.00647     0.00579
 Rotational constants (GHZ):           0.85042     0.13483     0.12058
 Zero-point vibrational energy     938509.5 (Joules/Mol)
                                  224.30915 (Kcal/Mol)
 Warning -- explicit consideration of  27 degrees of freedom as
           vibrations may cause significant error
 Vibrational temperatures:     28.67    35.28    52.82    80.55    93.23
          (Kelvin)            117.21   155.09   200.83   227.47   251.62
                              263.97   296.79   321.15   342.61   355.52
                              370.55   396.94   436.72   448.14   523.38
                              545.09   600.08   663.47   675.44   715.78
                              822.88   840.69   903.82   920.88   986.01
                             1002.80  1016.88  1068.81  1088.31  1109.98
                             1121.12  1138.16  1184.99  1203.92  1240.27
                             1281.96  1312.50  1316.55  1394.49  1423.08
                             1434.45  1443.73  1458.09  1481.58  1491.30
                             1501.04  1545.24  1568.15  1615.36  1625.35
                             1647.10  1664.07  1682.72  1703.64  1724.31
                             1748.25  1778.43  1791.37  1821.98  1830.57
                             1853.26  1877.15  1889.32  1928.03  1947.73
                             1977.97  1980.32  1987.37  2009.70  2029.60
                             2046.65  2047.79  2067.28  2075.26  2082.88
                             2123.35  2181.71  2188.41  2203.88  2207.79
                             2212.37  2223.82  2226.46  2231.22  2241.79
                             2245.58  2255.00  2369.64  2407.49  2693.87
                             4288.90  4332.08  4355.24  4361.64  4373.30
                             4383.07  4388.30  4393.58  4413.07  4415.02
                             4430.16  4467.99  4478.00  4487.10  4489.33
                             4494.28  4524.70  4590.13  4603.56  4641.95
                             4722.95  5173.20

 Zero-point correction=                           0.357459 (Hartree/Particle)
 Thermal correction to Energy=                    0.376558
 Thermal correction to Enthalpy=                  0.377503
 Thermal correction to Gibbs Free Energy=         0.307742
 Sum of electronic and zero-point Energies=           -844.536593
 Sum of electronic and thermal Energies=              -844.517494
 Sum of electronic and thermal Enthalpies=            -844.516550
 Sum of electronic and thermal Free Energies=         -844.586311

                     E (Thermal)             CV                S
                      KCal/Mol        Cal/Mol-Kelvin    Cal/Mol-Kelvin
 Total                  236.294             71.699            146.824
 Electronic               0.000              0.000              0.000
 Translational            0.889              2.981             42.591
 Rotational               0.889              2.981             34.407
 Vibrational            234.517             65.738             69.826
 Vibration     1          0.593              1.986              6.641
 Vibration     2          0.593              1.985              6.229
 Vibration     3          0.594              1.982              5.429
 Vibration     4          0.596              1.975              4.594
 Vibration     5          0.597              1.971              4.305
 Vibration     6          0.600              1.962              3.855
 Vibration     7          0.606              1.943              3.308
 Vibration     8          0.615              1.914              2.810
 Vibration     9          0.621              1.894              2.572
 Vibration    10          0.627              1.873              2.382
 Vibration    11          0.631              1.862              2.293
 Vibration    12          0.641              1.831              2.076
 Vibration    13          0.649              1.806              1.933
 Vibration    14          0.656              1.782              1.817
 Vibration    15          0.661              1.768              1.751
 Vibration    16          0.667              1.750              1.678
 Vibration    17          0.678              1.718              1.559
 Vibration    18          0.695              1.667              1.397
 Vibration    19          0.700              1.652              1.354
 Vibration    20          0.737              1.547              1.106
 Vibration    21          0.749              1.515              1.044
 Vibration    22          0.780              1.433              0.902
 Vibration    23          0.819              1.336              0.763
 Vibration    24          0.827              1.318              0.739
 Vibration    25          0.853              1.256              0.664
 Vibration    26          0.928              1.092              0.501
 Vibration    27          0.941              1.065              0.477

 Optimization completed.
    -- Stationary point found.
 Normal termination of Gaussian 16 at Sun Dec 13 16:30:34 2020.

 ----------------------------------------------------------------------
 # B3LYP/6-311++G(d,p) empiricaldispersion=gd3bj scf=xqc pop=npa geom=c
 heck
 ----------------------------------------------------------------------

 --------------------------------------
 CID_43727259_JID_9120_Energie_neutraal
 --------------------------------------
 Structure from the checkpoint file:  "JID_9120.chk"
 Charge =  0 Multiplicity = 1

 SCF Done:  E(RB3LYP) =  -845.128377047     A.U. after   16 cycles
 Normal termination of Gaussian 16 at Sun Dec 13 16:40:20 2020.

 ----------------------------------------------------------------------
 # B3LYP/6-311++G(d,p) empiricaldispersion=gd3bj scf=xqc pop=npa geom=c
 heck
 ----------------------------------------------------------------------

 ------------------------------------
 CID_43727259_JID_9120_Energie_kation
 ------------------------------------
 Structure from the checkpoint file:  "JID_9120.chk"
 Charge =  1 Multiplicity = 2

 SCF Done:  E(UB3LYP) =  -844.862511640     A.U. after   22 cycles
 Normal termination of Gaussian 16 at Sun Dec 13 16:59:31 2020.
 Gaussian 16:  ES64L-G16RevA.03 25-Dec-2016

 ----------------------------------------------------------------------
 # B3LYP/6-311++G(d,p) empiricaldispersion=gd3bj scf=xqc pop=npa geom=c
 heck
 ----------------------------------------------------------------------

 -----------------------------------
 CID_43727259_JID_9120_Energie_anion
 -----------------------------------
 Structure from the checkpoint file:  "JID_9120.chk"
 Charge = -1 Multiplicity = 2

                         Standard orientation:
 ---------------------------------------------------------------------
 Center     Atomic      Atomic             Coordinates (Angstroms)
 Number     Number       Type             X           Y           Z
 ---------------------------------------------------------------------
      1          6           0       -4.975518    2.516350   -0.650255
      2          6           0       -3.919381    1.411231   -0.732630
      3          6           0       -3.941372    0.421789    0.449506
      4          6           0       -5.294061   -0.301614    0.610128
      5          6           0       -5.727714   -1.155732   -0.586512
      6          6           0       -2.789332   -0.590082    0.349497
      7          7           0       -1.507910    0.039407    0.628770
      8          6           0       -0.310649   -0.618980    0.375931
      9          6           0        0.882448    0.125817    0.329283
     10          6           0        2.114147   -0.497718    0.113412
     11          6           0        2.174614   -1.890961   -0.061097
     12          6           0        0.989390   -2.615884   -0.016499
     13          6           0       -0.247784   -2.009692    0.197101
     14          7           0        3.284196    0.297372    0.104766
     15          6           0        3.263917    1.719762    0.409238
     16          6           0        4.763416    2.035126    0.435552
     17          8           0        5.365627    0.996070   -0.345280
     18          6           0        4.509292   -0.070768   -0.435555
     19          8           0        4.840619   -1.124496   -0.920090
     20          1           0       -5.991160    2.113876   -0.724282
     21          1           0       -4.848762    3.240402   -1.462323
     22          1           0       -4.903269    3.061844    0.298716
     23          1           0       -4.036997    0.854909   -1.671543
     24          1           0       -2.928123    1.881005   -0.794991
     25          1           0       -3.777731    0.997060    1.373604
     26          1           0       -5.236362   -0.937014    1.503594
     27          1           0       -6.071757    0.441563    0.821600
     28          1           0       -4.997381   -1.940216   -0.813377
     29          1           0       -6.684694   -1.647125   -0.380524
     30          1           0       -5.857194   -0.551837   -1.491365
     31          1           0       -2.951279   -1.394071    1.079857
     32          1           0       -2.789427   -1.062817   -0.646950
     33          1           0       -1.480012    1.030524    0.430861
     34          1           0        0.822042    1.200675    0.465223
     35          1           0        3.122682   -2.375131   -0.239001
     36          1           0        1.030658   -3.693130   -0.153376
     37          1           0       -1.148777   -2.610690    0.229392
     38          1           0        2.731578    2.284217   -0.369219
     39          1           0        2.780548    1.914272    1.370907
     40          1           0        5.013833    2.997616   -0.013845
     41          1           0        5.169139    1.992169    1.452643
 ---------------------------------------------------------------------

 SCF Done:  E(UB3LYP) =  -845.123327934     A.U. after   33 cycles
 SCF Done:  E(UB3LYP) =  -845.123327934     a.u. after    1 cycles

 The electronic state is 2-A.
 Alpha  occ. eigenvalues --  -19.08272 -19.01853 -14.27924 -14.23490 -10.24007
 Alpha  occ. eigenvalues --  -10.15520 -10.13835 -10.13552 -10.12957 -10.11740
 Alpha  occ. eigenvalues --  -10.09454 -10.08973 -10.08791 -10.08364 -10.08251
 Alpha  occ. eigenvalues --  -10.08191 -10.07858 -10.07529 -10.07404  -1.03585
 Alpha  occ. eigenvalues --   -0.94708  -0.87716  -0.85240  -0.76044  -0.73390
 Alpha  occ. eigenvalues --   -0.68892  -0.66879  -0.66719  -0.65874  -0.62051
 Alpha  occ. eigenvalues --   -0.58281  -0.57356  -0.54878  -0.54319  -0.52157
 Alpha  occ. eigenvalues --   -0.48184  -0.46941  -0.45329  -0.44296  -0.42075
 Alpha  occ. eigenvalues --   -0.41461  -0.40393  -0.39581  -0.38694  -0.36862
 Alpha  occ. eigenvalues --   -0.36534  -0.35641  -0.34839  -0.34400  -0.34396
 Alpha  occ. eigenvalues --   -0.33510  -0.33286  -0.33042  -0.32664  -0.31851
 Alpha  occ. eigenvalues --   -0.29219  -0.28948  -0.28729  -0.28135  -0.27583
 Alpha  occ. eigenvalues --   -0.27043  -0.26672  -0.24425  -0.24094  -0.23836
 Alpha  occ. eigenvalues --   -0.22598  -0.21984  -0.20301  -0.19938  -0.14313
 Alpha  occ. eigenvalues --   -0.11645   0.03431
 Alpha virt. eigenvalues --    0.04911   0.06122   0.06715   0.06875   0.07190
 Alpha virt. eigenvalues --    0.07622   0.07942   0.08503   0.08620   0.09203
 Alpha virt. eigenvalues --    0.09513   0.09694   0.10200   0.10299   0.11125

  Beta  occ. eigenvalues --  -19.08270 -19.01852 -14.27923 -14.23473 -10.24004
  Beta  occ. eigenvalues --  -10.15488 -10.13835 -10.13507 -10.12957 -10.11737
  Beta  occ. eigenvalues --  -10.09448 -10.08973 -10.08780 -10.08344 -10.08238
  Beta  occ. eigenvalues --  -10.08170 -10.07855 -10.07500 -10.07403  -1.03578
  Beta  occ. eigenvalues --   -0.94704  -0.87703  -0.85218  -0.76034  -0.73367
  Beta  occ. eigenvalues --   -0.68849  -0.66844  -0.66705  -0.65856  -0.62023
  Beta  occ. eigenvalues --   -0.58224  -0.57323  -0.54852  -0.54256  -0.52126
  Beta  occ. eigenvalues --   -0.48165  -0.46898  -0.45298  -0.44265  -0.42037
  Beta  occ. eigenvalues --   -0.41438  -0.40356  -0.39543  -0.38672  -0.36844
  Beta  occ. eigenvalues --   -0.36515  -0.35621  -0.34815  -0.34379  -0.34366
  Beta  occ. eigenvalues --   -0.33486  -0.33258  -0.33015  -0.32633  -0.31823
  Beta  occ. eigenvalues --   -0.29191  -0.28933  -0.28701  -0.28097  -0.27556
  Beta  occ. eigenvalues --   -0.27018  -0.26654  -0.24396  -0.24067  -0.23813
  Beta  occ. eigenvalues --   -0.22580  -0.21968  -0.20297  -0.19928  -0.14301
  Beta  occ. eigenvalues --   -0.11635
  Beta virt. eigenvalues --    0.05293   0.06218   0.06517   0.06946   0.07050
  Beta virt. eigenvalues --    0.07386   0.08035   0.08400   0.08759   0.08860
  Beta virt. eigenvalues --    0.09394   0.09825   0.09948   0.10302   0.10410

 Mulliken charges and spin densities:
               1          2
     1  C    0.585422  -1.181550
     2  C   -0.507017   0.297956
     3  C    0.502239   0.326517
     4  C   -0.483533   0.016306
     5  C    0.109328  -0.702371
     6  C   -0.791026  -0.352330
     7  N    0.092094   0.046584
     8  C    0.193699   0.192415
     9  C   -0.381190  -0.100723
    10  C    0.439688  -0.472833
    11  C   -0.148688   0.056327
    12  C   -0.396680  -0.008059
    13  C    0.053958  -0.217861
    14  N   -0.249866   0.176341
    15  C    0.516917  -0.513248
    16  C    0.891351  -1.555418
    17  O   -0.143605   0.042341
    18  C    0.278192   0.068052
    19  O   -0.358610   0.002255
    20  H   -0.000001   0.133109
    21  H   -0.163600   0.306136
    22  H   -0.169392   0.318449
    23  H   -0.015486   0.154248
    24  H   -0.180071   0.289393
    25  H   -0.076079   0.282365
    26  H    0.059467   0.069546
    27  H   -0.092440   0.274454
    28  H    0.006433   0.129670
    29  H   -0.119535   0.262347
    30  H    0.016767   0.130814
    31  H    0.132350   0.051542
    32  H    0.211487  -0.017939
    33  H    0.328556  -0.119657
    34  H   -0.584857   0.811969
    35  H    0.204885   0.005085
    36  H    0.157266   0.011576
    37  H    0.087221   0.020781
    38  H   -0.238222   0.442241
    39  H   -0.376800   0.547328
    40  H   -0.325141   0.521732
    41  H   -0.065484   0.254110
 Sum of Mulliken charges =  -1.00000   1.00000

 Dipole moment (field-independent basis, Debye):
    X=             -1.2683    Y=             -5.4821    Z=              0.6107  Tot=              5.6600
 Quadrupole moment (field-independent basis, Debye-Ang):
   XX=           -240.3060   YY=           -169.2190   ZZ=           -148.4397
   XY=              3.3106   XZ=              3.3166   YZ=             -2.6808

 Summary of Natural Population Analysis:

                                       Natural Population
                Natural  -----------------------------------------------
    Atom  No    Charge         Core      Valence    Rydberg      Total
 -----------------------------------------------------------------------
      C    1   -0.28409      0.99967     2.28006    0.00437     3.28409
      C    2   -0.19246      0.99962     2.18327    0.00957     3.19246
      C    3   -0.11312      0.99959     2.10223    0.01130     3.11312
      C    4   -0.18956      0.99962     2.18077    0.00916     3.18956
      C    5   -0.28889      0.99966     2.28438    0.00485     3.28889
      C    6   -0.08390      0.99959     2.07468    0.00963     3.08390
      N    7   -0.30998      0.99967     2.80074    0.00957     3.80998
      C    8    0.10026      0.99951     1.88890    0.01133     2.89974
      C    9   -0.14029      0.99950     2.13197    0.00883     3.14029
      C   10    0.09287      0.99949     1.89590    0.01174     2.90713
      C   11   -0.13661      0.99953     2.12883    0.00825     3.13661
      C   12   -0.08549      0.99958     2.07671    0.00920     3.08549
      C   13   -0.14565      0.99953     2.13841    0.00772     3.14565
      N   14   -0.25261      0.99960     2.74428    0.00873     3.75261
      C   15   -0.09565      0.99964     2.08525    0.01076     3.09565
      C   16   -0.01169      0.99960     1.99958    0.01251     3.01169
      O   17   -0.27704      0.99987     3.27012    0.00706     4.27704
      C   18    0.46610      0.99969     1.50732    0.02688     2.53390
      O   19   -0.31027      0.99986     3.30485    0.00556     4.31027
      H   20    0.09532      0.00000     0.40357    0.00111     0.40468
      H   21    0.10101      0.00000     0.39805    0.00094     0.39899
      H   22    0.09799      0.00000     0.40075    0.00126     0.40201
      H   23    0.09489      0.00000     0.40398    0.00113     0.40511
      H   24    0.09733      0.00000     0.40101    0.00165     0.40267
      H   25    0.09931      0.00000     0.39878    0.00191     0.40069
      H   26    0.09548      0.00000     0.40348    0.00105     0.40452
      H   27    0.09930      0.00000     0.39965    0.00105     0.40070
      H   28    0.09548      0.00000     0.40346    0.00106     0.40452
      H   29    0.09954      0.00000     0.39946    0.00100     0.40046
      H   30    0.09796      0.00000     0.40100    0.00104     0.40204
      H   31    0.09230      0.00000     0.40621    0.00149     0.40770
      H   32    0.08746      0.00000     0.41090    0.00164     0.41254
      H   33    0.18692      0.00000     0.30917    0.00390     0.31308
      H   34    0.10628      0.00000     0.39149    0.00223     0.39372
      H   35    0.11914      0.00000     0.37987    0.00099     0.38086
      H   36    0.09789      0.00000     0.40138    0.00073     0.40211
      H   37    0.10154      0.00000     0.39725    0.00120     0.39846
      H   38    0.10001      0.00000     0.39731    0.00268     0.39999
      H   39    0.10767      0.00000     0.38974    0.00259     0.39233
      H   40    0.09780      0.00000     0.40051    0.00169     0.40220
      H   41    0.08745      0.00000     0.41118    0.00137     0.41255
 =======================================================================
   * Total *    0.00000     18.99281    51.78644    0.22075    71.00000

 Normal termination of Gaussian 16 at Sun Dec 13 17:28:35 2020.
