 Gaussian 16, Revision A.03,

 -----------------------------------------------------------
 # opt freq B3LYP/6-31G(d) empiricaldispersion=gd3bj scf=xqc
 -----------------------------------------------------------

 -------------------------------
 CID_65295596_JID_10037_neutraal
 -------------------------------
 Symbolic Z-matrix:
 Charge =  0 Multiplicity = 1

 SCF Done:  E(RB3LYP) =  -917.659994649     A.U. after   15 cycles
 SCF Done:  E(RB3LYP) =  -917.666809417     A.U. after   12 cycles
 SCF Done:  E(RB3LYP) =  -917.667775072     A.U. after   12 cycles
 SCF Done:  E(RB3LYP) =  -917.667675161     A.U. after   12 cycles
 SCF Done:  E(RB3LYP) =  -917.667967580     A.U. after   11 cycles
 SCF Done:  E(RB3LYP) =  -917.668012261     A.U. after   10 cycles
 SCF Done:  E(RB3LYP) =  -917.668014558     A.U. after    9 cycles
 SCF Done:  E(RB3LYP) =  -917.668016174     A.U. after    8 cycles
 SCF Done:  E(RB3LYP) =  -917.668017100     A.U. after    8 cycles
 SCF Done:  E(RB3LYP) =  -917.668017197     A.U. after    7 cycles
 Optimization completed.
    -- Stationary point found.
 Normal termination of Gaussian 16 at Sun Dec 13 20:15:04 2020.

 --------------------------------------------------------------------
 #N Geom=AllCheck Guess=TCheck SCRF=Check GenChk RB3LYP/6-31G(d) Freq
 --------------------------------------------------------------------

 Structure from the checkpoint file:  "JID_10037.chk"
 -------------------------------
 CID_65295596_JID_10037_neutraal
 -------------------------------
 Charge =  0 Multiplicity = 1

 SCF Done:  E(RB3LYP) =  -917.668017196     A.U. after    1 cycles

  Exact polarizability: 247.359 -32.526 131.871  -3.236   8.042 163.920
 Approx polarizability: 349.906 -63.479 192.914  -2.517  20.217 293.687

                      1                      2                      3
                      A                      A                      A
 Frequencies --     22.2399                32.7082                59.7230
 Red. masses --      4.5165                 4.5480                 5.2070
 Frc consts  --      0.0013                 0.0029                 0.0109
 IR Inten    --      0.2180                 0.0825                 0.7427

                      4                      5                      6
                      A                      A                      A
 Frequencies --     70.9238                90.2996               107.0034
 Red. masses --      5.1048                 5.4289                 4.7613
 Frc consts  --      0.0151                 0.0261                 0.0321
 IR Inten    --      0.8905                 0.3788                 0.0043

                      7                      8                      9
                      A                      A                      A
 Frequencies --    129.6873               190.8686               201.2095
 Red. masses --      5.5587                 5.2055                 2.7446
 Frc consts  --      0.0551                 0.1117                 0.0655
 IR Inten    --      0.6988                 1.9263                 0.2370

                     10                     11                     12
                      A                      A                      A
 Frequencies --    244.6261               255.2283               267.9752
 Red. masses --      3.3188                 1.3010                 4.5036
 Frc consts  --      0.1170                 0.0499                 0.1905
 IR Inten    --      0.2919                 0.0769                 1.0330

                     13                     14                     15
                      A                      A                      A
 Frequencies --    285.3470               337.9978               343.5426
 Red. masses --      2.0418                 6.6059                 2.7623
 Frc consts  --      0.0980                 0.4446                 0.1921
 IR Inten    --      0.3589                 5.0340                 4.9889

                     16                     17                     18
                      A                      A                      A
 Frequencies --    361.0947               386.2514               393.5775
 Red. masses --      2.1416                 3.1062                 3.9201
 Frc consts  --      0.1645                 0.2730                 0.3578
 IR Inten    --      0.3097                 7.6605                 9.3934

                     19                     20                     21
                      A                      A                      A
 Frequencies --    417.1984               437.9264               450.5903
 Red. masses --      4.9027                 3.0396                 1.7533
 Frc consts  --      0.5028                 0.3435                 0.2097
 IR Inten    --      0.0886                 0.4442                 0.1346

                     22                     23                     24
                      A                      A                      A
 Frequencies --    470.0789               492.6045               545.9117
 Red. masses --      2.9779                 2.7481                 4.6940
 Frc consts  --      0.3877                 0.3929                 0.8242
 IR Inten    --      8.9132                 1.8187                12.1670

                     25                     26                     27
                      A                      A                      A
 Frequencies --    548.0330               563.8717               619.4529
 Red. masses --      5.1956                 2.0588                 2.1496
 Frc consts  --      0.9194                 0.3857                 0.4860
 IR Inten    --      5.5510                37.5815                 7.9757

                     28                     29                     30
                      A                      A                      A
 Frequencies --    625.0526               649.4352               665.9938
 Red. masses --      5.2879                 1.8971                 4.1977
 Frc consts  --      1.2172                 0.4714                 1.0970
 IR Inten    --     13.8413                56.1877                23.2599

                     31                     32                     33
                      A                      A                      A
 Frequencies --    701.3764               753.4179               765.4837
 Red. masses --      4.2839                 3.9825                 5.7385
 Frc consts  --      1.2416                 1.3319                 1.9812
 IR Inten    --     61.5173                 7.7001                48.6533

                     34                     35                     36
                      A                      A                      A
 Frequencies --    781.3402               788.3446               799.8393
 Red. masses --      3.3752                 4.0986                 2.5782
 Frc consts  --      1.2140                 1.5008                 0.9718
 IR Inten    --     12.4091                 8.0300                 1.3306

                     37                     38                     39
                      A                      A                      A
 Frequencies --    843.7842               848.7079               853.2079
 Red. masses --      2.3359                 2.5531                 1.6242
 Frc consts  --      0.9799                 1.0835                 0.6966
 IR Inten    --     20.7725                 5.5630                 0.4349

                     40                     41                     42
                      A                      A                      A
 Frequencies --    865.8673               908.5320               909.3273
 Red. masses --      1.4606                 1.5615                 2.0617
 Frc consts  --      0.6452                 0.7594                 1.0044
 IR Inten    --      5.3127                20.0847                 5.2782

                     43                     44                     45
                      A                      A                      A
 Frequencies --    951.6868               956.7880               963.0947
 Red. masses --      2.4435                 1.4391                 6.6485
 Frc consts  --      1.3039                 0.7762                 3.6334
 IR Inten    --      8.0670                 4.8351                19.3165

                     46                     47                     48
                      A                      A                      A
 Frequencies --    993.8206              1003.8943              1037.4145
 Red. masses --      2.1703                 2.6267                 2.4998
 Frc consts  --      1.2629                 1.5597                 1.5851
 IR Inten    --      1.9372                19.1993                53.5252

                     49                     50                     51
                      A                      A                      A
 Frequencies --   1085.4658              1091.2829              1095.7974
 Red. masses --      1.7686                 2.1227                 1.7528
 Frc consts  --      1.2277                 1.4894                 1.2400
 IR Inten    --      8.0307                 6.0027                 0.2330

                     52                     53                     54
                      A                      A                      A
 Frequencies --   1114.3343              1146.5199              1156.6707
 Red. masses --      2.1021                 1.5526                 1.8338
 Frc consts  --      1.5379                 1.2025                 1.4455
 IR Inten    --     40.8451                36.6492                41.4144

                     55                     56                     57
                      A                      A                      A
 Frequencies --   1159.1508              1171.5242              1184.7877
 Red. masses --      2.1013                 2.0137                 2.6936
 Frc consts  --      1.6635                 1.6283                 2.2278
 IR Inten    --    117.0692                24.7069                27.8134

                     58                     59                     60
                      A                      A                      A
 Frequencies --   1202.6161              1207.9993              1228.3469
 Red. masses --      2.0676                 2.0419                 1.4265
 Frc consts  --      1.7619                 1.7556                 1.2682
 IR Inten    --    299.3255                35.5605                 1.9999

                     61                     62                     63
                      A                      A                      A
 Frequencies --   1234.8442              1251.0642              1287.6090
 Red. masses --      2.3609                 1.1232                 2.5244
 Frc consts  --      2.1211                 1.0358                 2.4659
 IR Inten    --     22.0243                13.5078                17.1743

                     64                     65                     66
                      A                      A                      A
 Frequencies --   1303.5121              1325.1093              1334.4948
 Red. masses --      3.4287                 2.1276                 1.3871
 Frc consts  --      3.4325                 2.2011                 1.4555
 IR Inten    --     12.3093                 4.6948                20.1505

                     67                     68                     69
                      A                      A                      A
 Frequencies --   1341.9492              1371.6234              1380.9587
 Red. masses --      1.9309                 2.3139                 1.3126
 Frc consts  --      2.0487                 2.5649                 1.4749
 IR Inten    --     15.2319                32.1655                 1.5678

                     70                     71                     72
                      A                      A                      A
 Frequencies --   1394.4540              1401.4023              1408.1474
 Red. masses --      1.3216                 2.2241                 1.4152
 Frc consts  --      1.5141                 2.5735                 1.6534
 IR Inten    --     55.2574                63.8814                 1.8755

                     73                     74                     75
                      A                      A                      A
 Frequencies --   1412.8232              1425.0110              1428.0133
 Red. masses --      1.3704                 3.0164                 1.4685
 Frc consts  --      1.6117                 3.6088                 1.7644
 IR Inten    --     17.1883                71.4940                21.2067

                     76                     77                     78
                      A                      A                      A
 Frequencies --   1435.6500              1483.7160              1489.5278
 Red. masses --      1.3662                 1.1987                 2.3483
 Frc consts  --      1.6591                 1.5548                 3.0697
 IR Inten    --     12.5482                 1.3357                 4.0973

                     79                     80                     81
                      A                      A                      A
 Frequencies --   1496.5008              1496.9406              1507.6276
 Red. masses --      1.1289                 1.1732                 1.1710
 Frc consts  --      1.4895                 1.5489                 1.5681
 IR Inten    --      6.5294                 8.4342                 6.1461

                     82                     83                     84
                      A                      A                      A
 Frequencies --   1515.0305              1517.2043              1521.1853
 Red. masses --      1.0821                 2.2408                 1.1984
 Frc consts  --      1.4633                 3.0390                 1.6338
 IR Inten    --     21.4994                14.5339                 1.9284

                     85                     86                     87
                      A                      A                      A
 Frequencies --   1536.8202              1540.7231              1632.8204
 Red. masses --      1.0523                 1.1102                 6.9991
 Frc consts  --      1.4643                 1.5527                10.9944
 IR Inten    --      1.5881                 3.2084               162.8144

                     88                     89                     90
                      A                      A                      A
 Frequencies --   1640.1211              1674.3506              1817.2650
 Red. masses --      6.9739                 7.1273                 9.9196
 Frc consts  --     11.0529                11.7725                19.3010
 IR Inten    --     11.8355                11.0751               401.3134

                     91                     92                     93
                      A                      A                      A
 Frequencies --   2934.5014              2957.7771              2966.4170
 Red. masses --      1.0614                 1.0704                 1.0697
 Frc consts  --      5.3851                 5.5173                 5.5459
 IR Inten    --     49.3650                18.2260                89.8154

                     94                     95                     96
                      A                      A                      A
 Frequencies --   3020.3934              3023.5509              3036.9521
 Red. masses --      1.0657                 1.0661                 1.0609
 Frc consts  --      5.7280                 5.7420                 5.7652
 IR Inten    --     21.1145                82.3034                69.3221

                     97                     98                     99
                      A                      A                      A
 Frequencies --   3063.1060              3064.7332              3073.2083
 Red. masses --      1.0901                 1.0904                 1.0710
 Frc consts  --      6.0261                 6.0343                 5.9597
 IR Inten    --     66.6085                40.4691                80.5680

                    100                    101                    102
                      A                      A                      A
 Frequencies --   3078.7389              3092.4702              3093.8314
 Red. masses --      1.1052                 1.0982                 1.0975
 Frc consts  --      6.1719                 6.1878                 6.1896
 IR Inten    --      7.5309                39.1059                39.9354

                    103                    104                    105
                      A                      A                      A
 Frequencies --   3116.7461              3188.3952              3190.5869
 Red. masses --      1.1040                 1.0887                 1.0904
 Frc consts  --      6.3186                 6.5211                 6.5400
 IR Inten    --     30.6121                 9.5125                 9.4391

                    106                    107                    108
                      A                      A                      A
 Frequencies --   3227.4902              3287.9340              3696.1910
 Red. masses --      1.0939                 1.0972                 1.0641
 Frc consts  --      6.7138                 6.9882                 8.5651
 IR Inten    --      4.5616                 0.5560                98.9430

 - Thermochemistry -
 -------------------
 Temperature   298.150 Kelvin.  Pressure   1.00000 Atm.
 Atom     1 has atomic number  6 and mass  12.00000

 Molecular mass:   274.13174 amu.
 Principal axes and moments of inertia in atomic units:
                           1         2         3
     Eigenvalues --  2642.36252********************
           X            0.99999   0.00534  -0.00078
           Y           -0.00536   0.99977  -0.02061
           Z            0.00067   0.02061   0.99979
 This molecule is an asymmetric top.
 Rotational symmetry number  1.
 Warning -- assumption of classical behavior for rotation
           may cause significant error
 Rotational temperatures (Kelvin)      0.03278     0.00821     0.00777
 Rotational constants (GHZ):           0.68300     0.17100     0.16199
 Zero-point vibrational energy     834732.6 (Joules/Mol)
                                  199.50589 (Kcal/Mol)
 Warning -- explicit consideration of  27 degrees of freedom as
           vibrations may cause significant error
 Vibrational temperatures:     32.00    47.06    85.93   102.04   129.92
          (Kelvin)            153.95   186.59   274.62   289.50   351.96
                              367.22   385.56   410.55   486.30   494.28
                              519.53   555.73   566.27   600.26   630.08
                              648.30   676.34   708.75   785.45   788.50
                              811.29   891.25   899.31   934.39   958.22
                             1009.12  1084.00  1101.36  1124.17  1134.25
                             1150.79  1214.02  1221.10  1227.58  1245.79
                             1307.17  1308.32  1369.26  1376.60  1385.68
                             1429.89  1444.38  1492.61  1561.74  1570.11
                             1576.61  1603.28  1649.59  1664.19  1667.76
                             1685.56  1704.65  1730.30  1738.04  1767.32
                             1776.67  1800.00  1852.58  1875.46  1906.54
                             1920.04  1930.77  1973.46  1986.89  2006.31
                             2016.31  2026.01  2032.74  2050.27  2054.59
                             2065.58  2134.74  2143.10  2153.13  2153.76
                             2169.14  2179.79  2182.92  2188.65  2211.14
                             2216.76  2349.26  2359.77  2409.02  2614.64
                             4222.09  4255.58  4268.01  4345.67  4350.22
                             4369.50  4407.13  4409.47  4421.66  4429.62
                             4449.37  4451.33  4484.30  4587.39  4590.54
                             4643.64  4730.60  5317.99

 Zero-point correction=                           0.317933 (Hartree/Particle)
 Thermal correction to Energy=                    0.335045
 Thermal correction to Enthalpy=                  0.335989
 Thermal correction to Gibbs Free Energy=         0.271817
 Sum of electronic and zero-point Energies=           -917.350084
 Sum of electronic and thermal Energies=              -917.332972
 Sum of electronic and thermal Enthalpies=            -917.332028
 Sum of electronic and thermal Free Energies=         -917.396200

                     E (Thermal)             CV                S
                      KCal/Mol        Cal/Mol-Kelvin    Cal/Mol-Kelvin
 Total                  210.244             67.660            135.062
 Electronic               0.000              0.000              0.000
 Translational            0.889              2.981             42.724
 Rotational               0.889              2.981             34.096
 Vibrational            208.467             61.698             58.243
 Vibration     1          0.593              1.985              6.423
 Vibration     2          0.594              1.983              5.658
 Vibration     3          0.597              1.974              4.466
 Vibration     4          0.598              1.968              4.128
 Vibration     5          0.602              1.956              3.654
 Vibration     6          0.606              1.944              3.323
 Vibration     7          0.612              1.924              2.951
 Vibration     8          0.634              1.852              2.219
 Vibration     9          0.638              1.838              2.122
 Vibration    10          0.660              1.772              1.769
 Vibration    11          0.666              1.754              1.694
 Vibration    12          0.673              1.732              1.609
 Vibration    13          0.683              1.701              1.501
 Vibration    14          0.718              1.600              1.222
 Vibration    15          0.722              1.588              1.196
 Vibration    16          0.735              1.552              1.117
 Vibration    17          0.755              1.500              1.015
 Vibration    18          0.761              1.484              0.987
 Vibration    19          0.780              1.433              0.902
 Vibration    20          0.798              1.388              0.833
 Vibration    21          0.809              1.360              0.794
 Vibration    22          0.827              1.316              0.737
 Vibration    23          0.848              1.266              0.677
 Vibration    24          0.901              1.149              0.553
 Vibration    25          0.903              1.144              0.548
 Vibration    26          0.920              1.109              0.516
 Vibration    27          0.979              0.991              0.417

 Optimization completed.
    -- Stationary point found.
 Normal termination of Gaussian 16 at Sun Dec 13 20:36:18 2020.

 ----------------------------------------------------------------------
 # B3LYP/6-311++G(d,p) empiricaldispersion=gd3bj scf=xqc pop=npa geom=c
 heck
 ----------------------------------------------------------------------

 ---------------------------------------
 CID_65295596_JID_10037_Energie_neutraal
 ---------------------------------------
 Structure from the checkpoint file:  "JID_10037.chk"
 Charge =  0 Multiplicity = 1

 SCF Done:  E(RB3LYP) =  -917.921820266     A.U. after   15 cycles
 Normal termination of Gaussian 16 at Sun Dec 13 20:45:50 2020.

 ----------------------------------------------------------------------
 # B3LYP/6-311++G(d,p) empiricaldispersion=gd3bj scf=xqc pop=npa geom=c
 heck
 ----------------------------------------------------------------------

 -------------------------------------
 CID_65295596_JID_10037_Energie_kation
 -------------------------------------
 Structure from the checkpoint file:  "JID_10037.chk"
 Charge =  1 Multiplicity = 2

 SCF Done:  E(UB3LYP) =  -917.653253973     A.U. after   25 cycles
 Normal termination of Gaussian 16 at Sun Dec 13 21:08:13 2020.
 Gaussian 16:  ES64L-G16RevA.03 25-Dec-2016

 ----------------------------------------------------------------------
 # B3LYP/6-311++G(d,p) empiricaldispersion=gd3bj scf=xqc pop=npa geom=c
 heck
 ----------------------------------------------------------------------

 ------------------------------------
 CID_65295596_JID_10037_Energie_anion
 ------------------------------------
 Structure from the checkpoint file:  "JID_10037.chk"
 Charge = -1 Multiplicity = 2

                         Standard orientation:
 ---------------------------------------------------------------------
 Center     Atomic      Atomic             Coordinates (Angstroms)
 Number     Number       Type             X           Y           Z
 ---------------------------------------------------------------------
      1          6           0        2.574162    3.037864   -0.716827
      2          7           0        3.177990    1.818998   -0.207642
      3          6           0        3.149031    0.751840   -1.207577
      4          6           0        3.867098   -0.490495   -0.662895
      5          7           0        3.368283   -0.956886    0.625352
      6          6           0        3.249169    0.140113    1.578622
      7          6           0        2.530407    1.379430    1.028362
      8          6           0        2.320888   -1.972248    0.627398
      9          6           0        0.924197   -1.576807    0.163517
     10          6           0       -0.013186   -1.103603    1.076918
     11          6           0       -1.268803   -0.678942    0.614289
     12          6           0       -1.552128   -0.758771   -0.765609
     13          6           0       -0.648769   -1.251399   -1.700162
     14          6           0        0.586460   -1.659073   -1.207468
     15          8           0       -2.813898   -0.305895   -1.023199
     16          6           0       -3.340061    0.065896    0.196026
     17          6           0       -2.455233   -0.138616    1.214568
     18          6           0       -4.699704    0.604901    0.259805
     19          8           0       -5.230969    0.954311    1.295655
     20          8           0       -5.300369    0.672791   -0.949859
     21          1           0        3.107598    3.366199   -1.615810
     22          1           0        1.504169    2.915936   -0.978264
     23          1           0        2.650897    3.830042    0.036176
     24          1           0        2.112885    0.502432   -1.502363
     25          1           0        3.670750    1.105564   -2.105919
     26          1           0        4.928414   -0.231084   -0.538739
     27          1           0        3.808880   -1.311099   -1.386468
     28          1           0        4.264613    0.446845    1.868038
     29          1           0        2.742914   -0.223555    2.479544
     30          1           0        2.598835    2.192406    1.762238
     31          1           0        1.457487    1.165597    0.868785
     32          1           0        2.679350   -2.800969    0.004114
     33          1           0        2.251562   -2.355834    1.652965
     34          1           0        0.229090   -1.055613    2.135259
     35          1           0       -0.902824   -1.316936   -2.752329
     36          1           0        1.323756   -2.054610   -1.901023
     37          1           0       -2.644290    0.078167    2.255708
     38          1           0       -6.187283    1.041541   -0.780451
 ---------------------------------------------------------------------

 SCF Done:  E(UB3LYP) =  -917.942169749     A.U. after   21 cycles

 The electronic state is 2-A.
 Alpha  occ. eigenvalues --  -19.03440 -19.02104 -18.94442 -14.21151 -14.20181
 Alpha  occ. eigenvalues --  -10.13170 -10.09917 -10.09867 -10.09785 -10.09191
 Alpha  occ. eigenvalues --  -10.09065 -10.09058 -10.09007 -10.06867 -10.04489
 Alpha  occ. eigenvalues --  -10.03896 -10.03809 -10.03487 -10.03267 -10.01802
 Alpha  occ. eigenvalues --   -0.96867  -0.95197  -0.86240  -0.84932  -0.80808
 Alpha  occ. eigenvalues --   -0.72359  -0.66688  -0.66007  -0.65222  -0.62081
 Alpha  occ. eigenvalues --   -0.60169  -0.57488  -0.55012  -0.53300  -0.51569
 Alpha  occ. eigenvalues --   -0.46972  -0.46466  -0.44798  -0.43518  -0.40022
 Alpha  occ. eigenvalues --   -0.38947  -0.37327  -0.37237  -0.36917  -0.36641
 Alpha  occ. eigenvalues --   -0.35435  -0.34490  -0.33174  -0.32749  -0.31792
 Alpha  occ. eigenvalues --   -0.31195  -0.30560  -0.30285  -0.29059  -0.28601
 Alpha  occ. eigenvalues --   -0.28151  -0.27601  -0.26359  -0.26123  -0.25503
 Alpha  occ. eigenvalues --   -0.25023  -0.24597  -0.23939  -0.23524  -0.21463
 Alpha  occ. eigenvalues --   -0.20437  -0.18388  -0.16004  -0.13278  -0.13051
 Alpha  occ. eigenvalues --   -0.11474  -0.09911  -0.09313   0.03830
 Alpha virt. eigenvalues --    0.06762   0.07808   0.08092   0.09069   0.09586
 Alpha virt. eigenvalues --    0.09863   0.10055   0.10808   0.11620   0.11766
 Alpha virt. eigenvalues --    0.12278   0.12458   0.12873   0.13238   0.13816

  Beta  occ. eigenvalues --  -19.03289 -19.02010 -18.94087 -14.21151 -14.20187
  Beta  occ. eigenvalues --  -10.12895 -10.09915 -10.09867 -10.09784 -10.09187
  Beta  occ. eigenvalues --  -10.09059 -10.09055 -10.09030 -10.06623 -10.04564
  Beta  occ. eigenvalues --  -10.03913 -10.03686 -10.03288 -10.03011 -10.01587
  Beta  occ. eigenvalues --   -0.96556  -0.94892  -0.85697  -0.84932  -0.80810
  Beta  occ. eigenvalues --   -0.72118  -0.66679  -0.65703  -0.65007  -0.61965
  Beta  occ. eigenvalues --   -0.59596  -0.57326  -0.55003  -0.52944  -0.51281
  Beta  occ. eigenvalues --   -0.46702  -0.46390  -0.44758  -0.43226  -0.39970
  Beta  occ. eigenvalues --   -0.38831  -0.37294  -0.37051  -0.36697  -0.36579
  Beta  occ. eigenvalues --   -0.35433  -0.34397  -0.32855  -0.31755  -0.31686
  Beta  occ. eigenvalues --   -0.31081  -0.30506  -0.30205  -0.28554  -0.28112
  Beta  occ. eigenvalues --   -0.27913  -0.27486  -0.26315  -0.26015  -0.25469
  Beta  occ. eigenvalues --   -0.24730  -0.24476  -0.23883  -0.23425  -0.20692
  Beta  occ. eigenvalues --   -0.20316  -0.16949  -0.14696  -0.13024  -0.12911
  Beta  occ. eigenvalues --   -0.11149  -0.09480  -0.07513
  Beta virt. eigenvalues --    0.06746   0.07789   0.08071   0.09042   0.09531
  Beta virt. eigenvalues --    0.09590   0.09902   0.10126   0.10783   0.11652
  Beta virt. eigenvalues --    0.11988   0.12420   0.12488   0.13057   0.13301

 Mulliken charges and spin densities:
               1          2
     1  C   -0.230292  -0.001466
     2  N   -0.007775  -0.000501
     3  C   -0.293352  -0.012651
     4  C   -0.422250   0.013432
     5  N    0.209038   0.003642
     6  C   -0.463480   0.008624
     7  C   -0.264002  -0.004129
     8  C   -0.988236   0.006796
     9  C    1.017818  -0.079271
    10  C   -0.389207   0.218037
    11  C    0.373924  -0.009880
    12  C   -0.799705  -0.061373
    13  C   -0.404422   0.111430
    14  C   -0.368094   0.142088
    15  O   -0.098479   0.035265
    16  C    0.027071   0.124302
    17  C    0.015187   0.181347
    18  C    0.096526   0.225595
    19  O   -0.436498   0.123400
    20  O   -0.219568   0.018595
    21  H    0.109689  -0.000092
    22  H    0.131729   0.000114
    23  H    0.111398   0.000412
    24  H    0.213633  -0.001401
    25  H    0.136103   0.001976
    26  H    0.127614   0.002421
    27  H    0.154933  -0.001957
    28  H    0.126751   0.001151
    29  H    0.155567  -0.000347
    30  H    0.139509   0.003236
    31  H    0.190870  -0.003351
    32  H    0.150480   0.000999
    33  H    0.151737   0.005080
    34  H    0.085988  -0.015317
    35  H    0.145636  -0.007099
    36  H    0.089175  -0.014097
    37  H    0.165519  -0.014165
    38  H    0.259466  -0.000849
 Sum of Mulliken charges =  -1.00000   1.00000

 Dipole moment (field-independent basis, Debye):
    X=              9.1146    Y=              0.6717    Z=             -1.5219  Tot=              9.2651
 Quadrupole moment (field-independent basis, Debye-Ang):
   XX=           -194.8416   YY=           -133.9223   ZZ=           -130.0130
   XY=              4.2013   XZ=              7.9894   YZ=             -2.2907

 Summary of Natural Population Analysis:

                                       Natural Population
                Natural  -----------------------------------------------
    Atom  No    Charge         Core      Valence    Rydberg      Total
 -----------------------------------------------------------------------
      C    1   -0.17451      0.99966     2.16781    0.00704     3.17451
      N    2   -0.28810      0.99972     2.77070    0.01768     3.78810
      C    3   -0.09772      0.99962     2.08895    0.00915     3.09772
      C    4   -0.08437      0.99962     2.07490    0.00985     3.08437
      N    5   -0.28270      0.99973     2.76814    0.01482     3.78270
      C    6   -0.08483      0.99962     2.07533    0.00988     3.08483
      C    7   -0.09755      0.99962     2.08884    0.00909     3.09755
      C    8   -0.08122      0.99958     2.06975    0.01190     3.08122
      C    9   -0.06905      0.99952     2.05927    0.01026     3.06905
      C   10   -0.03840      0.99948     2.03316    0.00576     3.03840
      C   11   -0.06593      0.99951     2.05667    0.00975     3.06593
      C   12    0.15665      0.99936     1.83100    0.01299     2.84335
      C   13   -0.10782      0.99952     2.09931    0.00899     3.10782
      C   14   -0.07560      0.99954     2.06702    0.00905     3.07560
      O   15   -0.22613      0.99985     3.21804    0.00824     4.22613
      C   16    0.14631      0.99939     1.83979    0.01452     2.85369
      C   17   -0.08919      0.99949     2.08114    0.00856     3.08919
      C   18    0.40675      0.99965     1.56990    0.02370     2.59325
      O   19   -0.29718      0.99987     3.28940    0.00790     4.29718
      O   20   -0.34364      0.99988     3.33748    0.00628     4.34364
      H   21    0.09012      0.00000     0.40887    0.00101     0.40988
      H   22    0.08453      0.00000     0.41370    0.00178     0.41547
      H   23    0.09114      0.00000     0.40786    0.00100     0.40886
      H   24    0.09558      0.00000     0.40295    0.00147     0.40442
      H   25    0.08878      0.00000     0.40994    0.00128     0.41122
      H   26    0.08797      0.00000     0.41052    0.00152     0.41203
      H   27    0.09579      0.00000     0.40316    0.00104     0.40421
      H   28    0.08804      0.00000     0.41046    0.00150     0.41196
      H   29    0.09686      0.00000     0.40207    0.00107     0.40314
      H   30    0.08989      0.00000     0.40885    0.00126     0.41011
      H   31    0.09635      0.00000     0.40222    0.00143     0.40365
      H   32    0.09185      0.00000     0.40706    0.00109     0.40815
      H   33    0.09234      0.00000     0.40643    0.00123     0.40766
      H   34    0.08707      0.00000     0.41180    0.00113     0.41293
      H   35    0.09739      0.00000     0.40096    0.00164     0.40261
      H   36    0.08702      0.00000     0.41159    0.00140     0.41298
      H   37    0.10532      0.00000     0.39364    0.00104     0.39468
      H   38    0.22825      0.00000     0.26843    0.00332     0.27175
 =======================================================================
   * Total *    0.00005     19.99224    52.76712    0.24059    72.99995

 Normal termination of Gaussian 16 at Sun Dec 13 21:27:02 2020.
