 Gaussian 16, Revision A.03,

 -----------------------------------------------------------
 # opt freq B3LYP/6-31G(d) empiricaldispersion=gd3bj scf=xqc
 -----------------------------------------------------------

 -------------------------------
 CID_130596274_JID_3146_neutraal
 -------------------------------
 Symbolic Z-matrix:
 Charge =  0 Multiplicity = 1

 SCF Done:  E(RB3LYP) =  -560.647891064     A.U. after   14 cycles
 SCF Done:  E(RB3LYP) =  -560.651604675     A.U. after   12 cycles
 SCF Done:  E(RB3LYP) =  -560.652134033     A.U. after   11 cycles
 SCF Done:  E(RB3LYP) =  -560.652489750     A.U. after   11 cycles
 SCF Done:  E(RB3LYP) =  -560.652688490     A.U. after   10 cycles
 SCF Done:  E(RB3LYP) =  -560.653003002     A.U. after   12 cycles
 SCF Done:  E(RB3LYP) =  -560.653134349     A.U. after   10 cycles
 SCF Done:  E(RB3LYP) =  -560.653254611     A.U. after   11 cycles
 SCF Done:  E(RB3LYP) =  -560.653327126     A.U. after   10 cycles
 SCF Done:  E(RB3LYP) =  -560.653349007     A.U. after   11 cycles
 SCF Done:  E(RB3LYP) =  -560.653356304     A.U. after   10 cycles
 SCF Done:  E(RB3LYP) =  -560.653358813     A.U. after    7 cycles
 SCF Done:  E(RB3LYP) =  -560.653359873     A.U. after    8 cycles
 SCF Done:  E(RB3LYP) =  -560.653359873     A.U. after    8 cycles
 SCF Done:  E(RB3LYP) =  -560.653359933     A.U. after    7 cycles
 Optimization completed.
    -- Stationary point found.
 Normal termination of Gaussian 16 at Wed Dec  9 22:30:53 2020.

 --------------------------------------------------------------------
 #N Geom=AllCheck Guess=TCheck SCRF=Check GenChk RB3LYP/6-31G(d) Freq
 --------------------------------------------------------------------

 Structure from the checkpoint file:  "JID_3146.chk"
 -------------------------------
 CID_130596274_JID_3146_neutraal
 -------------------------------
 Charge =  0 Multiplicity = 1

 SCF Done:  E(RB3LYP) =  -560.653359933     A.U. after    1 cycles

  Exact polarizability: 140.911  -5.174 107.761  -3.273  -0.799 106.683
 Approx polarizability: 174.741 -15.711 164.531  -4.252  -3.201 164.293

                      1                      2                      3
                      A                      A                      A
 Frequencies --     44.0976                47.1982                87.3864
 Red. masses --      4.3376                 4.7418                 3.7666
 Frc consts  --      0.0050                 0.0062                 0.0169
 IR Inten    --      1.0999                 0.8049                 0.3932

                      4                      5                      6
                      A                      A                      A
 Frequencies --    178.8224               203.6242               212.1025
 Red. masses --      2.2751                 1.5902                 3.2546
 Frc consts  --      0.0429                 0.0388                 0.0863
 IR Inten    --      1.8513                 0.0911                 5.6817

                      7                      8                      9
                      A                      A                      A
 Frequencies --    245.4805               253.3847               268.9585
 Red. masses --      1.3406                 2.8845                 1.4657
 Frc consts  --      0.0476                 0.1091                 0.0625
 IR Inten    --      0.0367                 0.8496                 0.6381

                     10                     11                     12
                      A                      A                      A
 Frequencies --    301.6870               325.9835               360.4888
 Red. masses --      1.7827                 2.4627                 1.9365
 Frc consts  --      0.0956                 0.1542                 0.1483
 IR Inten    --      2.0957                 1.2654                41.5910

                     13                     14                     15
                      A                      A                      A
 Frequencies --    391.3650               414.5347               418.2959
 Red. masses --      1.3399                 1.9677                 1.9444
 Frc consts  --      0.1209                 0.1992                 0.2004
 IR Inten    --     81.4614                 2.9509                 1.4375

                     16                     17                     18
                      A                      A                      A
 Frequencies --    449.5123               481.3240               502.3587
 Red. masses --      2.3394                 3.2554                 3.1618
 Frc consts  --      0.2785                 0.4444                 0.4701
 IR Inten    --      2.4488                 0.4070                 1.4310

                     19                     20                     21
                      A                      A                      A
 Frequencies --    536.5236               560.7889               654.5709
 Red. masses --      2.4201                 2.6633                 2.8444
 Frc consts  --      0.4104                 0.4935                 0.7180
 IR Inten    --      0.4512                35.0785                 1.0749

                     22                     23                     24
                      A                      A                      A
 Frequencies --    712.8388               736.6031               798.5763
 Red. masses --      3.2828                 3.7933                 1.5178
 Frc consts  --      0.9828                 1.2126                 0.5703
 IR Inten    --      0.6138                 1.6567                 0.1778

                     25                     26                     27
                      A                      A                      A
 Frequencies --    811.4571               864.5498               895.2824
 Red. masses --      2.3748                 2.3759                 1.8405
 Frc consts  --      0.9213                 1.0463                 0.8692
 IR Inten    --      2.0045                 1.3574                 0.2620

                     28                     29                     30
                      A                      A                      A
 Frequencies --    929.9966               943.4036               954.1557
 Red. masses --      2.3588                 3.0897                 1.3809
 Frc consts  --      1.2020                 1.6202                 0.7407
 IR Inten    --      5.0155                 1.1181                 1.6273

                     31                     32                     33
                      A                      A                      A
 Frequencies --    958.4146               971.5796               996.9141
 Red. masses --      1.5223                 2.4000                 1.8397
 Frc consts  --      0.8239                 1.3348                 1.0772
 IR Inten    --      2.2468                 7.2933                 3.7008

                     34                     35                     36
                      A                      A                      A
 Frequencies --   1009.7891              1033.3693              1051.0115
 Red. masses --      2.0594                 1.5384                 2.2488
 Frc consts  --      1.2373                 0.9679                 1.4636
 IR Inten    --      4.5806                 0.6642                 0.3760

                     37                     38                     39
                      A                      A                      A
 Frequencies --   1054.2654              1059.8024              1094.9118
 Red. masses --      1.6712                 1.7344                 1.9858
 Frc consts  --      1.0944                 1.1477                 1.4026
 IR Inten    --      0.5131                 0.1292                 2.6486

                     40                     41                     42
                      A                      A                      A
 Frequencies --   1107.5658              1135.2769              1181.0368
 Red. masses --      1.6556                 1.4109                 1.5079
 Frc consts  --      1.1966                 1.0714                 1.2392
 IR Inten    --      1.4473                 9.7645                22.1087

                     43                     44                     45
                      A                      A                      A
 Frequencies --   1191.5965              1201.7201              1211.1509
 Red. masses --      1.5141                 1.8924                 1.4895
 Frc consts  --      1.2666                 1.6101                 1.2874
 IR Inten    --     32.4466                16.7815                 1.7953

                     46                     47                     48
                      A                      A                      A
 Frequencies --   1220.1927              1227.8455              1276.5711
 Red. masses --      2.1856                 1.9288                 1.7745
 Frc consts  --      1.9172                 1.7133                 1.7038
 IR Inten    --      7.8262                 2.5303                18.8651

                     49                     50                     51
                      A                      A                      A
 Frequencies --   1310.7824              1312.1750              1323.0556
 Red. masses --      1.6275                 1.5184                 1.5786
 Frc consts  --      1.6475                 1.5403                 1.6281
 IR Inten    --      0.1985                 0.6433                 4.9634

                     52                     53                     54
                      A                      A                      A
 Frequencies --   1345.5717              1363.2034              1379.5536
 Red. masses --      1.3486                 1.4583                 1.4660
 Frc consts  --      1.4387                 1.5967                 1.6439
 IR Inten    --     13.3646                 5.8463                 1.6001

                     55                     56                     57
                      A                      A                      A
 Frequencies --   1384.6373              1394.6491              1408.6137
 Red. masses --      1.3618                 2.0049                 1.4925
 Frc consts  --      1.5383                 2.2976                 1.7448
 IR Inten    --      5.5475                37.1592                 4.6497

                     58                     59                     60
                      A                      A                      A
 Frequencies --   1416.5657              1429.1191              1433.2240
 Red. masses --      1.6539                 1.2670                 1.4341
 Frc consts  --      1.9554                 1.5247                 1.7357
 IR Inten    --     15.8889                 2.8015                15.8856

                     61                     62                     63
                      A                      A                      A
 Frequencies --   1452.8085              1492.6691              1509.1476
 Red. masses --      1.2479                 1.1236                 1.0816
 Frc consts  --      1.5518                 1.4750                 1.4514
 IR Inten    --      7.2196                11.6301                 0.0384

                     64                     65                     66
                      A                      A                      A
 Frequencies --   1510.0184              1513.8206              1524.3665
 Red. masses --      1.0711                 1.0670                 1.0653
 Frc consts  --      1.4390                 1.4407                 1.4585
 IR Inten    --      0.4864                 0.7223                 4.0333

                     67                     68                     69
                      A                      A                      A
 Frequencies --   1529.2154              1533.4571              1541.0923
 Red. masses --      1.0603                 1.0881                 1.0780
 Frc consts  --      1.4609                 1.5076                 1.5085
 IR Inten    --      7.8333                 0.8968                 5.2387

                     70                     71                     72
                      A                      A                      A
 Frequencies --   1546.6615              1899.0071              2997.3276
 Red. masses --      1.0608                11.2923                 1.0819
 Frc consts  --      1.4951                23.9931                 5.7268
 IR Inten    --      4.9407               607.4078                10.0322

                     73                     74                     75
                      A                      A                      A
 Frequencies --   3017.7995              3022.6672              3027.9125
 Red. masses --      1.0633                 1.0615                 1.0619
 Frc consts  --      5.7053                 5.7143                 5.7360
 IR Inten    --     21.2817                33.7448                20.8358

                     76                     77                     78
                      A                      A                      A
 Frequencies --   3036.0006              3036.7464              3047.4758
 Red. masses --      1.0827                 1.0385                 1.0397
 Frc consts  --      5.8797                 5.6423                 5.6892
 IR Inten    --     44.6849                48.0589                22.2424

                     79                     80                     81
                      A                      A                      A
 Frequencies --   3053.8932              3061.1151              3066.3131
 Red. masses --      1.0713                 1.0959                 1.0901
 Frc consts  --      5.8864                 6.0506                 6.0390
 IR Inten    --     11.0611                68.6745                 8.7966

                     82                     83                     84
                      A                      A                      A
 Frequencies --   3069.5805              3093.9451              3101.9894
 Red. masses --      1.1017                 1.1019                 1.1025
 Frc consts  --      6.1163                 6.2147                 6.2505
 IR Inten    --     69.6665                31.2656                 3.2557

                     85                     86                     87
                      A                      A                      A
 Frequencies --   3105.2711              3108.6269              3109.8526
 Red. masses --      1.1019                 1.1016                 1.0607
 Frc consts  --      6.2603                 6.2722                 6.0440
 IR Inten    --     51.4528                62.2359                18.7395

                     88                     89                     90
                      A                      A                      A
 Frequencies --   3126.4409              3165.4004              3596.1948
 Red. masses --      1.0987                 1.1070                 1.0790
 Frc consts  --      6.3277                 6.5354                 8.2215
 IR Inten    --     38.4870                10.8770                11.9928

 - Thermochemistry -
 -------------------
 Temperature   298.150 Kelvin.  Pressure   1.00000 Atm.
 Atom     1 has atomic number  6 and mass  12.00000

 Molecular mass:   181.14666 amu.
 Principal axes and moments of inertia in atomic units:
                           1         2         3
     Eigenvalues --   953.670584611.967674724.02998
           X            0.99988   0.01401  -0.00662
           Y           -0.01392   0.99981   0.01364
           Z            0.00681  -0.01354   0.99989
 This molecule is an asymmetric top.
 Rotational symmetry number  1.
 Warning -- assumption of classical behavior for rotation
           may cause significant error
 Rotational temperatures (Kelvin)      0.09082     0.01878     0.01833
 Rotational constants (GHZ):           1.89242     0.39132     0.38203
 Zero-point vibrational energy     759427.3 (Joules/Mol)
                                  181.50749 (Kcal/Mol)
 Warning -- explicit consideration of  20 degrees of freedom as
           vibrations may cause significant error
 Vibrational temperatures:     63.45    67.91   125.73   257.29   292.97
          (Kelvin)            305.17   353.19   364.56   386.97   434.06
                              469.02   518.66   563.09   596.42   601.83
                              646.75   692.52   722.78   771.94   806.85
                              941.78  1025.62  1059.81  1148.97  1167.51
                             1243.89  1288.11  1338.06  1357.35  1372.82
                             1378.94  1397.89  1434.34  1452.86  1486.79
                             1512.17  1516.85  1524.82  1575.33  1593.54
                             1633.41  1699.25  1714.44  1729.01  1742.58
                             1755.59  1766.60  1836.70  1885.92  1887.93
                             1903.58  1935.98  1961.35  1984.87  1992.18
                             2006.59  2026.68  2038.12  2056.18  2062.09
                             2090.27  2147.62  2171.33  2172.58  2178.05
                             2193.22  2200.20  2206.30  2217.29  2225.30
                             2732.25  4312.49  4341.94  4348.94  4356.49
                             4368.13  4369.20  4384.64  4393.87  4404.26
                             4411.74  4416.44  4451.50  4463.07  4467.79
                             4472.62  4474.38  4498.25  4554.31  5174.12

 Zero-point correction=                           0.289251 (Hartree/Particle)
 Thermal correction to Energy=                    0.302181
 Thermal correction to Enthalpy=                  0.303125
 Thermal correction to Gibbs Free Energy=         0.250142
 Sum of electronic and zero-point Energies=           -560.364109
 Sum of electronic and thermal Energies=              -560.351179
 Sum of electronic and thermal Enthalpies=            -560.350235
 Sum of electronic and thermal Free Energies=         -560.403218

                     E (Thermal)             CV                S
                      KCal/Mol        Cal/Mol-Kelvin    Cal/Mol-Kelvin
 Total                  189.621             51.402            111.512
 Electronic               0.000              0.000              0.000
 Translational            0.889              2.981             41.489
 Rotational               0.889              2.981             31.408
 Vibrational            187.844             45.441             38.615
 Vibration     1          0.595              1.980              5.066
 Vibration     2          0.595              1.979              4.931
 Vibration     3          0.601              1.958              3.718
 Vibration     4          0.629              1.868              2.341
 Vibration     5          0.639              1.835              2.100
 Vibration     6          0.643              1.822              2.026
 Vibration     7          0.660              1.770              1.763
 Vibration     8          0.665              1.757              1.707
 Vibration     9          0.673              1.730              1.603
 Vibration    10          0.694              1.671              1.408
 Vibration    11          0.710              1.624              1.280
 Vibration    12          0.735              1.554              1.120
 Vibration    13          0.759              1.489              0.995
 Vibration    14          0.778              1.439              0.911
 Vibration    15          0.781              1.430              0.898
 Vibration    16          0.808              1.362              0.797
 Vibration    17          0.838              1.291              0.707
 Vibration    18          0.858              1.245              0.652
 Vibration    19          0.892              1.169              0.573
 Vibration    20          0.916              1.116              0.522

 Optimization completed.
    -- Stationary point found.
 Normal termination of Gaussian 16 at Wed Dec  9 22:39:54 2020.

 ----------------------------------------------------------------------
 # B3LYP/6-311++G(d,p) empiricaldispersion=gd3bj scf=xqc pop=npa geom=c
 heck
 ----------------------------------------------------------------------

 ---------------------------------------
 CID_130596274_JID_3146_Energie_neutraal
 ---------------------------------------
 Structure from the checkpoint file:  "JID_3146.chk"
 Charge =  0 Multiplicity = 1

 SCF Done:  E(RB3LYP) =  -560.812325942     A.U. after   13 cycles
 Normal termination of Gaussian 16 at Wed Dec  9 22:44:01 2020.

 ----------------------------------------------------------------------
 # B3LYP/6-311++G(d,p) empiricaldispersion=gd3bj scf=xqc pop=npa geom=c
 heck
 ----------------------------------------------------------------------

 -------------------------------------
 CID_130596274_JID_3146_Energie_kation
 -------------------------------------
 Structure from the checkpoint file:  "JID_3146.chk"
 Charge =  1 Multiplicity = 2

 SCF Done:  E(UB3LYP) =  -560.474468577     A.U. after   33 cycles
 SCF Done:  E(UB3LYP) =  -560.474468577     a.u. after    1 cycles
 Normal termination of Gaussian 16 at Wed Dec  9 22:59:28 2020.
 Gaussian 16:  ES64L-G16RevA.03 25-Dec-2016

 ----------------------------------------------------------------------
 # B3LYP/6-311++G(d,p) empiricaldispersion=gd3bj scf=xqc pop=npa geom=c
 heck
 ----------------------------------------------------------------------

 ------------------------------------
 CID_130596274_JID_3146_Energie_anion
 ------------------------------------
 Structure from the checkpoint file:  "JID_3146.chk"
 Charge = -1 Multiplicity = 2

                         Standard orientation:
 ---------------------------------------------------------------------
 Center     Atomic      Atomic             Coordinates (Angstroms)
 Number     Number       Type             X           Y           Z
 ---------------------------------------------------------------------
      1          6           0       -2.433005   -1.180620    1.251365
      2          6           0       -2.523352   -0.251559    0.027369
      3          6           0       -2.098693    1.186388    0.399822
      4          6           0       -0.604590    1.320232    0.715953
      5          6           0        0.278215    0.806835   -0.434888
      6          6           0       -0.108776   -0.635216   -0.796601
      7          6           0       -1.606217   -0.755657   -1.108888
      8          6           0        1.758208    0.987340   -0.089310
      9          6           0        2.846960    0.419338   -1.049240
     10          6           0        3.316163   -0.430371    0.155465
     11          8           0        4.213784   -1.207709    0.379557
     12          7           0        2.298334    0.071095    0.935039
     13          6           0       -3.977600   -0.235423   -0.466327
     14          1           0       -1.418990   -1.247382    1.656505
     15          1           0       -3.088432   -0.824704    2.055313
     16          1           0       -2.748771   -2.196843    0.987196
     17          1           0       -2.337908    1.849078   -0.444575
     18          1           0       -2.696861    1.539058    1.250428
     19          1           0       -0.364807    0.757594    1.629122
     20          1           0       -0.363824    2.370131    0.929115
     21          1           0        0.085097    1.443672   -1.313463
     22          1           0        0.163165   -1.298618    0.032463
     23          1           0        0.464835   -0.979832   -1.664818
     24          1           0       -1.854666   -1.798750   -1.344807
     25          1           0       -1.825379   -0.172384   -2.015282
     26          1           0        1.941370    2.039731    0.166417
     27          1           0        2.482247   -0.158282   -1.900578
     28          1           0        3.590308    1.144636   -1.388786
     29          1           0        2.143094    0.004373    1.933793
     30          1           0       -4.655101    0.130261    0.314922
     31          1           0       -4.090277    0.416187   -1.341214
     32          1           0       -4.307588   -1.241635   -0.751803
 ---------------------------------------------------------------------

 SCF Done:  E(UB3LYP) =  -560.800822438     A.U. after   32 cycles

 The electronic state is 2-A.
 Alpha  occ. eigenvalues --  -19.00224 -14.23798 -10.17866 -10.12024 -10.08594
 Alpha  occ. eigenvalues --  -10.08215 -10.07624 -10.06555 -10.06517 -10.06397
 Alpha  occ. eigenvalues --  -10.06197 -10.06023 -10.05799  -0.94830  -0.85888
 Alpha  occ. eigenvalues --   -0.74803  -0.69214  -0.64859  -0.64355  -0.59780
 Alpha  occ. eigenvalues --   -0.58870  -0.53678  -0.51508  -0.48938  -0.47348
 Alpha  occ. eigenvalues --   -0.43409  -0.39882  -0.38853  -0.36705  -0.35933
 Alpha  occ. eigenvalues --   -0.35730  -0.34095  -0.32942  -0.32527  -0.31571
 Alpha  occ. eigenvalues --   -0.29199  -0.28891  -0.28287  -0.28172  -0.27558
 Alpha  occ. eigenvalues --   -0.27178  -0.25622  -0.24785  -0.23689  -0.23384
 Alpha  occ. eigenvalues --   -0.21408  -0.20866  -0.19585  -0.16878  -0.16337
 Alpha  occ. eigenvalues --    0.04249
 Alpha virt. eigenvalues --    0.06477   0.06937   0.07619   0.08554   0.08959
 Alpha virt. eigenvalues --    0.09165   0.09684   0.10625   0.10726   0.11432
 Alpha virt. eigenvalues --    0.11675   0.12102   0.12663   0.13410   0.13536

  Beta  occ. eigenvalues --  -19.00222 -14.23773 -10.17866 -10.12004 -10.08574
  Beta  occ. eigenvalues --  -10.08215 -10.07613 -10.06543 -10.06500 -10.06370
  Beta  occ. eigenvalues --  -10.06175 -10.06002 -10.05769  -0.94824  -0.85861
  Beta  occ. eigenvalues --   -0.74778  -0.69181  -0.64810  -0.64317  -0.59740
  Beta  occ. eigenvalues --   -0.58819  -0.53630  -0.51441  -0.48871  -0.47299
  Beta  occ. eigenvalues --   -0.43355  -0.39829  -0.38818  -0.36691  -0.35903
  Beta  occ. eigenvalues --   -0.35702  -0.34057  -0.32901  -0.32503  -0.31542
  Beta  occ. eigenvalues --   -0.29169  -0.28857  -0.28251  -0.28141  -0.27528
  Beta  occ. eigenvalues --   -0.27148  -0.25584  -0.24737  -0.23658  -0.23352
  Beta  occ. eigenvalues --   -0.21372  -0.20824  -0.19555  -0.16856  -0.16313
  Beta virt. eigenvalues --    0.06460   0.07344   0.07786   0.08181   0.09053
  Beta virt. eigenvalues --    0.09524   0.09711   0.10141   0.10919   0.10937
  Beta virt. eigenvalues --    0.11863   0.12061   0.12477   0.12750   0.13663

 Mulliken charges and spin densities:
               1          2
     1  C    1.071572  -1.766808
     2  C   -1.238599   2.180080
     3  C    0.279725  -0.971590
     4  C   -0.122265  -0.389872
     5  C    0.888985  -0.213344
     6  C   -1.136543   0.671463
     7  C    1.384560  -2.246203
     8  C    0.022202  -0.227759
     9  C   -0.040097  -0.296594
    10  C    0.147246  -0.113324
    11  O   -0.382277  -0.000213
    12  N   -0.048027  -0.140355
    13  C    0.268715  -0.784226
    14  H    0.173068  -0.041798
    15  H   -0.254194   0.409614
    16  H   -0.020689   0.163573
    17  H   -0.067187   0.221639
    18  H   -0.254890   0.427902
    19  H   -0.083359   0.219581
    20  H   -0.423253   0.596388
    21  H   -0.059818   0.259166
    22  H    0.043444   0.153583
    23  H    0.163553  -0.033433
    24  H   -0.064785   0.230873
    25  H   -0.100480   0.262838
    26  H   -0.587428   0.852639
    27  H   -0.132638   0.283424
    28  H   -0.248857   0.426791
    29  H   -0.005080   0.293759
    30  H   -0.010051   0.147329
    31  H   -0.129531   0.266129
    32  H   -0.033021   0.158749
 Sum of Mulliken charges =  -1.00000   1.00000

 Dipole moment (field-independent basis, Debye):
    X=             -1.1678    Y=             -2.1917    Z=             -1.2626  Tot=              2.7859
 Quadrupole moment (field-independent basis, Debye-Ang):
   XX=           -159.9980   YY=           -126.9884   ZZ=           -118.5850
   XY=              3.5487   XZ=              0.5797   YZ=              0.5252

 Summary of Natural Population Analysis:

                                       Natural Population
                Natural  -----------------------------------------------
    Atom  No    Charge         Core      Valence    Rydberg      Total
 -----------------------------------------------------------------------
      C    1   -0.28722      0.99962     2.28013    0.00747     3.28722
      C    2   -0.04677      0.99957     2.03529    0.01191     3.04677
      C    3   -0.18600      0.99959     2.17557    0.01084     3.18600
      C    4   -0.18906      0.99961     2.17953    0.00992     3.18906
      C    5   -0.11389      0.99956     2.10342    0.01090     3.11389
      C    6   -0.19132      0.99961     2.18376    0.00796     3.19132
      C    7   -0.18495      0.99959     2.17556    0.00981     3.18495
      C    8    0.00409      0.99961     1.98272    0.01358     2.99591
      C    9   -0.22898      0.99959     2.22215    0.00724     3.22898
      C   10    0.34642      0.99971     1.63032    0.02355     2.65358
      O   11   -0.31230      0.99987     3.30655    0.00588     4.31230
      N   12   -0.32753      0.99967     2.81834    0.00951     3.82753
      C   13   -0.27952      0.99962     2.27374    0.00615     3.27952
      H   14    0.10071      0.00000     0.39820    0.00109     0.39929
      H   15    0.10064      0.00000     0.39836    0.00100     0.39936
      H   16    0.09825      0.00000     0.40084    0.00090     0.40175
      H   17    0.09753      0.00000     0.40094    0.00153     0.40247
      H   18    0.10106      0.00000     0.39769    0.00126     0.39894
      H   19    0.09370      0.00000     0.40423    0.00207     0.40630
      H   20    0.10347      0.00000     0.39463    0.00190     0.39653
      H   21    0.09959      0.00000     0.39824    0.00218     0.40041
      H   22    0.09905      0.00000     0.39909    0.00186     0.40095
      H   23    0.09868      0.00000     0.40022    0.00110     0.40132
      H   24    0.09836      0.00000     0.40071    0.00093     0.40164
      H   25    0.09718      0.00000     0.40154    0.00129     0.40282
      H   26    0.09604      0.00000     0.40130    0.00266     0.40396
      H   27    0.10848      0.00000     0.39037    0.00115     0.39152
      H   28    0.11042      0.00000     0.38841    0.00118     0.38958
      H   29    0.19782      0.00000     0.29976    0.00242     0.30218
      H   30    0.09916      0.00000     0.39982    0.00102     0.40084
      H   31    0.09948      0.00000     0.39948    0.00104     0.40052
      H   32    0.09743      0.00000     0.40160    0.00097     0.40257
 =======================================================================
   * Total *    0.00000     12.99521    36.84250    0.16229    50.00000

 Normal termination of Gaussian 16 at Wed Dec  9 23:13:09 2020.
