 Gaussian 16, Revision A.03,

 -----------------------------------------------------------
 # opt freq B3LYP/6-31G(d) empiricaldispersion=gd3bj scf=xqc
 -----------------------------------------------------------

 ------------------------------
 CID_60930152_JID_5608_neutraal
 ------------------------------
 Symbolic Z-matrix:
 Charge =  0 Multiplicity = 1

 SCF Done:  E(RB3LYP) =  -618.184171662     A.U. after   14 cycles
 SCF Done:  E(RB3LYP) =  -618.188945458     A.U. after   12 cycles
 SCF Done:  E(RB3LYP) =  -618.189310495     A.U. after   11 cycles
 SCF Done:  E(RB3LYP) =  -618.189807060     A.U. after   11 cycles
 SCF Done:  E(RB3LYP) =  -618.190140650     A.U. after   12 cycles
 SCF Done:  E(RB3LYP) =  -618.190366049     A.U. after   12 cycles
 SCF Done:  E(RB3LYP) =  -618.190553010     A.U. after   11 cycles
 SCF Done:  E(RB3LYP) =  -618.190651908     A.U. after   11 cycles
 SCF Done:  E(RB3LYP) =  -618.190689343     A.U. after   11 cycles
 SCF Done:  E(RB3LYP) =  -618.190714402     A.U. after   11 cycles
 SCF Done:  E(RB3LYP) =  -618.196077407     A.U. after    9 cycles
 SCF Done:  E(RB3LYP) =  -618.196081342     A.U. after    9 cycles
 SCF Done:  E(RB3LYP) =  -618.196082686     A.U. after    8 cycles
 SCF Done:  E(RB3LYP) =  -618.196083197     A.U. after    8 cycles
 SCF Done:  E(RB3LYP) =  -618.196083311     A.U. after    8 cycles
 SCF Done:  E(RB3LYP) =  -618.196083309     A.U. after    7 cycles
 Optimization completed.
    -- Stationary point found.
 Normal termination of Gaussian 16 at Thu Dec 10 16:54:47 2020.

 --------------------------------------------------------------------
 #N Geom=AllCheck Guess=TCheck SCRF=Check GenChk RB3LYP/6-31G(d) Freq
 --------------------------------------------------------------------

 Structure from the checkpoint file:  "JID_5608.chk"
 ------------------------------
 CID_60930152_JID_5608_neutraal
 ------------------------------
 Charge =  0 Multiplicity = 1

 SCF Done:  E(RB3LYP) =  -618.196083309     A.U. after    1 cycles

  Exact polarizability: 202.659   0.677 148.048  -2.922  -6.244 108.452
 Approx polarizability: 271.588   2.777 234.126  -6.747 -16.537 155.041

                      1                      2                      3
                      A                      A                      A
 Frequencies --     35.7912                44.5937                65.8843
 Red. masses --      2.9682                 3.4436                 2.8370
 Frc consts  --      0.0022                 0.0040                 0.0073
 IR Inten    --      1.4888                 0.4332                 1.9624

                      4                      5                      6
                      A                      A                      A
 Frequencies --     94.9181               107.3199               128.5949
 Red. masses --      2.6503                 2.7344                 2.9360
 Frc consts  --      0.0141                 0.0186                 0.0286
 IR Inten    --      0.0931                 0.4400                 1.2965

                      7                      8                      9
                      A                      A                      A
 Frequencies --    178.6257               187.4815               213.3922
 Red. masses --      2.4848                 3.2168                 1.1975
 Frc consts  --      0.0467                 0.0666                 0.0321
 IR Inten    --      7.9193                 0.3053                 0.4048

                     10                     11                     12
                      A                      A                      A
 Frequencies --    230.8910               238.2752               245.3398
 Red. masses --      1.1753                 2.1289                 1.0538
 Frc consts  --      0.0369                 0.0712                 0.0374
 IR Inten    --      0.0569                 1.0231                 0.2281

                     13                     14                     15
                      A                      A                      A
 Frequencies --    268.4420               271.4720               273.8073
 Red. masses --      1.5785                 1.3227                 2.0968
 Frc consts  --      0.0670                 0.0574                 0.0926
 IR Inten    --     15.0764                 9.4318                13.7150

                     16                     17                     18
                      A                      A                      A
 Frequencies --    314.1153               335.2785               345.4664
 Red. masses --      2.3312                 2.1178                 2.1561
 Frc consts  --      0.1355                 0.1403                 0.1516
 IR Inten    --      3.7463                 9.2853                15.9071

                     19                     20                     21
                      A                      A                      A
 Frequencies --    384.0988               410.9692               422.4186
 Red. masses --      3.7142                 2.9181                 2.4723
 Frc consts  --      0.3229                 0.2904                 0.2599
 IR Inten    --      1.8553                 3.4812                 3.4101

                     22                     23                     24
                      A                      A                      A
 Frequencies --    468.9867               513.7548               529.7244
 Red. masses --      3.1208                 3.7085                 3.5078
 Frc consts  --      0.4044                 0.5767                 0.5799
 IR Inten    --      9.4725                 9.9068                 3.8859

                     25                     26                     27
                      A                      A                      A
 Frequencies --    567.3806               586.1870               616.6531
 Red. masses --      2.7646                 4.4937                 3.3168
 Frc consts  --      0.5244                 0.9098                 0.7431
 IR Inten    --      2.2830                 5.0176                 5.2596

                     28                     29                     30
                      A                      A                      A
 Frequencies --    681.6726               744.2922               754.0258
 Red. masses --      2.9266                 4.6043                 3.4162
 Frc consts  --      0.8012                 1.5028                 1.1444
 IR Inten    --      1.8879                 3.0632                 2.2175

                     31                     32                     33
                      A                      A                      A
 Frequencies --    787.5300               837.9309               861.7965
 Red. masses --      1.2680                 1.6023                 1.8721
 Frc consts  --      0.4633                 0.6629                 0.8192
 IR Inten    --     12.4631                24.1260                19.2074

                     34                     35                     36
                      A                      A                      A
 Frequencies --    874.8087               908.7308               917.3823
 Red. masses --      1.3600                 1.3330                 2.1852
 Frc consts  --      0.6132                 0.6486                 1.0835
 IR Inten    --     72.9020                21.4367                 2.7191

                     37                     38                     39
                      A                      A                      A
 Frequencies --    934.5330               945.1035               951.1834
 Red. masses --      1.3908                 3.4610                 1.2747
 Frc consts  --      0.7157                 1.8214                 0.6795
 IR Inten    --      0.1382                 0.8441                 0.5502

                     40                     41                     42
                      A                      A                      A
 Frequencies --    964.1223               994.9931              1014.6170
 Red. masses --      1.2974                 2.6826                 1.7140
 Frc consts  --      0.7106                 1.5647                 1.0396
 IR Inten    --      1.6510                 6.4196                13.7012

                     43                     44                     45
                      A                      A                      A
 Frequencies --   1027.6082              1071.8192              1077.2972
 Red. masses --      1.5210                 2.1432                 1.5180
 Frc consts  --      0.9463                 1.4506                 1.0380
 IR Inten    --     11.7568                17.9023                 2.7289

                     46                     47                     48
                      A                      A                      A
 Frequencies --   1080.9134              1118.2191              1143.3505
 Red. masses --      2.5336                 1.8382                 1.9812
 Frc consts  --      1.7441                 1.3542                 1.5260
 IR Inten    --      2.7145                14.5627                48.2445

                     49                     50                     51
                      A                      A                      A
 Frequencies --   1149.0652              1175.1124              1185.9393
 Red. masses --      2.1128                 1.6729                 1.2628
 Frc consts  --      1.6436                 1.3610                 1.0464
 IR Inten    --     25.3360                33.6190                 8.1770

                     52                     53                     54
                      A                      A                      A
 Frequencies --   1202.9212              1207.0660              1236.5455
 Red. masses --      2.0369                 1.4864                 2.3376
 Frc consts  --      1.7366                 1.2760                 2.1059
 IR Inten    --      0.5363                 6.5865                52.5745

                     55                     56                     57
                      A                      A                      A
 Frequencies --   1266.1107              1308.0212              1309.2911
 Red. masses --      2.4444                 1.4961                 2.6472
 Frc consts  --      2.3087                 1.5082                 2.6736
 IR Inten    --     11.5307                11.7985                60.9012

                     58                     59                     60
                      A                      A                      A
 Frequencies --   1330.3528              1356.6833              1369.7975
 Red. masses --      1.7856                 2.2613                 1.3093
 Frc consts  --      1.8620                 2.4523                 1.4474
 IR Inten    --      7.5299                 4.6788                 4.0998

                     61                     62                     63
                      A                      A                      A
 Frequencies --   1376.1065              1412.4591              1425.3096
 Red. masses --      1.3412                 1.3232                 1.2627
 Frc consts  --      1.4963                 1.5553                 1.5114
 IR Inten    --     10.6089                 6.7957                 8.6627

                     64                     65                     66
                      A                      A                      A
 Frequencies --   1430.5920              1431.2108              1436.5088
 Red. masses --      1.4171                 1.5201                 1.2491
 Frc consts  --      1.7088                 1.8346                 1.5187
 IR Inten    --      1.9153                67.7331                14.8325

                     67                     68                     69
                      A                      A                      A
 Frequencies --   1437.9066              1447.1670              1473.1800
 Red. masses --      1.3001                 1.2805                 2.4301
 Frc consts  --      1.5838                 1.5800                 3.1073
 IR Inten    --     13.3922                34.4247                 7.8326

                     70                     71                     72
                      A                      A                      A
 Frequencies --   1509.0624              1513.4735              1519.3749
 Red. masses --      1.0856                 1.0466                 1.0560
 Frc consts  --      1.4565                 1.4125                 1.4363
 IR Inten    --      2.3357                 2.6007                 2.0041

                     73                     74                     75
                      A                      A                      A
 Frequencies --   1520.3926              1525.5982              1528.5233
 Red. masses --      1.0581                 1.0572                 1.1657
 Frc consts  --      1.4411                 1.4497                 1.6046
 IR Inten    --      4.1136                 1.6748                 5.3975

                     76                     77                     78
                      A                      A                      A
 Frequencies --   1534.0591              1537.0362              1541.0097
 Red. masses --      1.0443                 1.0997                 1.0591
 Frc consts  --      1.4480                 1.5307                 1.4818
 IR Inten    --      3.0936                 5.4410                 3.8121

                     79                     80                     81
                      A                      A                      A
 Frequencies --   1549.8465              1555.9943              1623.4038
 Red. masses --      1.0861                 2.1286                 6.2585
 Frc consts  --      1.5371                 3.0364                 9.7179
 IR Inten    --      5.7605               101.0875                 2.5256

                     82                     83                     84
                      A                      A                      A
 Frequencies --   1672.0791              1690.8780              2956.9742
 Red. masses --      4.8127                 1.1369                 1.0732
 Frc consts  --      7.9278                 1.9152                 5.5288
 IR Inten    --     25.1540                24.7105                79.9595

                     85                     86                     87
                      A                      A                      A
 Frequencies --   3032.4934              3034.8879              3047.3129
 Red. masses --      1.0874                 1.0435                 1.0358
 Frc consts  --      5.8915                 5.6630                 5.6671
 IR Inten    --     42.0708                28.6911                15.8874

                     88                     89                     90
                      A                      A                      A
 Frequencies --   3053.0249              3054.1088              3069.7037
 Red. masses --      1.0368                 1.0377                 1.0632
 Frc consts  --      5.6939                 5.7030                 5.9026
 IR Inten    --     18.0817                30.1259                50.1244

                     91                     92                     93
                      A                      A                      A
 Frequencies --   3077.6010              3093.3491              3104.0189
 Red. masses --      1.0856                 1.0915                 1.0996
 Frc consts  --      6.0582                 6.1535                 6.2422
 IR Inten    --      4.3624                22.1817                23.0305

                     94                     95                     96
                      A                      A                      A
 Frequencies --   3108.7769              3119.7548              3121.5317
 Red. masses --      1.1016                 1.1002                 1.0988
 Frc consts  --      6.2728                 6.3089                 6.3082
 IR Inten    --      0.9938                68.4017                41.8677

                     97                     98                     99
                      A                      A                      A
 Frequencies --   3127.0426              3130.8408              3134.4060
 Red. masses --      1.1028                 1.1018                 1.1019
 Frc consts  --      6.3537                 6.3632                 6.3785
 IR Inten    --     14.8161                32.6602                43.8665

                    100                    101                    102
                      A                      A                      A
 Frequencies --   3139.8028              3158.0266              3204.8567
 Red. masses --      1.1031                 1.0892                 1.0866
 Frc consts  --      6.4071                 6.4000                 6.5757
 IR Inten    --     32.2331                28.2976                 6.7368

                    103                    104                    105
                      A                      A                      A
 Frequencies --   3220.8046              3463.4420              3552.5491
 Red. masses --      1.0934                 1.0495                 1.0930
 Frc consts  --      6.6826                 7.4170                 8.1271
 IR Inten    --     13.0491                 5.2069                 2.0111

 - Thermochemistry -
 -------------------
 Temperature   298.150 Kelvin.  Pressure   1.00000 Atm.
 Atom     1 has atomic number  6 and mass  12.00000

 Molecular mass:   206.17830 amu.
 Principal axes and moments of inertia in atomic units:
                           1         2         3
     Eigenvalues --  1748.639555440.795165973.38751
           X            0.99998  -0.00605   0.00219
           Y            0.00606   0.99997  -0.00477
           Z           -0.00217   0.00479   0.99999
 This molecule is an asymmetric top.
 Rotational symmetry number  1.
 Warning -- assumption of classical behavior for rotation
           may cause significant error
 Rotational temperatures (Kelvin)      0.04953     0.01592     0.01450
 Rotational constants (GHZ):           1.03208     0.33171     0.30213
 Zero-point vibrational energy     876654.5 (Joules/Mol)
                                  209.52544 (Kcal/Mol)
 Warning -- explicit consideration of  27 degrees of freedom as
           vibrations may cause significant error
 Vibrational temperatures:     51.50    64.16    94.79   136.57   154.41
          (Kelvin)            185.02   257.00   269.74   307.02   332.20
                              342.82   352.99   386.23   390.59   393.95
                              451.94   482.39   497.05   552.63   591.29
                              607.77   674.77   739.18   762.16   816.33
                              843.39   887.23   980.77  1070.87  1084.87
                             1133.08  1205.60  1239.93  1258.65  1307.46
                             1319.91  1344.58  1359.79  1368.54  1387.16
                             1431.57  1459.81  1478.50  1542.11  1549.99
                             1555.19  1608.87  1645.03  1653.25  1690.72
                             1706.30  1730.74  1736.70  1779.11  1821.65
                             1881.95  1883.78  1914.08  1951.96  1970.83
                             1979.91  2032.21  2050.70  2058.30  2059.19
                             2066.82  2068.83  2082.15  2119.58  2171.20
                             2177.55  2186.04  2187.51  2195.00  2199.20
                             2207.17  2211.45  2217.17  2229.88  2238.73
                             2335.72  2405.75  2432.80  4254.43  4363.08
                             4366.53  4384.40  4392.62  4394.18  4416.62
                             4427.98  4450.64  4465.99  4472.84  4488.63
                             4491.19  4499.12  4504.58  4509.71  4517.48
                             4543.70  4611.07  4634.02  4983.12  5111.33

 Zero-point correction=                           0.333900 (Hartree/Particle)
 Thermal correction to Energy=                    0.350588
 Thermal correction to Enthalpy=                  0.351532
 Thermal correction to Gibbs Free Energy=         0.290129
 Sum of electronic and zero-point Energies=           -617.862183
 Sum of electronic and thermal Energies=              -617.845496
 Sum of electronic and thermal Enthalpies=            -617.844551
 Sum of electronic and thermal Free Energies=         -617.905954

                     E (Thermal)             CV                S
                      KCal/Mol        Cal/Mol-Kelvin    Cal/Mol-Kelvin
 Total                  219.997             63.607            129.233
 Electronic               0.000              0.000              0.000
 Translational            0.889              2.981             41.875
 Rotational               0.889              2.981             32.408
 Vibrational            218.220             57.646             54.950
 Vibration     1          0.594              1.982              5.479
 Vibration     2          0.595              1.980              5.044
 Vibration     3          0.597              1.971              4.273
 Vibration     4          0.603              1.953              3.556
 Vibration     5          0.606              1.943              3.317
 Vibration     6          0.611              1.925              2.967
 Vibration     7          0.629              1.869              2.343
 Vibration     8          0.632              1.857              2.253
 Vibration     9          0.644              1.821              2.014
 Vibration    10          0.653              1.794              1.872
 Vibration    11          0.656              1.782              1.816
 Vibration    12          0.660              1.770              1.764
 Vibration    13          0.673              1.731              1.606
 Vibration    14          0.675              1.726              1.587
 Vibration    15          0.676              1.722              1.572
 Vibration    16          0.702              1.647              1.341
 Vibration    17          0.716              1.605              1.235
 Vibration    18          0.724              1.584              1.187
 Vibration    19          0.753              1.504              1.023
 Vibration    20          0.775              1.446              0.923
 Vibration    21          0.785              1.421              0.884
 Vibration    22          0.826              1.319              0.740
 Vibration    23          0.869              1.220              0.625
 Vibration    24          0.885              1.184              0.588
 Vibration    25          0.923              1.102              0.509
 Vibration    26          0.943              1.061              0.474
 Vibration    27          0.976              0.997              0.422

                           ! Non-Optimized Parameters !
 Normal termination of Gaussian 16 at Thu Dec 10 17:08:48 2020.

 ----------------------------------------------------------------------
 # B3LYP/6-311++G(d,p) empiricaldispersion=gd3bj scf=xqc pop=npa geom=c
 heck
 ----------------------------------------------------------------------

 --------------------------------------
 CID_60930152_JID_5608_Energie_neutraal
 --------------------------------------
 Structure from the checkpoint file:  "JID_5608.chk"
 Charge =  0 Multiplicity = 1

 SCF Done:  E(RB3LYP) =  -618.368581117     A.U. after   15 cycles
 Normal termination of Gaussian 16 at Thu Dec 10 17:16:41 2020.

 ----------------------------------------------------------------------
 # B3LYP/6-311++G(d,p) empiricaldispersion=gd3bj scf=xqc pop=npa geom=c
 heck
 ----------------------------------------------------------------------

 ------------------------------------
 CID_60930152_JID_5608_Energie_kation
 ------------------------------------
 Structure from the checkpoint file:  "JID_5608.chk"
 Charge =  1 Multiplicity = 2

 SCF Done:  E(UB3LYP) =  -618.114511702     A.U. after   22 cycles
 Normal termination of Gaussian 16 at Thu Dec 10 17:32:02 2020.
 Gaussian 16:  ES64L-G16RevA.03 25-Dec-2016

 ----------------------------------------------------------------------
 # B3LYP/6-311++G(d,p) empiricaldispersion=gd3bj scf=xqc pop=npa geom=c
 heck
 ----------------------------------------------------------------------

 -----------------------------------
 CID_60930152_JID_5608_Energie_anion
 -----------------------------------
 Structure from the checkpoint file:  "JID_5608.chk"
 Charge = -1 Multiplicity = 2

                         Standard orientation:
 ---------------------------------------------------------------------
 Center     Atomic      Atomic             Coordinates (Angstroms)
 Number     Number       Type             X           Y           Z
 ---------------------------------------------------------------------
      1          6           0        1.983437    0.851705    2.208778
      2          6           0        2.343615    1.047928    0.731542
      3          7           0        1.632943    0.166309   -0.201194
      4          6           0        0.221401    0.114372   -0.093910
      5          6           0       -0.554476    1.259442   -0.390341
      6          6           0       -1.945750    1.179717   -0.271527
      7          6           0       -2.606612    0.010718    0.108012
      8          6           0       -1.833319   -1.125364    0.363719
      9          6           0       -0.447183   -1.067554    0.272216
     10          6           0       -4.112934   -0.021378    0.243909
     11          7           0       -4.665598   -1.288549   -0.250630
     12          6           0        0.074938    2.531153   -0.898538
     13          6           0        2.347237   -1.031166   -0.670921
     14          6           0        3.422878   -0.636300   -1.693165
     15          6           0        2.949106   -1.914121    0.436755
     16          1           0        0.914736    1.023521    2.371580
     17          1           0        2.541707    1.560261    2.832264
     18          1           0        2.215352   -0.161969    2.549409
     19          1           0        2.167416    2.094624    0.461614
     20          1           0        3.414924    0.882345    0.585413
     21          1           0       -2.535323    2.062052   -0.516538
     22          1           0       -2.328667   -2.050879    0.639462
     23          1           0        0.131298   -1.955246    0.503365
     24          1           0       -4.389958    0.053688    1.305270
     25          1           0       -4.529979    0.877000   -0.245502
     26          1           0       -5.677683   -1.290532   -0.135782
     27          1           0       -4.484509   -1.365938   -1.250534
     28          1           0        0.413196    3.187229   -0.085260
     29          1           0        0.948310    2.304485   -1.518718
     30          1           0       -0.641843    3.103568   -1.495990
     31          1           0        1.597196   -1.622779   -1.204994
     32          1           0        4.214399   -0.033667   -1.232685
     33          1           0        3.895504   -1.528493   -2.120151
     34          1           0        2.978458   -0.051116   -2.503624
     35          1           0        2.194308   -2.223023    1.165868
     36          1           0        3.392468   -2.816886    0.001187
     37          1           0        3.743246   -1.387474    0.977934
 ---------------------------------------------------------------------

 SCF Done:  E(UB3LYP) =  -618.353661941     A.U. after   32 cycles

 The electronic state is 2-A.
 Alpha  occ. eigenvalues --  -14.21395 -14.19535 -10.11194 -10.10598 -10.10201
 Alpha  occ. eigenvalues --  -10.09770 -10.08049 -10.07392 -10.06994 -10.06988
 Alpha  occ. eigenvalues --  -10.06977 -10.06759 -10.06697 -10.06488 -10.06431
 Alpha  occ. eigenvalues --   -0.84101  -0.78910  -0.74893  -0.69069  -0.67149
 Alpha  occ. eigenvalues --   -0.66384  -0.62891  -0.59601  -0.58710  -0.56237
 Alpha  occ. eigenvalues --   -0.53232  -0.50950  -0.47936  -0.45624  -0.42134
 Alpha  occ. eigenvalues --   -0.40088  -0.38768  -0.37465  -0.35776  -0.35463
 Alpha  occ. eigenvalues --   -0.34454  -0.33481  -0.32678  -0.32448  -0.31723
 Alpha  occ. eigenvalues --   -0.30874  -0.30465  -0.29987  -0.29230  -0.29027
 Alpha  occ. eigenvalues --   -0.28532  -0.27809  -0.26097  -0.25581  -0.24618
 Alpha  occ. eigenvalues --   -0.24400  -0.23822  -0.23371  -0.16592  -0.15021
 Alpha  occ. eigenvalues --   -0.14524  -0.10224   0.04220
 Alpha virt. eigenvalues --    0.05435   0.06660   0.07104   0.07858   0.08236
 Alpha virt. eigenvalues --    0.08449   0.08685   0.09145   0.09504   0.09642
 Alpha virt. eigenvalues --    0.10352   0.10672   0.11032   0.11404   0.12140

  Beta  occ. eigenvalues --  -14.21397 -14.19493 -10.11188 -10.10591 -10.10185
  Beta  occ. eigenvalues --  -10.09747 -10.08051 -10.07393 -10.06986 -10.06977
  Beta  occ. eigenvalues --  -10.06965 -10.06732 -10.06688 -10.06459 -10.06413
  Beta  occ. eigenvalues --   -0.84093  -0.78847  -0.74873  -0.69046  -0.67129
  Beta  occ. eigenvalues --   -0.66360  -0.62861  -0.59549  -0.58676  -0.56178
  Beta  occ. eigenvalues --   -0.53183  -0.50918  -0.47899  -0.45593  -0.42116
  Beta  occ. eigenvalues --   -0.40043  -0.38742  -0.37434  -0.35742  -0.35436
  Beta  occ. eigenvalues --   -0.34421  -0.33437  -0.32652  -0.32409  -0.31701
  Beta  occ. eigenvalues --   -0.30843  -0.30438  -0.29956  -0.29203  -0.29000
  Beta  occ. eigenvalues --   -0.28503  -0.27778  -0.26070  -0.25555  -0.24595
  Beta  occ. eigenvalues --   -0.24375  -0.23798  -0.23348  -0.16566  -0.14990
  Beta  occ. eigenvalues --   -0.14496  -0.10217
  Beta virt. eigenvalues --    0.06125   0.06637   0.07182   0.07406   0.08286
  Beta virt. eigenvalues --    0.08421   0.08792   0.08860   0.09411   0.09776
  Beta virt. eigenvalues --    0.09841   0.10707   0.11011   0.11279   0.11620

 Mulliken charges and spin densities:
               1          2
     1  C   -0.128364  -0.431649
     2  C    0.042418  -0.138204
     3  N    0.448136   0.018755
     4  C   -0.448583  -0.256039
     5  C    0.221129  -0.002085
     6  C   -0.226567  -0.258909
     7  C   -0.359254   0.773711
     8  C   -0.530431   0.362316
     9  C   -0.384772   0.226327
    10  C    1.473667  -1.941568
    11  N   -0.415027   0.083508
    12  C    0.492391  -1.101222
    13  C   -1.282345   1.444815
    14  C    0.587471  -1.207030
    15  C    0.656734  -1.171953
    16  H    0.140559   0.002354
    17  H   -0.268305   0.407304
    18  H    0.139691   0.004794
    19  H    0.084925   0.048993
    20  H    0.074378   0.060294
    21  H   -0.009910   0.146458
    22  H    0.147097   0.069866
    23  H   -0.047742   0.166668
    24  H   -0.021994   0.185522
    25  H   -0.548529   0.721691
    26  H   -0.202019   0.447141
    27  H    0.035778   0.162114
    28  H   -0.001736   0.165431
    29  H    0.045314   0.130477
    30  H   -0.047567   0.187494
    31  H    0.111587   0.040014
    32  H   -0.197595   0.328210
    33  H   -0.209359   0.347323
    34  H   -0.038694   0.196424
    35  H    0.020680   0.114936
    36  H   -0.190274   0.336034
    37  H   -0.162889   0.329683
 Sum of Mulliken charges =  -1.00000   1.00000

 Dipole moment (field-independent basis, Debye):
    X=              2.5659    Y=              0.9790    Z=              0.6187  Tot=              2.8152
 Quadrupole moment (field-independent basis, Debye-Ang):
   XX=           -204.2492   YY=           -134.9505   ZZ=           -128.9968
   XY=             -0.8370   XZ=             -1.1520   YZ=             -1.2656

 Summary of Natural Population Analysis:

                                       Natural Population
                Natural  -----------------------------------------------
    Atom  No    Charge         Core      Valence    Rydberg      Total
 -----------------------------------------------------------------------
      C    1   -0.29493      0.99966     2.29031    0.00497     3.29493
      C    2   -0.08462      0.99960     2.07426    0.01076     3.08462
      N    3   -0.28001      0.99966     2.76510    0.01525     3.78001
      C    4    0.09072      0.99943     1.89827    0.01158     2.90928
      C    5   -0.02720      0.99948     2.01792    0.00980     3.02720
      C    6   -0.09458      0.99947     2.08586    0.00925     3.09458
      C    7   -0.03011      0.99950     2.02000    0.01061     3.03011
      C    8   -0.09565      0.99951     2.08751    0.00863     3.09565
      C    9   -0.11426      0.99952     2.10730    0.00745     3.11426
      C   10   -0.09281      0.99960     2.08085    0.01236     3.09281
      N   11   -0.42099      0.99978     2.91065    0.01056     3.92099
      C   12   -0.29345      0.99963     2.28908    0.00473     3.29345
      C   13   -0.00403      0.99959     1.99279    0.01165     3.00403
      C   14   -0.28605      0.99964     2.28050    0.00591     3.28605
      C   15   -0.29547      0.99964     2.29031    0.00553     3.29547
      H   16    0.10193      0.00000     0.39703    0.00105     0.39807
      H   17    0.09806      0.00000     0.40098    0.00096     0.40194
      H   18    0.09761      0.00000     0.40140    0.00099     0.40239
      H   19    0.09257      0.00000     0.40591    0.00152     0.40743
      H   20    0.09597      0.00000     0.40267    0.00135     0.40403
      H   21    0.09698      0.00000     0.40178    0.00124     0.40302
      H   22    0.10851      0.00000     0.39020    0.00129     0.39149
      H   23    0.09989      0.00000     0.39872    0.00139     0.40011
      H   24    0.09351      0.00000     0.40524    0.00125     0.40649
      H   25    0.08248      0.00000     0.41526    0.00226     0.41752
      H   26    0.17716      0.00000     0.31941    0.00343     0.32284
      H   27    0.17306      0.00000     0.32493    0.00201     0.32694
      H   28    0.10126      0.00000     0.39741    0.00133     0.39874
      H   29    0.10786      0.00000     0.39074    0.00140     0.39214
      H   30    0.10139      0.00000     0.39770    0.00090     0.39861
      H   31    0.09813      0.00000     0.39988    0.00200     0.40187
      H   32    0.09638      0.00000     0.40234    0.00128     0.40362
      H   33    0.09880      0.00000     0.40028    0.00092     0.40120
      H   34    0.10257      0.00000     0.39623    0.00120     0.39743
      H   35    0.09933      0.00000     0.39955    0.00112     0.40067
      H   36    0.10138      0.00000     0.39767    0.00095     0.39862
      H   37    0.09863      0.00000     0.40032    0.00104     0.40137
 =======================================================================
   * Total *   -0.00000     14.99371    41.83635    0.16994    57.00000

 Normal termination of Gaussian 16 at Thu Dec 10 17:52:28 2020.
