 Gaussian 16, Revision A.03,

 -----------------------------------------------------------
 # opt freq B3LYP/6-31G(d) empiricaldispersion=gd3bj scf=xqc
 -----------------------------------------------------------

 ------------------------------
 CID_39236498_JID_2345_neutraal
 ------------------------------
 Symbolic Z-matrix:
 Charge =  0 Multiplicity = 1

 SCF Done:  E(RB3LYP) =  -575.625533484     A.U. after   14 cycles
 SCF Done:  E(RB3LYP) =  -575.628592520     A.U. after   12 cycles
 SCF Done:  E(RB3LYP) =  -575.628193136     A.U. after   12 cycles
 SCF Done:  E(RB3LYP) =  -575.628698105     A.U. after   12 cycles
 SCF Done:  E(RB3LYP) =  -575.630574268     A.U. after   12 cycles
 SCF Done:  E(RB3LYP) =  -575.630815804     A.U. after   12 cycles
 SCF Done:  E(RB3LYP) =  -575.630948728     A.U. after   10 cycles
 SCF Done:  E(RB3LYP) =  -575.630997923     A.U. after    9 cycles
 SCF Done:  E(RB3LYP) =  -575.631016283     A.U. after   11 cycles
 SCF Done:  E(RB3LYP) =  -575.631042295     A.U. after   10 cycles
 SCF Done:  E(RB3LYP) =  -575.636462165     A.U. after   11 cycles
 SCF Done:  E(RB3LYP) =  -575.636487944     A.U. after   10 cycles
 SCF Done:  E(RB3LYP) =  -575.636502330     A.U. after   10 cycles
 SCF Done:  E(RB3LYP) =  -575.636506836     A.U. after    8 cycles
 SCF Done:  E(RB3LYP) =  -575.636508387     A.U. after    8 cycles
 SCF Done:  E(RB3LYP) =  -575.636508578     A.U. after    7 cycles
 Optimization completed.
    -- Stationary point found.
 Normal termination of Gaussian 16 at Wed Dec  9 17:36:29 2020.

 --------------------------------------------------------------------
 #N Geom=AllCheck Guess=TCheck SCRF=Check GenChk RB3LYP/6-31G(d) Freq
 --------------------------------------------------------------------

 Structure from the checkpoint file:  "JID_2345.chk"
 ------------------------------
 CID_39236498_JID_2345_neutraal
 ------------------------------
 Charge =  0 Multiplicity = 1

 SCF Done:  E(RB3LYP) =  -575.636508578     A.U. after    1 cycles

  Exact polarizability: 114.779  -0.286 103.347   1.766   6.541  93.709
 Approx polarizability: 139.932  -0.732 153.457   4.811  16.333 142.480

                      1                      2                      3
                      A                      A                      A
 Frequencies --     54.1111                58.3724                81.7891
 Red. masses --      3.0150                 3.2998                 3.0172
 Frc consts  --      0.0052                 0.0066                 0.0119
 IR Inten    --      0.2235                 0.3110                 0.1561

                      4                      5                      6
                      A                      A                      A
 Frequencies --     94.5742               127.8577               140.3154
 Red. masses --      5.4845                 2.5458                 3.4148
 Frc consts  --      0.0289                 0.0245                 0.0396
 IR Inten    --      3.3451                 0.8748                 4.4319

                      7                      8                      9
                      A                      A                      A
 Frequencies --    185.1768               189.0054               208.9392
 Red. masses --      2.7560                 3.3722                 1.7962
 Frc consts  --      0.0557                 0.0710                 0.0462
 IR Inten    --      2.4332                 1.3548                 2.2776

                     10                     11                     12
                      A                      A                      A
 Frequencies --    248.5019               259.9703               287.4493
 Red. masses --      1.3491                 2.9155                 1.5022
 Frc consts  --      0.0491                 0.1161                 0.0731
 IR Inten    --      0.8502                 0.9165                 0.5868

                     13                     14                     15
                      A                      A                      A
 Frequencies --    295.0862               323.2009               366.1325
 Red. masses --      3.4147                 1.9261                 2.2638
 Frc consts  --      0.1752                 0.1185                 0.1788
 IR Inten    --      8.7820                 5.0433                17.5786

                     16                     17                     18
                      A                      A                      A
 Frequencies --    375.9824               453.0780               492.7766
 Red. masses --      1.2747                 3.2100                 2.6536
 Frc consts  --      0.1062                 0.3882                 0.3797
 IR Inten    --     96.1925                17.4885                 2.3386

                     19                     20                     21
                      A                      A                      A
 Frequencies --    514.2980               569.3322               591.4700
 Red. masses --      3.2866                 2.4718                 3.2857
 Frc consts  --      0.5122                 0.4721                 0.6772
 IR Inten    --      9.1218                 3.0660                35.2129

                     22                     23                     24
                      A                      A                      A
 Frequencies --    679.9343               761.7095               796.3329
 Red. masses --      3.5363                 1.4784                 1.3870
 Frc consts  --      0.9632                 0.5054                 0.5182
 IR Inten    --      2.7871                 5.1195                 2.2053

                     25                     26                     27
                      A                      A                      A
 Frequencies --    839.2665               846.3414               860.5868
 Red. masses --      1.8593                 1.9779                 2.7729
 Frc consts  --      0.7716                 0.8347                 1.2100
 IR Inten    --     72.2076                11.0690                39.7726

                     28                     29                     30
                      A                      A                      A
 Frequencies --    895.7886               908.8897               937.2733
 Red. masses --      1.8508                 2.8298                 2.0913
 Frc consts  --      0.8750                 1.3773                 1.0824
 IR Inten    --      3.6470                 8.5933                 5.6475

                     31                     32                     33
                      A                      A                      A
 Frequencies --    955.7627              1025.1024              1043.2394
 Red. masses --      1.9296                 2.0888                 1.3649
 Frc consts  --      1.0385                 1.2932                 0.8752
 IR Inten    --      0.7757                 0.5899                 0.8588

                     34                     35                     36
                      A                      A                      A
 Frequencies --   1064.3066              1068.5280              1079.7244
 Red. masses --      3.0662                 2.0536                 2.0210
 Frc consts  --      2.0464                 1.3814                 1.3882
 IR Inten    --     40.1780                 6.6404                34.4500

                     37                     38                     39
                      A                      A                      A
 Frequencies --   1127.2494              1157.4244              1182.0361
 Red. masses --      1.9203                 2.0569                 2.6434
 Frc consts  --      1.4377                 1.6235                 2.1761
 IR Inten    --      3.4735                 4.0322                27.0065

                     40                     41                     42
                      A                      A                      A
 Frequencies --   1199.9187              1263.6766              1279.7848
 Red. masses --      2.0577                 1.3706                 1.3797
 Frc consts  --      1.7456                 1.2895                 1.3314
 IR Inten    --      9.9329                36.1510                35.1683

                     43                     44                     45
                      A                      A                      A
 Frequencies --   1292.9260              1309.9037              1316.3664
 Red. masses --      1.4233                 1.1827                 1.1989
 Frc consts  --      1.4018                 1.1957                 1.2240
 IR Inten    --     11.5583                 0.8735                 3.5299

                     46                     47                     48
                      A                      A                      A
 Frequencies --   1338.0215              1352.2303              1364.9468
 Red. masses --      1.2750                 1.2571                 1.1217
 Frc consts  --      1.3449                 1.3543                 1.2313
 IR Inten    --     12.4261                 5.4402                 8.0365

                     49                     50                     51
                      A                      A                      A
 Frequencies --   1382.4146              1395.1311              1403.2767
 Red. masses --      1.6866                 1.3577                 1.4800
 Frc consts  --      1.8991                 1.5570                 1.7171
 IR Inten    --     83.6570                 7.1948                50.0245

                     52                     53                     54
                      A                      A                      A
 Frequencies --   1416.7467              1423.2852              1441.4112
 Red. masses --      1.4655                 1.4674                 1.2319
 Frc consts  --      1.7331                 1.7514                 1.5080
 IR Inten    --      1.2636                31.8772                 3.2912

                     55                     56                     57
                      A                      A                      A
 Frequencies --   1452.4166              1494.5634              1511.4428
 Red. masses --      1.2446                 1.1660                 1.2228
 Frc consts  --      1.5469                 1.5346                 1.6458
 IR Inten    --      4.9572                 8.0932                 3.1169

                     58                     59                     60
                      A                      A                      A
 Frequencies --   1520.7425              1521.9905              1528.2097
 Red. masses --      1.1220                 1.0867                 1.0821
 Frc consts  --      1.5288                 1.4831                 1.4890
 IR Inten    --     11.2473                 5.3169                 1.1689

                     61                     62                     63
                      A                      A                      A
 Frequencies --   1534.5824              1535.3601              1545.3798
 Red. masses --      1.0611                 1.0477                 1.0604
 Frc consts  --      1.4722                 1.4551                 1.4921
 IR Inten    --      9.5216                 0.1898                 5.6644

                     64                     65                     66
                      A                      A                      A
 Frequencies --   1552.5741              1706.4907              1747.1575
 Red. masses --      1.0536                 1.2043                 3.8020
 Frc consts  --      1.4964                 2.0663                 6.8380
 IR Inten    --      7.6311               110.2360               164.5602

                     67                     68                     69
                      A                      A                      A
 Frequencies --   3028.7000              3043.7634              3046.1181
 Red. masses --      1.0810                 1.0660                 1.0404
 Frc consts  --      5.8426                 5.8190                 5.6879
 IR Inten    --      7.5912                13.2305                14.8063

                     70                     71                     72
                      A                      A                      A
 Frequencies --   3047.4687              3055.9469              3058.7094
 Red. masses --      1.0375                 1.0628                 1.0614
 Frc consts  --      5.6768                 5.8478                 5.8507
 IR Inten    --     15.0680                63.6528                87.9512

                     73                     74                     75
                      A                      A                      A
 Frequencies --   3059.4315              3088.7843              3095.0744
 Red. masses --      1.0620                 1.1013                 1.1002
 Frc consts  --      5.8566                 6.1908                 6.2098
 IR Inten    --     12.4101                10.1568                 9.6644

                     76                     77                     78
                      A                      A                      A
 Frequencies --   3102.9301              3110.4567              3116.7469
 Red. masses --      1.1088                 1.0998                 1.1020
 Frc consts  --      6.2898                 6.2694                 6.3069
 IR Inten    --     18.3047                49.2235                47.2727

                     79                     80                     81
                      A                      A                      A
 Frequencies --   3120.0645              3130.9923              3189.7421
 Red. masses --      1.1026                 1.1027                 1.0896
 Frc consts  --      6.3240                 6.3690                 6.5320
 IR Inten    --     34.1655                17.1902                10.7744

                     82                     83                     84
                      A                      A                      A
 Frequencies --   3387.5437              3508.7746              3523.6582
 Red. masses --      1.0536                 1.0919                 1.0739
 Frc consts  --      7.1236                 7.9202                 7.8563
 IR Inten    --     36.0414                 5.8386                19.4003

 - Thermochemistry -
 -------------------
 Temperature   298.150 Kelvin.  Pressure   1.00000 Atm.
 Atom     1 has atomic number  6 and mass  12.00000

 Molecular mass:   174.13683 amu.
 Principal axes and moments of inertia in atomic units:
                           1         2         3
     Eigenvalues --  1345.553543123.757373185.93629
           X            0.99997   0.00123   0.00719
           Y           -0.00004   0.98653  -0.16357
           Z           -0.00729   0.16357   0.98651
 This molecule is an asymmetric top.
 Rotational symmetry number  1.
 Warning -- assumption of classical behavior for rotation
           may cause significant error
 Rotational temperatures (Kelvin)      0.06437     0.02773     0.02719
 Rotational constants (GHZ):           1.34126     0.57775     0.56647
 Zero-point vibrational energy     709940.4 (Joules/Mol)
                                  169.67984 (Kcal/Mol)
 Warning -- explicit consideration of  21 degrees of freedom as
           vibrations may cause significant error
 Vibrational temperatures:     77.85    83.98   117.68   136.07   183.96
          (Kelvin)            201.88   266.43   271.94   300.62   357.54
                              374.04   413.58   424.56   465.01   526.78
                              540.95   651.88   709.00   739.96   819.14
                              850.99   978.27  1095.93  1145.75  1207.52
                             1217.70  1238.19  1288.84  1307.69  1348.53
                             1375.13  1474.89  1500.99  1531.30  1537.37
                             1553.48  1621.86  1665.28  1700.69  1726.42
                             1818.15  1841.32  1860.23  1884.66  1893.96
                             1925.11  1945.56  1963.85  1988.99  2007.28
                             2019.00  2038.38  2047.79  2073.87  2089.70
                             2150.34  2174.63  2188.01  2189.80  2198.75
                             2207.92  2209.04  2223.46  2233.81  2455.26
                             2513.77  4357.62  4379.30  4382.68  4384.63
                             4396.83  4400.80  4401.84  4444.07  4453.12
                             4464.42  4475.25  4484.30  4489.08  4504.80
                             4589.33  4873.92  5048.34  5069.76

 Zero-point correction=                           0.270402 (Hartree/Particle)
 Thermal correction to Energy=                    0.284473
 Thermal correction to Enthalpy=                  0.285417
 Thermal correction to Gibbs Free Energy=         0.229871
 Sum of electronic and zero-point Energies=           -575.366107
 Sum of electronic and thermal Energies=              -575.352036
 Sum of electronic and thermal Enthalpies=            -575.351091
 Sum of electronic and thermal Free Energies=         -575.406637

                     E (Thermal)             CV                S
                      KCal/Mol        Cal/Mol-Kelvin    Cal/Mol-Kelvin
 Total                  178.510             51.645            116.906
 Electronic               0.000              0.000              0.000
 Translational            0.889              2.981             41.371
 Rotational               0.889              2.981             30.972
 Vibrational            176.732             45.683             44.563
 Vibration     1          0.596              1.976              4.661
 Vibration     2          0.596              1.974              4.511
 Vibration     3          0.600              1.962              3.847
 Vibration     4          0.603              1.953              3.563
 Vibration     5          0.611              1.925              2.978
 Vibration     6          0.615              1.913              2.800
 Vibration     7          0.631              1.860              2.276
 Vibration     8          0.633              1.855              2.238
 Vibration     9          0.642              1.827              2.053
 Vibration    10          0.662              1.765              1.741
 Vibration    11          0.668              1.746              1.662
 Vibration    12          0.685              1.697              1.489
 Vibration    13          0.689              1.683              1.445
 Vibration    14          0.708              1.629              1.294
 Vibration    15          0.739              1.542              1.096
 Vibration    16          0.747              1.521              1.055
 Vibration    17          0.812              1.354              0.787
 Vibration    18          0.848              1.266              0.676
 Vibration    19          0.869              1.218              0.623
 Vibration    20          0.925              1.098              0.506
 Vibration    21          0.949              1.050              0.465

                           ! Non-Optimized Parameters !
 Normal termination of Gaussian 16 at Wed Dec  9 17:44:12 2020.

 ----------------------------------------------------------------------
 # B3LYP/6-311++G(d,p) empiricaldispersion=gd3bj scf=xqc pop=npa geom=c
 heck
 ----------------------------------------------------------------------

 --------------------------------------
 CID_39236498_JID_2345_Energie_neutraal
 --------------------------------------
 Structure from the checkpoint file:  "JID_2345.chk"
 Charge =  0 Multiplicity = 1

 SCF Done:  E(RB3LYP) =  -575.814457959     A.U. after   14 cycles
 Normal termination of Gaussian 16 at Wed Dec  9 17:47:10 2020.

 ----------------------------------------------------------------------
 # B3LYP/6-311++G(d,p) empiricaldispersion=gd3bj scf=xqc pop=npa geom=c
 heck
 ----------------------------------------------------------------------

 ------------------------------------
 CID_39236498_JID_2345_Energie_kation
 ------------------------------------
 Structure from the checkpoint file:  "JID_2345.chk"
 Charge =  1 Multiplicity = 2

 SCF Done:  E(UB3LYP) =  -575.487689068     A.U. after   31 cycles
 Normal termination of Gaussian 16 at Wed Dec  9 17:55:30 2020.
 Gaussian 16:  ES64L-G16RevA.03 25-Dec-2016

 ----------------------------------------------------------------------
 # B3LYP/6-311++G(d,p) empiricaldispersion=gd3bj scf=xqc pop=npa geom=c
 heck
 ----------------------------------------------------------------------

 -----------------------------------
 CID_39236498_JID_2345_Energie_anion
 -----------------------------------
 Structure from the checkpoint file:  "JID_2345.chk"
 Charge = -1 Multiplicity = 2

                         Standard orientation:
 ---------------------------------------------------------------------
 Center     Atomic      Atomic             Coordinates (Angstroms)
 Number     Number       Type             X           Y           Z
 ---------------------------------------------------------------------
      1          6           0        3.701890    0.806210    0.062312
      2          6           0        2.174503    0.930615    0.063640
      3          6           0        1.487792   -0.326886   -0.501933
      4          6           0        1.495060   -1.548274    0.448658
      5          6           0        0.694264   -1.381433    1.742926
      6          6           0        0.100351   -0.157921   -1.136581
      7          8           0       -0.306407   -1.027596   -1.908569
      8          7           0       -0.638142    0.994479   -0.948983
      9          6           0       -0.923261    1.574200    0.363173
     10          6           0       -2.308052    1.139277    0.868961
     11          8           0       -2.482627   -0.270292    0.829759
     12          7           0       -2.999493   -0.655176   -0.469108
     13          1           0        4.040068   -0.030065    0.684150
     14          1           0        4.169823    1.717113    0.451274
     15          1           0        4.082137    0.640783   -0.952778
     16          1           0        1.843399    1.136278    1.087301
     17          1           0        1.880993    1.799904   -0.536323
     18          1           0        2.077611   -0.635041   -1.376500
     19          1           0        1.100506   -2.398978   -0.116974
     20          1           0        2.537230   -1.790022    0.689697
     21          1           0       -0.365564   -1.193836    1.541693
     22          1           0        0.761897   -2.290896    2.350279
     23          1           0        1.076008   -0.556704    2.356896
     24          1           0       -1.467078    0.952665   -1.537682
     25          1           0       -0.164130    1.241653    1.067750
     26          1           0       -0.879958    2.670533    0.318869
     27          1           0       -2.418359    1.432456    1.919947
     28          1           0       -3.103859    1.613718    0.283125
     29          1           0       -2.228484   -1.162230   -0.918099
     30          1           0       -3.701805   -1.354084   -0.222442
 ---------------------------------------------------------------------

 SCF Done:  E(UB3LYP) =  -575.799593943     A.U. after   31 cycles

 The electronic state is 2-A.
 Alpha  occ. eigenvalues --  -19.05915 -18.99691 -14.25495 -14.23410 -10.17693
 Alpha  occ. eigenvalues --  -10.12103 -10.10741 -10.08328 -10.06993 -10.06618
 Alpha  occ. eigenvalues --  -10.05800 -10.05397  -0.97300  -0.94516  -0.82343
 Alpha  occ. eigenvalues --   -0.73554  -0.71517  -0.65030  -0.63448  -0.59643
 Alpha  occ. eigenvalues --   -0.52882  -0.52455  -0.50034  -0.45703  -0.42567
 Alpha  occ. eigenvalues --   -0.40893  -0.39631  -0.38041  -0.37336  -0.35457
 Alpha  occ. eigenvalues --   -0.34624  -0.33010  -0.32224  -0.31702  -0.31211
 Alpha  occ. eigenvalues --   -0.30057  -0.28656  -0.27127  -0.26928  -0.25387
 Alpha  occ. eigenvalues --   -0.25113  -0.23882  -0.22167  -0.22016  -0.19941
 Alpha  occ. eigenvalues --   -0.17054  -0.16608  -0.15384   0.04601
 Alpha virt. eigenvalues --    0.06629   0.07204   0.07883   0.08410   0.09361
 Alpha virt. eigenvalues --    0.09812   0.09936   0.10603   0.10995   0.11508
 Alpha virt. eigenvalues --    0.12126   0.12357   0.12990   0.13807   0.14048

  Beta  occ. eigenvalues --  -19.05907 -18.99682 -14.25482 -14.23404 -10.17689
  Beta  occ. eigenvalues --  -10.12074 -10.10711 -10.08323 -10.06982 -10.06597
  Beta  occ. eigenvalues --  -10.05760 -10.05371  -0.97284  -0.94501  -0.82322
  Beta  occ. eigenvalues --   -0.73524  -0.71490  -0.64990  -0.63401  -0.59596
  Beta  occ. eigenvalues --   -0.52808  -0.52396  -0.49968  -0.45668  -0.42536
  Beta  occ. eigenvalues --   -0.40866  -0.39596  -0.38013  -0.37308  -0.35406
  Beta  occ. eigenvalues --   -0.34584  -0.32974  -0.32184  -0.31672  -0.31170
  Beta  occ. eigenvalues --   -0.30022  -0.28619  -0.27079  -0.26886  -0.25352
  Beta  occ. eigenvalues --   -0.25076  -0.23856  -0.22133  -0.21988  -0.19921
  Beta  occ. eigenvalues --   -0.17019  -0.16580  -0.15355
  Beta virt. eigenvalues --    0.06842   0.07274   0.08116   0.08420   0.08860
  Beta virt. eigenvalues --    0.09964   0.10116   0.10400   0.10948   0.11417
  Beta virt. eigenvalues --    0.12041   0.12493   0.12813   0.13157   0.14068

 Mulliken charges and spin densities:
               1          2
     1  C    1.461639  -2.175748
     2  C   -1.338762   0.977584
     3  C    0.926783  -0.230634
     4  C   -0.509595   0.139337
     5  C    0.298509  -0.955240
     6  C   -0.433342  -0.065502
     7  O   -0.300032   0.011016
     8  N   -0.089848   0.043384
     9  C   -0.350370   0.398282
    10  C    1.129643  -1.670920
    11  O   -0.072729   0.041532
    12  N   -0.474790  -0.053080
    13  H   -0.091130   0.225958
    14  H   -0.506027   0.655579
    15  H   -0.197385   0.325108
    16  H   -0.349918   0.482768
    17  H    0.099460   0.081245
    18  H    0.105214   0.112894
    19  H    0.137638   0.025283
    20  H   -0.045981   0.198484
    21  H    0.128674   0.081675
    22  H   -0.072806   0.205994
    23  H   -0.215488   0.372172
    24  H    0.229222   0.054025
    25  H    0.854935  -0.720881
    26  H   -1.136606   1.336364
    27  H   -0.604310   0.805368
    28  H    0.012725   0.161934
    29  H    0.285128  -0.009489
    30  H    0.119549   0.145506
 Sum of Mulliken charges =  -1.00000   1.00000

 Dipole moment (field-independent basis, Debye):
    X=             -2.4136    Y=             -4.9091    Z=             -2.8742  Tot=              6.1794
 Quadrupole moment (field-independent basis, Debye-Ang):
   XX=           -135.7164   YY=           -123.3531   ZZ=           -117.3396
   XY=             -0.3410   XZ=             -0.2818   YZ=             -6.4838

 Summary of Natural Population Analysis:

                                       Natural Population
                Natural  -----------------------------------------------
    Atom  No    Charge         Core      Valence    Rydberg      Total
 -----------------------------------------------------------------------
      C    1   -0.28231      0.99966     2.27720    0.00544     3.28231
      C    2   -0.19658      0.99962     2.18747    0.00949     3.19658
      C    3   -0.15073      0.99953     2.13964    0.01156     3.15073
      C    4   -0.18625      0.99962     2.17793    0.00871     3.18625
      C    5   -0.29616      0.99966     2.29112    0.00538     3.29616
      C    6    0.35921      0.99963     1.61781    0.02335     2.64079
      O    7   -0.33696      0.99988     3.33137    0.00572     4.33696
      N    8   -0.32450      0.99967     2.81374    0.01110     3.82450
      C    9   -0.10520      0.99960     2.09316    0.01244     3.10520
      C   10   -0.01331      0.99959     1.99957    0.01415     3.01331
      O   11   -0.23683      0.99990     3.22663    0.01030     4.23683
      N   12   -0.26680      0.99976     2.75615    0.01089     3.76680
      H   13    0.09617      0.00000     0.40255    0.00129     0.40383
      H   14    0.10299      0.00000     0.39564    0.00136     0.39701
      H   15    0.09416      0.00000     0.40481    0.00103     0.40584
      H   16    0.09757      0.00000     0.40043    0.00199     0.40243
      H   17    0.10306      0.00000     0.39527    0.00167     0.39694
      H   18    0.11226      0.00000     0.38602    0.00171     0.38774
      H   19    0.10197      0.00000     0.39690    0.00113     0.39803
      H   20    0.09655      0.00000     0.40240    0.00104     0.40345
      H   21    0.10596      0.00000     0.39212    0.00192     0.39404
      H   22    0.09852      0.00000     0.40067    0.00080     0.40148
      H   23    0.09693      0.00000     0.40166    0.00141     0.40307
      H   24    0.19237      0.00000     0.30476    0.00287     0.30763
      H   25    0.10352      0.00000     0.39361    0.00287     0.39648
      H   26    0.10018      0.00000     0.39693    0.00289     0.39982
      H   27    0.09643      0.00000     0.40134    0.00222     0.40357
      H   28    0.08750      0.00000     0.41048    0.00202     0.41250
      H   29    0.18203      0.00000     0.31597    0.00200     0.31797
      H   30    0.16823      0.00000     0.33013    0.00164     0.33177
 =======================================================================
   * Total *    0.00000     11.99610    35.84348    0.16042    48.00000

 Normal termination of Gaussian 16 at Wed Dec  9 18:03:37 2020.
