 Gaussian 16, Revision A.03,

 -----------------------------------------------------------
 # opt freq B3LYP/6-31G(d) empiricaldispersion=gd3bj scf=xqc
 -----------------------------------------------------------

 ------------------------------
 CID_59312649_JID_1595_neutraal
 ------------------------------
 Symbolic Z-matrix:
 Charge =  0 Multiplicity = 1

 SCF Done:  E(RB3LYP) =  -449.715229232     A.U. after   12 cycles
 SCF Done:  E(RB3LYP) =  -449.717824556     A.U. after   10 cycles
 SCF Done:  E(RB3LYP) =  -449.718043702     A.U. after   10 cycles
 SCF Done:  E(RB3LYP) =  -449.718222030     A.U. after   10 cycles
 SCF Done:  E(RB3LYP) =  -449.718345631     A.U. after    9 cycles
 SCF Done:  E(RB3LYP) =  -449.718320160     A.U. after    9 cycles
 SCF Done:  E(RB3LYP) =  -449.718374760     A.U. after    9 cycles
 SCF Done:  E(RB3LYP) =  -449.718399978     A.U. after    9 cycles
 SCF Done:  E(RB3LYP) =  -449.718401756     A.U. after    7 cycles
 SCF Done:  E(RB3LYP) =  -449.718402265     A.U. after    7 cycles
 SCF Done:  E(RB3LYP) =  -449.718402464     A.U. after    6 cycles
 SCF Done:  E(RB3LYP) =  -449.718402580     A.U. after    6 cycles
 SCF Done:  E(RB3LYP) =  -449.718402631     A.U. after    5 cycles
 Optimization completed.
    -- Stationary point found.
 Normal termination of Gaussian 16 at Tue Dec  8 20:37:26 2020.

 --------------------------------------------------------------------
 #N Geom=AllCheck Guess=TCheck SCRF=Check GenChk RB3LYP/6-31G(d) Freq
 --------------------------------------------------------------------

 Structure from the checkpoint file:  "JID_1595.chk"
 ------------------------------
 CID_59312649_JID_1595_neutraal
 ------------------------------
 Charge =  0 Multiplicity = 1

 SCF Done:  E(RB3LYP) =  -449.718402631     A.U. after    1 cycles

  Exact polarizability: 125.713   0.332 112.236  -0.573  -0.420 100.863
 Approx polarizability: 153.746   0.410 154.979  -1.091  -1.035 152.974

                      1                      2                      3
                      A                      A                      A
 Frequencies --     52.2833                58.4148                98.6756
 Red. masses --      2.3768                 2.6071                 1.9619
 Frc consts  --      0.0038                 0.0052                 0.0113
 IR Inten    --      0.1021                 0.2208                 0.3623

                      4                      5                      6
                      A                      A                      A
 Frequencies --    120.5628               156.2528               198.5434
 Red. masses --      2.1091                 1.9906                 1.6465
 Frc consts  --      0.0181                 0.0286                 0.0382
 IR Inten    --      0.4141                 0.0622                 1.3622

                      7                      8                      9
                      A                      A                      A
 Frequencies --    224.9849               239.9374               250.4004
 Red. masses --      1.0818                 1.3952                 1.2331
 Frc consts  --      0.0323                 0.0473                 0.0456
 IR Inten    --      0.1840                 0.0709                 0.2317

                     10                     11                     12
                      A                      A                      A
 Frequencies --    263.4358               283.2151               286.8912
 Red. masses --      1.5350                 1.6644                 2.0316
 Frc consts  --      0.0628                 0.0787                 0.0985
 IR Inten    --      0.1221                 1.6611                 1.5056

                     13                     14                     15
                      A                      A                      A
 Frequencies --    294.7958               307.7105               332.0688
 Red. masses --      1.4656                 1.6179                 2.2324
 Frc consts  --      0.0750                 0.0903                 0.1450
 IR Inten    --      0.2898                 0.4217                 0.6588

                     16                     17                     18
                      A                      A                      A
 Frequencies --    354.2308               385.8393               387.0811
 Red. masses --      1.9610                 2.4581                 2.0594
 Frc consts  --      0.1450                 0.2156                 0.1818
 IR Inten    --      0.2138                 5.3800                 0.2580

                     19                     20                     21
                      A                      A                      A
 Frequencies --    415.0616               447.0663               469.6448
 Red. masses --      2.1711                 1.9629                 2.0900
 Frc consts  --      0.2204                 0.2312                 0.2716
 IR Inten    --      1.1333                 1.0331                 1.3522

                     22                     23                     24
                      A                      A                      A
 Frequencies --    502.6850               622.2473               656.9523
 Red. masses --      2.3468                 2.3883                 2.0443
 Frc consts  --      0.3494                 0.5448                 0.5198
 IR Inten    --     18.2106                 0.6034                57.8786

                     25                     26                     27
                      A                      A                      A
 Frequencies --    741.1748               806.7343               867.3273
 Red. masses --      2.1259                 2.6364                 2.1962
 Frc consts  --      0.6881                 1.0109                 0.9734
 IR Inten    --     26.2798                 1.6746                 1.3628

                     28                     29                     30
                      A                      A                      A
 Frequencies --    896.3328               933.9978               937.5764
 Red. masses --      1.7364                 1.6272                 1.3901
 Frc consts  --      0.8219                 0.8364                 0.7200
 IR Inten    --      4.4380                 2.7088                 2.2386

                     31                     32                     33
                      A                      A                      A
 Frequencies --    942.8274               949.2132               976.2586
 Red. masses --      1.4848                 1.3207                 1.4845
 Frc consts  --      0.7776                 0.7011                 0.8336
 IR Inten    --      3.8769                 2.3844                 0.0693

                     34                     35                     36
                      A                      A                      A
 Frequencies --    979.0443               991.9402              1051.1250
 Red. masses --      1.5742                 1.6905                 1.5761
 Frc consts  --      0.8890                 0.9800                 1.0260
 IR Inten    --      0.0895                 1.5071                 2.5224

                     37                     38                     39
                      A                      A                      A
 Frequencies --   1086.2329              1109.2504              1121.6389
 Red. masses --      1.6296                 1.9561                 2.0880
 Frc consts  --      1.1329                 1.4181                 1.5477
 IR Inten    --     15.5242                 3.8342                 8.0831

                     40                     41                     42
                      A                      A                      A
 Frequencies --   1134.4967              1167.9866              1173.7442
 Red. masses --      1.7039                 1.9420                 1.6146
 Frc consts  --      1.2921                 1.5609                 1.3106
 IR Inten    --      1.8169                 3.0003                13.1662

                     43                     44                     45
                      A                      A                      A
 Frequencies --   1187.6579              1210.0429              1217.7041
 Red. masses --      1.9962                 1.7765                 1.9489
 Frc consts  --      1.6590                 1.5326                 1.7026
 IR Inten    --     15.7381                 7.2685                 0.6103

                     46                     47                     48
                      A                      A                      A
 Frequencies --   1240.4746              1265.2182              1318.2655
 Red. masses --      2.4504                 2.4242                 1.4471
 Frc consts  --      2.2216                 2.2864                 1.4817
 IR Inten    --     31.3887                 6.1198                 2.5728

                     49                     50                     51
                      A                      A                      A
 Frequencies --   1351.1885              1367.7143              1378.5329
 Red. masses --      1.2619                 1.3880                 1.4570
 Frc consts  --      1.3574                 1.5298                 1.6313
 IR Inten    --      0.8470                 1.3927                10.3824

                     52                     53                     54
                      A                      A                      A
 Frequencies --   1402.2872              1410.1379              1429.0136
 Red. masses --      1.3253                 1.4182                 1.2764
 Frc consts  --      1.5355                 1.6616                 1.5357
 IR Inten    --      1.0084                 4.1767                 5.9864

                     55                     56                     57
                      A                      A                      A
 Frequencies --   1429.8662              1437.5955              1449.4545
 Red. masses --      1.2633                 1.2301                 1.2279
 Frc consts  --      1.5218                 1.4978                 1.5199
 IR Inten    --      2.3114                14.3296                 6.7530

                     58                     59                     60
                      A                      A                      A
 Frequencies --   1451.9895              1486.8079              1500.1817
 Red. masses --      1.2310                 1.1516                 1.1202
 Frc consts  --      1.5291                 1.4999                 1.4854
 IR Inten    --      2.4684                 3.4575                 4.0557

                     61                     62                     63
                      A                      A                      A
 Frequencies --   1509.5395              1510.4791              1518.7295
 Red. masses --      1.0901                 1.0490                 1.1013
 Frc consts  --      1.4636                 1.4101                 1.4967
 IR Inten    --      4.4631                 2.0200                 0.9183

                     64                     65                     66
                      A                      A                      A
 Frequencies --   1519.9232              1522.9367              1529.2607
 Red. masses --      1.0662                 1.0571                 1.0541
 Frc consts  --      1.4512                 1.4446                 1.4524
 IR Inten    --      3.5859                 2.4863                 4.3847

                     67                     68                     69
                      A                      A                      A
 Frequencies --   1531.1230              1532.8172              1537.9048
 Red. masses --      1.0636                 1.0481                 1.0606
 Frc consts  --      1.4691                 1.4509                 1.4779
 IR Inten    --      5.1093                 4.9380                 3.1885

                     70                     71                     72
                      A                      A                      A
 Frequencies --   1544.0062              1547.4310              1555.9352
 Red. masses --      1.0503                 1.0537                 1.0547
 Frc consts  --      1.4752                 1.4865                 1.5045
 IR Inten    --      4.5356                13.8327                 3.5053

                     73                     74                     75
                      A                      A                      A
 Frequencies --   1562.8395              3001.7282              3008.7268
 Red. masses --      1.0597                 1.0532                 1.0810
 Frc consts  --      1.5250                 5.5913                 5.7655
 IR Inten    --      6.2695                84.0993                14.5878

                     76                     77                     78
                      A                      A                      A
 Frequencies --   3020.6736              3029.8618              3034.2012
 Red. masses --      1.0612                 1.0820                 1.0370
 Frc consts  --      5.7050                 5.8524                 5.6249
 IR Inten    --     30.3381                 6.9471                35.6006

                     79                     80                     81
                      A                      A                      A
 Frequencies --   3040.4618              3042.1057              3054.0215
 Red. masses --      1.0431                 1.0415                 1.0382
 Frc consts  --      5.6814                 5.6788                 5.7055
 IR Inten    --     19.8714                43.4900                31.5697

                     82                     83                     84
                      A                      A                      A
 Frequencies --   3063.2390              3068.8697              3080.1035
 Red. masses --      1.0965                 1.0422                 1.0798
 Frc consts  --      6.0620                 5.7830                 6.0354
 IR Inten    --     26.2178                22.0193                47.1358

                     85                     86                     87
                      A                      A                      A
 Frequencies --   3093.9848              3098.6503              3101.8342
 Red. masses --      1.1019                 1.0965                 1.1010
 Frc consts  --      6.2148                 6.2031                 6.2412
 IR Inten    --      8.8665                21.5125                78.3767

                     88                     89                     90
                      A                      A                      A
 Frequencies --   3107.3074              3112.2422              3115.2949
 Red. masses --      1.1021                 1.0999                 1.1027
 Frc consts  --      6.2695                 6.2770                 6.3050
 IR Inten    --     56.5959                46.8546                40.2257

                     91                     92                     93
                      A                      A                      A
 Frequencies --   3130.3574              3136.5532              3139.6674
 Red. masses --      1.1016                 1.0995                 1.0983
 Frc consts  --      6.3599                 6.3733                 6.3786
 IR Inten    --     27.6732                34.3316                30.4372

                     94                     95                     96
                      A                      A                      A
 Frequencies --   3147.8147              3159.0510              3531.1291
 Red. masses --      1.1001                 1.0956                 1.0738
 Frc consts  --      6.4222                 6.4420                 7.8888
 IR Inten    --     38.2633                20.7811                 0.6952

 - Thermochemistry -
 -------------------
 Temperature   298.150 Kelvin.  Pressure   1.00000 Atm.
 Atom     1 has atomic number  6 and mass  12.00000

 Molecular mass:   157.18305 amu.
 Principal axes and moments of inertia in atomic units:
                           1         2         3
     Eigenvalues --  1216.074382541.418413043.44756
           X            0.99999   0.00437   0.00119
           Y           -0.00439   0.99986   0.01610
           Z           -0.00112  -0.01610   0.99987
 This molecule is an asymmetric top.
 Rotational symmetry number  1.
 Warning -- assumption of classical behavior for rotation
           may cause significant error
 Rotational temperatures (Kelvin)      0.07122     0.03408     0.02846
 Rotational constants (GHZ):           1.48407     0.71013     0.59299
 Zero-point vibrational energy     843671.3 (Joules/Mol)
                                  201.64227 (Kcal/Mol)
 Warning -- explicit consideration of  22 degrees of freedom as
           vibrations may cause significant error
 Vibrational temperatures:     75.22    84.05   141.97   173.46   224.81
          (Kelvin)            285.66   323.70   345.22   360.27   379.03
                              407.48   412.77   424.15   442.73   477.77
                              509.66   555.14   556.92   597.18   643.23
                              675.71   723.25   895.28   945.21  1066.39
                             1160.71  1247.89  1289.62  1343.81  1348.96
                             1356.52  1365.71  1404.62  1408.63  1427.18
                             1512.33  1562.85  1595.96  1613.79  1632.29
                             1680.47  1688.76  1708.77  1740.98  1752.00
                             1784.77  1820.37  1896.69  1944.06  1967.84
                             1983.40  2017.58  2028.87  2056.03  2057.26
                             2068.38  2085.44  2089.09  2139.18  2158.43
                             2171.89  2173.24  2185.11  2186.83  2191.17
                             2200.27  2202.94  2205.38  2212.70  2221.48
                             2226.41  2238.64  2248.58  4318.82  4328.89
                             4346.08  4359.30  4365.54  4374.55  4376.91
                             4394.06  4407.32  4415.42  4431.58  4451.55
                             4458.27  4462.85  4470.72  4477.82  4482.21
                             4503.89  4512.80  4517.28  4529.00  4545.17
                             5080.51

 Zero-point correction=                           0.321337 (Hartree/Particle)
 Thermal correction to Energy=                    0.335813
 Thermal correction to Enthalpy=                  0.336757
 Thermal correction to Gibbs Free Energy=         0.281667
 Sum of electronic and zero-point Energies=           -449.397065
 Sum of electronic and thermal Energies=              -449.382589
 Sum of electronic and thermal Enthalpies=            -449.381645
 Sum of electronic and thermal Free Energies=         -449.436736

                     E (Thermal)             CV                S
                      KCal/Mol        Cal/Mol-Kelvin    Cal/Mol-Kelvin
 Total                  210.726             55.218            115.948
 Electronic               0.000              0.000              0.000
 Translational            0.889              2.981             41.066
 Rotational               0.889              2.981             30.621
 Vibrational            208.949             49.257             44.261
 Vibration     1          0.596              1.977              4.729
 Vibration     2          0.596              1.974              4.510
 Vibration     3          0.604              1.950              3.480
 Vibration     4          0.609              1.932              3.091
 Vibration     5          0.620              1.896              2.595
 Vibration     6          0.637              1.842              2.147
 Vibration     7          0.650              1.803              1.919
 Vibration     8          0.657              1.779              1.803
 Vibration     9          0.663              1.762              1.728
 Vibration    10          0.670              1.740              1.639
 Vibration    11          0.682              1.705              1.514
 Vibration    12          0.684              1.698              1.492
 Vibration    13          0.689              1.683              1.446
 Vibration    14          0.698              1.659              1.375
 Vibration    15          0.714              1.611              1.250
 Vibration    16          0.730              1.567              1.147
 Vibration    17          0.755              1.500              1.016
 Vibration    18          0.756              1.498              1.011
 Vibration    19          0.778              1.438              0.909
 Vibration    20          0.806              1.367              0.805
 Vibration    21          0.827              1.317              0.739
 Vibration    22          0.858              1.244              0.651

                           ! Non-Optimized Parameters !
 Normal termination of Gaussian 16 at Tue Dec  8 20:47:04 2020.

 ----------------------------------------------------------------------
 # B3LYP/6-311++G(d,p) empiricaldispersion=gd3bj scf=xqc pop=npa geom=c
 heck
 ----------------------------------------------------------------------

 --------------------------------------
 CID_59312649_JID_1595_Energie_neutraal
 --------------------------------------
 Structure from the checkpoint file:  "JID_1595.chk"
 Charge =  0 Multiplicity = 1

 SCF Done:  E(RB3LYP) =  -449.848704212     A.U. after   13 cycles
 Normal termination of Gaussian 16 at Tue Dec  8 20:52:17 2020.

 ----------------------------------------------------------------------
 # B3LYP/6-311++G(d,p) empiricaldispersion=gd3bj scf=xqc pop=npa geom=c
 heck
 ----------------------------------------------------------------------

 ------------------------------------
 CID_59312649_JID_1595_Energie_kation
 ------------------------------------
 Structure from the checkpoint file:  "JID_1595.chk"
 Charge =  1 Multiplicity = 2

 SCF Done:  E(UB3LYP) =  -449.562127155     A.U. after   17 cycles
 Normal termination of Gaussian 16 at Tue Dec  8 21:01:44 2020.
 Gaussian 16:  ES64L-G16RevA.03 25-Dec-2016

 ----------------------------------------------------------------------
 # B3LYP/6-311++G(d,p) empiricaldispersion=gd3bj scf=xqc pop=npa geom=c
 heck
 ----------------------------------------------------------------------

 -----------------------------------
 CID_59312649_JID_1595_Energie_anion
 -----------------------------------
 Structure from the checkpoint file:  "JID_1595.chk"
 Charge = -1 Multiplicity = 2

                         Standard orientation:
 ---------------------------------------------------------------------
 Center     Atomic      Atomic             Coordinates (Angstroms)
 Number     Number       Type             X           Y           Z
 ---------------------------------------------------------------------
      1          6           0       -2.539015    1.161902   -0.509020
      2          6           0       -2.241570   -0.105836    0.301144
      3          6           0       -3.360690   -1.137298    0.091172
      4          6           0       -0.888283   -0.760992   -0.035888
      5          6           0        0.425200    0.021729    0.252035
      6          6           0        0.329476    0.684196    1.634053
      7          6           0        1.608413   -1.020345    0.259838
      8          6           0        1.659919   -1.892286   -1.005749
      9          6           0        3.000871   -0.408186    0.477470
     10          7           0        0.553572    1.055574   -0.793421
     11          6           0        1.342569    2.257843   -0.562122
     12          1           0       -2.531331    0.940750   -1.583785
     13          1           0       -1.793036    1.940133   -0.341320
     14          1           0       -3.531265    1.554349   -0.252830
     15          1           0       -2.244299    0.159826    1.367134
     16          1           0       -3.407908   -1.452406   -0.959449
     17          1           0       -3.202137   -2.034631    0.701334
     18          1           0       -4.338335   -0.717395    0.355262
     19          1           0       -0.838286   -1.712508    0.512485
     20          1           0       -0.902778   -1.025362   -1.101728
     21          1           0        0.088270   -0.071238    2.389357
     22          1           0        1.263670    1.165791    1.932053
     23          1           0       -0.455630    1.444298    1.654102
     24          1           0        1.407196   -1.690429    1.109050
     25          1           0        1.796146   -1.279792   -1.907171
     26          1           0        2.514000   -2.576907   -0.956883
     27          1           0        0.759754   -2.496488   -1.142309
     28          1           0        3.049540    0.248601    1.350306
     29          1           0        3.738202   -1.205638    0.625845
     30          1           0        3.319854    0.167386   -0.398030
     31          1           0        0.812679    0.621890   -1.674065
     32          1           0        2.395418    2.106908   -0.276515
     33          1           0        1.329475    2.850828   -1.483041
     34          1           0        0.874459    2.868655    0.216554
 ---------------------------------------------------------------------

 SCF Done:  E(UB3LYP) =  -449.832084866     A.U. after   27 cycles

 The electronic state is 2-A.
 Alpha  occ. eigenvalues --  -14.18377 -10.10053 -10.07837 -10.06659 -10.06561
 Alpha  occ. eigenvalues --  -10.05506 -10.05321 -10.05186 -10.05114 -10.04945
 Alpha  occ. eigenvalues --  -10.04518  -0.79882  -0.70529  -0.68589  -0.63546
 Alpha  occ. eigenvalues --   -0.59356  -0.57648  -0.56762  -0.55526  -0.50090
 Alpha  occ. eigenvalues --   -0.45641  -0.43419  -0.38169  -0.37353  -0.35574
 Alpha  occ. eigenvalues --   -0.34368  -0.33538  -0.32303  -0.31273  -0.30369
 Alpha  occ. eigenvalues --   -0.29574  -0.28191  -0.28038  -0.27547  -0.27086
 Alpha  occ. eigenvalues --   -0.26769  -0.25048  -0.24837  -0.24020  -0.23152
 Alpha  occ. eigenvalues --   -0.22174  -0.21881  -0.20607  -0.20229  -0.10723
 Alpha  occ. eigenvalues --    0.04628
 Alpha virt. eigenvalues --    0.06845   0.07249   0.07555   0.08951   0.09199
 Alpha virt. eigenvalues --    0.09633   0.09787   0.09995   0.11330   0.11598
 Alpha virt. eigenvalues --    0.12241   0.12472   0.12630   0.13091   0.13557

  Beta  occ. eigenvalues --  -14.18362 -10.10052 -10.07808 -10.06652 -10.06548
  Beta  occ. eigenvalues --  -10.05484 -10.05308 -10.05161 -10.05084 -10.04913
  Beta  occ. eigenvalues --  -10.04503  -0.79858  -0.70506  -0.68560  -0.63512
  Beta  occ. eigenvalues --   -0.59307  -0.57608  -0.56698  -0.55468  -0.50028
  Beta  occ. eigenvalues --   -0.45590  -0.43374  -0.38136  -0.37318  -0.35532
  Beta  occ. eigenvalues --   -0.34325  -0.33505  -0.32269  -0.31242  -0.30333
  Beta  occ. eigenvalues --   -0.29537  -0.28164  -0.28008  -0.27521  -0.27055
  Beta  occ. eigenvalues --   -0.26740  -0.25014  -0.24806  -0.23989  -0.23118
  Beta  occ. eigenvalues --   -0.22131  -0.21852  -0.20581  -0.20199  -0.10701
  Beta virt. eigenvalues --    0.06701   0.07531   0.07940   0.08288   0.09468
  Beta virt. eigenvalues --    0.09520   0.10104   0.10269   0.10477   0.11743
  Beta virt. eigenvalues --    0.11974   0.12610   0.12865   0.12954   0.13458

 Mulliken charges and spin densities:
               1          2
     1  C    0.055552  -0.725378
     2  C   -0.807119   1.388812
     3  C    0.276245  -0.915758
     4  C   -0.888866  -0.103795
     5  C    1.497112  -1.138800
     6  C    0.968032  -1.813951
     7  C   -2.361893   2.812453
     8  C    0.595846  -1.266648
     9  C    1.453727  -2.153204
    10  N   -0.070120   0.122718
    11  C    0.577974  -0.927751
    12  H   -0.095199   0.225439
    13  H    0.124250   0.051179
    14  H   -0.035759   0.157152
    15  H   -0.002554   0.147829
    16  H    0.023862   0.104606
    17  H   -0.239342   0.369672
    18  H   -0.197468   0.341761
    19  H    0.124566   0.036628
    20  H    0.185396  -0.033686
    21  H   -0.151940   0.321662
    22  H    0.002016   0.124245
    23  H   -0.068797   0.211275
    24  H   -0.348524   0.515810
    25  H   -0.312947   0.449265
    26  H   -0.309197   0.471694
    27  H   -0.071631   0.215676
    28  H   -0.196354   0.324477
    29  H   -0.245324   0.389004
    30  H   -0.111157   0.263962
    31  H    0.139166   0.112432
    32  H   -0.019067   0.153995
    33  H   -0.412488   0.546294
    34  H   -0.077999   0.220932
 Sum of Mulliken charges =  -1.00000   1.00000

 Dipole moment (field-independent basis, Debye):
    X=             -1.9727    Y=              1.0944    Z=              0.0065  Tot=              2.2560
 Quadrupole moment (field-independent basis, Debye-Ang):
   XX=           -137.9317   YY=           -121.1785   ZZ=           -112.9735
   XY=              1.5536   XZ=              1.3919   YZ=              2.7899

 Summary of Natural Population Analysis:

                                       Natural Population
                Natural  -----------------------------------------------
    Atom  No    Charge         Core      Valence    Rydberg      Total
 -----------------------------------------------------------------------
      C    1   -0.28271      0.99964     2.27784    0.00523     3.28271
      C    2   -0.11489      0.99961     2.10522    0.01006     3.11489
      C    3   -0.27873      0.99965     2.27431    0.00477     3.27873
      C    4   -0.18799      0.99957     2.17642    0.01199     3.18799
      C    5    0.07164      0.99954     1.91246    0.01636     2.92836
      C    6   -0.29546      0.99962     2.28842    0.00742     3.29546
      C    7   -0.11566      0.99957     2.10430    0.01179     3.11566
      C    8   -0.28733      0.99964     2.28117    0.00652     3.28733
      C    9   -0.28553      0.99964     2.27947    0.00642     3.28553
      N   10   -0.35439      0.99971     2.84143    0.01325     3.85439
      C   11   -0.17736      0.99964     2.16934    0.00838     3.17736
      H   12    0.09565      0.00000     0.40327    0.00108     0.40435
      H   13    0.10798      0.00000     0.39089    0.00114     0.39202
      H   14    0.09108      0.00000     0.40797    0.00095     0.40892
      H   15    0.09168      0.00000     0.40648    0.00184     0.40832
      H   16    0.09437      0.00000     0.40452    0.00111     0.40563
      H   17    0.09811      0.00000     0.40078    0.00111     0.40189
      H   18    0.09610      0.00000     0.40296    0.00094     0.40390
      H   19    0.09819      0.00000     0.40036    0.00144     0.40181
      H   20    0.09830      0.00000     0.40016    0.00155     0.40170
      H   21    0.10396      0.00000     0.39479    0.00125     0.39604
      H   22    0.10314      0.00000     0.39587    0.00098     0.39686
      H   23    0.10247      0.00000     0.39640    0.00113     0.39753
      H   24    0.09411      0.00000     0.40404    0.00185     0.40589
      H   25    0.09324      0.00000     0.40526    0.00150     0.40676
      H   26    0.10114      0.00000     0.39782    0.00103     0.39886
      H   27    0.10152      0.00000     0.39743    0.00105     0.39848
      H   28    0.09901      0.00000     0.39973    0.00126     0.40099
      H   29    0.10010      0.00000     0.39887    0.00103     0.39990
      H   30    0.09672      0.00000     0.40184    0.00144     0.40328
      H   31    0.17609      0.00000     0.32118    0.00273     0.32391
      H   32    0.08067      0.00000     0.41763    0.00170     0.41933
      H   33    0.09470      0.00000     0.40442    0.00089     0.40530
      H   34    0.09009      0.00000     0.40872    0.00120     0.40991
 =======================================================================
   * Total *   -0.00000     10.99584    33.87178    0.13238    45.00000

 Normal termination of Gaussian 16 at Tue Dec  8 21:16:01 2020.
