 Gaussian 16, Revision A.03,

 -----------------------------------------------------------
 # opt freq B3LYP/6-31G(d) empiricaldispersion=gd3bj scf=xqc
 -----------------------------------------------------------

 -------------------------------
 CID_105494518_JID_7663_neutraal
 -------------------------------
 Symbolic Z-matrix:
 Charge =  0 Multiplicity = 1

 SCF Done:  E(RB3LYP) =  -766.222739937     A.U. after   15 cycles
 SCF Done:  E(RB3LYP) =  -766.230399932     A.U. after   13 cycles
 SCF Done:  E(RB3LYP) =  -766.228461985     A.U. after   13 cycles
 SCF Done:  E(RB3LYP) =  -766.230212529     A.U. after   12 cycles
 SCF Done:  E(RB3LYP) =  -766.231500125     A.U. after    9 cycles
 SCF Done:  E(RB3LYP) =  -766.232093615     A.U. after   12 cycles
 SCF Done:  E(RB3LYP) =  -766.232189761     A.U. after   12 cycles
 SCF Done:  E(RB3LYP) =  -766.232310820     A.U. after   10 cycles
 SCF Done:  E(RB3LYP) =  -766.232338581     A.U. after    9 cycles
 SCF Done:  E(RB3LYP) =  -766.232347778     A.U. after    9 cycles
 SCF Done:  E(RB3LYP) =  -766.232357841     A.U. after    9 cycles
 SCF Done:  E(RB3LYP) =  -766.232360187     A.U. after    9 cycles
 SCF Done:  E(RB3LYP) =  -766.232364082     A.U. after    9 cycles
 SCF Done:  E(RB3LYP) =  -766.232366021     A.U. after    9 cycles
 SCF Done:  E(RB3LYP) =  -766.232366135     A.U. after    7 cycles
 Optimization completed.
    -- Stationary point found.
 Normal termination of Gaussian 16 at Sun Dec 13 12:35:24 2020.

 --------------------------------------------------------------------
 #N Geom=AllCheck Guess=TCheck SCRF=Check GenChk RB3LYP/6-31G(d) Freq
 --------------------------------------------------------------------

 Structure from the checkpoint file:  "JID_7663.chk"
 -------------------------------
 CID_105494518_JID_7663_neutraal
 -------------------------------
 Charge =  0 Multiplicity = 1

 SCF Done:  E(RB3LYP) =  -766.232366135     A.U. after    1 cycles

  Exact polarizability: 166.750   6.858 164.522  -5.360  -3.464 105.950
 Approx polarizability: 238.938  12.840 253.094 -12.678   1.360 171.519

                      1                      2                      3
                      A                      A                      A
 Frequencies --     22.0812                65.4533                87.7715
 Red. masses --      4.6889                 6.8915                 3.8658
 Frc consts  --      0.0013                 0.0174                 0.0175
 IR Inten    --      0.0451                 1.5329                 1.9410

                      4                      5                      6
                      A                      A                      A
 Frequencies --    109.6471               129.4944               148.9676
 Red. masses --      1.2528                 2.9399                 4.5665
 Frc consts  --      0.0089                 0.0290                 0.0597
 IR Inten    --      1.1113                 0.6175                 3.7641

                      7                      8                      9
                      A                      A                      A
 Frequencies --    162.5806               187.2733               191.7811
 Red. masses --      2.6067                 2.5823                 2.8601
 Frc consts  --      0.0406                 0.0534                 0.0620
 IR Inten    --      0.6573                 1.7083                 3.2125

                     10                     11                     12
                      A                      A                      A
 Frequencies --    223.6255               247.4067               293.0781
 Red. masses --      2.8855                 2.1824                 2.5041
 Frc consts  --      0.0850                 0.0787                 0.1267
 IR Inten    --      3.1310                17.1896                19.2269

                     13                     14                     15
                      A                      A                      A
 Frequencies --    304.3719               314.3893               326.7238
 Red. masses --      2.7759                 2.2559                 2.8201
 Frc consts  --      0.1515                 0.1314                 0.1774
 IR Inten    --     26.7376                13.9242                23.7091

                     16                     17                     18
                      A                      A                      A
 Frequencies --    350.9114               402.8700               413.9529
 Red. masses --      3.1668                 1.6036                 4.1155
 Frc consts  --      0.2298                 0.1533                 0.4155
 IR Inten    --      1.8126                75.1437                 3.8454

                     19                     20                     21
                      A                      A                      A
 Frequencies --    457.2517               466.8169               481.1732
 Red. masses --      3.2979                 3.8036                 2.9951
 Frc consts  --      0.4063                 0.4884                 0.4086
 IR Inten    --      2.9284                 5.8405                 7.2633

                     22                     23                     24
                      A                      A                      A
 Frequencies --    499.2163               521.1642               591.6709
 Red. masses --      3.2539                 3.7518                 4.1031
 Frc consts  --      0.4778                 0.6004                 0.8463
 IR Inten    --      9.2165                 0.6976                 7.5459

                     25                     26                     27
                      A                      A                      A
 Frequencies --    598.9328               647.4431               662.5673
 Red. masses --      4.5725                 4.4564                 5.3081
 Frc consts  --      0.9664                 1.1006                 1.3729
 IR Inten    --      9.0959                 1.9123                 7.4369

                     28                     29                     30
                      A                      A                      A
 Frequencies --    714.8764               748.0865               764.0913
 Red. masses --      4.1881                 2.7121                 1.4000
 Frc consts  --      1.2610                 0.8942                 0.4816
 IR Inten    --      4.3331                 3.2931                41.7200

                     31                     32                     33
                      A                      A                      A
 Frequencies --    790.3573               812.6304               845.1943
 Red. masses --      2.9811                 2.2316                 2.9389
 Frc consts  --      1.0972                 0.8683                 1.2369
 IR Inten    --      2.3790                 8.6220                16.1722

                     34                     35                     36
                      A                      A                      A
 Frequencies --    881.9253               882.8164               886.1035
 Red. masses --      1.4783                 2.5214                 2.0528
 Frc consts  --      0.6774                 1.1578                 0.9496
 IR Inten    --     76.2034                14.2855                13.3907

                     37                     38                     39
                      A                      A                      A
 Frequencies --    908.2085               959.9479               968.3556
 Red. masses --      1.9142                 1.5261                 2.0367
 Frc consts  --      0.9303                 0.8285                 1.1252
 IR Inten    --     26.4811                 3.4851                 4.7663

                     40                     41                     42
                      A                      A                      A
 Frequencies --    997.5151              1000.2924              1022.4471
 Red. masses --      1.9954                 1.5126                 1.6211
 Frc consts  --      1.1698                 0.8917                 0.9985
 IR Inten    --      6.8629                13.2623                16.4000

                     43                     44                     45
                      A                      A                      A
 Frequencies --   1045.5625              1073.7563              1085.8459
 Red. masses --      2.0267                 3.0543                 2.3219
 Frc consts  --      1.3054                 2.0748                 1.6130
 IR Inten    --     17.8620                 5.6790                55.2718

                     46                     47                     48
                      A                      A                      A
 Frequencies --   1094.0129              1099.0519              1132.4989
 Red. masses --      2.7412                 2.5751                 2.0896
 Frc consts  --      1.9330                 1.8327                 1.5790
 IR Inten    --     30.3544                14.8425                 6.7746

                     49                     50                     51
                      A                      A                      A
 Frequencies --   1144.3687              1161.3848              1179.6196
 Red. masses --      2.9392                 1.3311                 1.2480
 Frc consts  --      2.2678                 1.0578                 1.0232
 IR Inten    --      9.8112                 9.4140                23.7606

                     52                     53                     54
                      A                      A                      A
 Frequencies --   1189.5856              1199.2401              1213.7194
 Red. masses --      1.3233                 1.1241                 1.7533
 Frc consts  --      1.1033                 0.9525                 1.5218
 IR Inten    --      7.0957                 6.4321                12.1313

                     55                     56                     57
                      A                      A                      A
 Frequencies --   1217.4239              1243.3126              1276.6107
 Red. masses --      1.3977                 2.1332                 1.7390
 Frc consts  --      1.2205                 1.9428                 1.6698
 IR Inten    --     34.5756                 3.0726                10.9855

                     58                     59                     60
                      A                      A                      A
 Frequencies --   1279.2784              1292.0495              1315.4835
 Red. masses --      2.1624                 1.4681                 1.5035
 Frc consts  --      2.0850                 1.4440                 1.5329
 IR Inten    --     29.0082                18.1885                 4.7957

                     61                     62                     63
                      A                      A                      A
 Frequencies --   1328.8254              1337.7058              1346.4990
 Red. masses --      1.8566                 2.0916                 1.3955
 Frc consts  --      1.9316                 2.2052                 1.4907
 IR Inten    --     55.7601                 0.7846                10.1887

                     64                     65                     66
                      A                      A                      A
 Frequencies --   1364.9970              1369.7555              1380.4890
 Red. masses --      1.4409                 1.6889                 1.5085
 Frc consts  --      1.5817                 1.8670                 1.6938
 IR Inten    --      0.8280                 0.9302                 8.1301

                     67                     68                     69
                      A                      A                      A
 Frequencies --   1437.1387              1441.4098              1459.4301
 Red. masses --      1.5501                 1.6163                 1.2125
 Frc consts  --      1.8863                 1.9786                 1.5216
 IR Inten    --     14.7002                85.1142                32.0083

                     70                     71                     72
                      A                      A                      A
 Frequencies --   1493.1756              1497.5771              1505.8627
 Red. masses --      1.2525                 2.0771                 1.0916
 Frc consts  --      1.6453                 2.7446                 1.4585
 IR Inten    --     34.7360                14.1207                 7.3593

                     73                     74                     75
                      A                      A                      A
 Frequencies --   1510.9367              1525.1993              1526.7431
 Red. masses --      1.1789                 1.1274                 1.1517
 Frc consts  --      1.5857                 1.5453                 1.5817
 IR Inten    --      7.9007                20.2233                 5.8855

                     76                     77                     78
                      A                      A                      A
 Frequencies --   1539.7577              1555.9350              1638.2036
 Red. masses --      2.0215                 1.0643                 5.7172
 Frc consts  --      2.8237                 1.5181                 9.0401
 IR Inten    --     12.7319                14.9258                 0.7006

                     79                     80                     81
                      A                      A                      A
 Frequencies --   1665.0927              1693.8339              1777.8234
 Red. masses --      5.1973                 1.1076                10.3234
 Frc consts  --      8.4899                 1.8724                19.2243
 IR Inten    --      0.6525                34.7001               321.5307

                     82                     83                     84
                      A                      A                      A
 Frequencies --   2983.3899              3062.4130              3072.7363
 Red. masses --      1.0711                 1.0362                 1.0876
 Frc consts  --      5.6169                 5.7256                 6.0504
 IR Inten    --     70.2794                30.5610                15.5971

                     85                     86                     87
                      A                      A                      A
 Frequencies --   3072.8179              3076.4129              3079.6303
 Red. masses --      1.0618                 1.0817                 1.0666
 Frc consts  --      5.9069                 6.0320                 5.9600
 IR Inten    --     25.1743                15.8456                 4.2443

                     88                     89                     90
                      A                      A                      A
 Frequencies --   3108.9023              3118.2434              3119.2476
 Red. masses --      1.0981                 1.1027                 1.0925
 Frc consts  --      6.2533                 6.3174                 6.2627
 IR Inten    --     12.8136                20.0313                37.3765

                     91                     92                     93
                      A                      A                      A
 Frequencies --   3146.2457              3158.3078              3187.1747
 Red. masses --      1.0999                 1.1041                 1.0862
 Frc consts  --      6.4149                 6.4886                 6.5009
 IR Inten    --     13.9230                14.8878                 3.8906

                     94                     95                     96
                      A                      A                      A
 Frequencies --   3203.6673              3226.3730              3235.2210
 Red. masses --      1.0933                 1.0917                 1.0906
 Frc consts  --      6.6115                 6.6957                 6.7258
 IR Inten    --     26.4328                 6.5103                16.0186

                     97                     98                     99
                      A                      A                      A
 Frequencies --   3472.4802              3561.7720              3721.8716
 Red. masses --      1.0504                 1.0924                 1.0652
 Frc consts  --      7.4624                 8.1650                 8.6934
 IR Inten    --      0.5079                 0.0567                 9.0877

 - Thermochemistry -
 -------------------
 Temperature   298.150 Kelvin.  Pressure   1.00000 Atm.
 Atom     1 has atomic number  6 and mass  12.00000

 Molecular mass:   234.13683 amu.
 Principal axes and moments of inertia in atomic units:
                           1         2         3
     Eigenvalues --  2730.131574471.470825674.13739
           X            0.99975  -0.02232  -0.00296
           Y            0.02219   0.99896  -0.03973
           Z            0.00384   0.03965   0.99921
 This molecule is an asymmetric top.
 Rotational symmetry number  1.
 Warning -- assumption of classical behavior for rotation
           may cause significant error
 Rotational temperatures (Kelvin)      0.03173     0.01937     0.01526
 Rotational constants (GHZ):           0.66105     0.40361     0.31806
 Zero-point vibrational energy     791554.4 (Joules/Mol)
                                  189.18605 (Kcal/Mol)
 Warning -- explicit consideration of  25 degrees of freedom as
           vibrations may cause significant error
 Vibrational temperatures:     31.77    94.17   126.28   157.76   186.31
          (Kelvin)            214.33   233.92   269.44   275.93   321.75
                              355.96   421.67   437.92   452.34   470.08
                              504.88   579.64   595.59   657.88   671.65
                              692.30   718.26   749.84   851.28   861.73
                              931.53   953.29  1028.55  1076.33  1099.36
                             1137.15  1169.19  1216.05  1268.89  1270.18
                             1274.91  1306.71  1381.15  1393.25  1435.20
                             1439.20  1471.07  1504.33  1544.90  1562.29
                             1574.04  1581.29  1629.41  1646.49  1670.97
                             1697.21  1711.55  1725.44  1746.27  1751.60
                             1788.85  1836.76  1840.60  1858.97  1892.69
                             1911.88  1924.66  1937.31  1963.93  1970.77
                             1986.22  2067.72  2073.87  2099.79  2148.35
                             2154.68  2166.60  2173.90  2194.42  2196.64
                             2215.37  2238.64  2357.01  2395.70  2437.05
                             2557.89  4292.43  4406.13  4420.98  4421.10
                             4426.27  4430.90  4473.02  4486.46  4487.90
                             4526.75  4544.10  4585.63  4609.36  4642.03
                             4654.76  4996.12  5124.60  5354.94

 Zero-point correction=                           0.301487 (Hartree/Particle)
 Thermal correction to Energy=                    0.317364
 Thermal correction to Enthalpy=                  0.318308
 Thermal correction to Gibbs Free Energy=         0.258408
 Sum of electronic and zero-point Energies=           -765.930879
 Sum of electronic and thermal Energies=              -765.915002
 Sum of electronic and thermal Enthalpies=            -765.914058
 Sum of electronic and thermal Free Energies=         -765.973958

                     E (Thermal)             CV                S
                      KCal/Mol        Cal/Mol-Kelvin    Cal/Mol-Kelvin
 Total                  199.149             62.142            126.071
 Electronic               0.000              0.000              0.000
 Translational            0.889              2.981             42.254
 Rotational               0.889              2.981             32.604
 Vibrational            197.372             56.180             51.213
 Vibration     1          0.593              1.985              6.438
 Vibration     2          0.597              1.971              4.286
 Vibration     3          0.601              1.958              3.709
 Vibration     4          0.606              1.941              3.275
 Vibration     5          0.612              1.924              2.954
 Vibration     6          0.618              1.904              2.685
 Vibration     7          0.623              1.888              2.520
 Vibration     8          0.632              1.857              2.255
 Vibration     9          0.634              1.851              2.211
 Vibration    10          0.649              1.805              1.930
 Vibration    11          0.661              1.767              1.749
 Vibration    12          0.688              1.687              1.456
 Vibration    13          0.695              1.665              1.393
 Vibration    14          0.702              1.646              1.339
 Vibration    15          0.710              1.622              1.276
 Vibration    16          0.728              1.573              1.162
 Vibration    17          0.768              1.464              0.952
 Vibration    18          0.778              1.440              0.913
 Vibration    19          0.815              1.345              0.774
 Vibration    20          0.824              1.324              0.747
 Vibration    21          0.837              1.292              0.707
 Vibration    22          0.855              1.252              0.660
 Vibration    23          0.876              1.203              0.607
 Vibration    24          0.949              1.050              0.464
 Vibration    25          0.957              1.034              0.451

                           ! Non-Optimized Parameters !
 Normal termination of Gaussian 16 at Sun Dec 13 12:51:05 2020.

 ----------------------------------------------------------------------
 # B3LYP/6-311++G(d,p) empiricaldispersion=gd3bj scf=xqc pop=npa geom=c
 heck
 ----------------------------------------------------------------------

 ---------------------------------------
 CID_105494518_JID_7663_Energie_neutraal
 ---------------------------------------
 Structure from the checkpoint file:  "JID_7663.chk"
 Charge =  0 Multiplicity = 1

 SCF Done:  E(RB3LYP) =  -766.459790564     A.U. after   16 cycles
 Normal termination of Gaussian 16 at Sun Dec 13 12:58:52 2020.

 ----------------------------------------------------------------------
 # B3LYP/6-311++G(d,p) empiricaldispersion=gd3bj scf=xqc pop=npa geom=c
 heck
 ----------------------------------------------------------------------

 -------------------------------------
 CID_105494518_JID_7663_Energie_kation
 -------------------------------------
 Structure from the checkpoint file:  "JID_7663.chk"
 Charge =  1 Multiplicity = 2

 SCF Done:  E(UB3LYP) =  -766.154179872     A.U. after   32 cycles
 Normal termination of Gaussian 16 at Sun Dec 13 13:21:32 2020.
 Gaussian 16:  ES64L-G16RevA.03 25-Dec-2016

 ----------------------------------------------------------------------
 # B3LYP/6-311++G(d,p) empiricaldispersion=gd3bj scf=xqc pop=npa geom=c
 heck
 ----------------------------------------------------------------------

 ------------------------------------
 CID_105494518_JID_7663_Energie_anion
 ------------------------------------
 Structure from the checkpoint file:  "JID_7663.chk"
 Charge = -1 Multiplicity = 2

                         Standard orientation:
 ---------------------------------------------------------------------
 Center     Atomic      Atomic             Coordinates (Angstroms)
 Number     Number       Type             X           Y           Z
 ---------------------------------------------------------------------
      1          6           0        1.517904    2.294730   -0.495802
      2          7           0        1.220357    0.949955   -0.011306
      3          6           0        0.587925   -0.074948   -0.872915
      4          6           0        1.655437   -1.176181   -1.072379
      5          6           0        2.113102   -1.762432    0.288753
      6          6           0        1.682606   -0.901037    1.498543
      7          6           0        1.782942    0.582349    1.191444
      8          8           0        2.357891    1.392675    1.909011
      9          8           0        2.748687   -0.623255   -1.800661
     10          6           0       -0.777618   -0.566832   -0.380865
     11          6           0       -1.034648   -1.939067   -0.257112
     12          6           0       -2.268472   -2.422166    0.177052
     13          6           0       -3.280947   -1.525309    0.499767
     14          6           0       -3.052488   -0.157630    0.362916
     15          6           0       -1.823189    0.336618   -0.084033
     16          6           0       -1.651984    1.836528   -0.241239
     17          7           0       -2.935849    2.541130   -0.268110
     18          1           0        1.309394    2.343698   -1.566051
     19          1           0        2.571418    2.528126   -0.316137
     20          1           0        0.924511    3.056409    0.019949
     21          1           0        0.449503    0.400721   -1.849018
     22          1           0        1.269451   -1.958933   -1.728536
     23          1           0        3.204539   -1.837321    0.249594
     24          1           0        1.738030   -2.781919    0.420544
     25          1           0        2.306539   -1.095565    2.372791
     26          1           0        0.646855   -1.135369    1.766695
     27          1           0        3.115831    0.091782   -1.255058
     28          1           0       -0.263933   -2.659983   -0.499104
     29          1           0       -2.426994   -3.493295    0.263613
     30          1           0       -4.244869   -1.883005    0.850779
     31          1           0       -3.829797    0.559585    0.601485
     32          1           0       -1.082983    2.225136    0.611675
     33          1           0       -1.034416    2.032634   -1.132639
     34          1           0       -2.769604    3.544919   -0.274941
     35          1           0       -3.431076    2.321686   -1.131296
 ---------------------------------------------------------------------

 SCF Done:  E(UB3LYP) =  -766.451831804     A.U. after   33 cycles
 SCF Done:  E(UB3LYP) =  -766.451831804     a.u. after    1 cycles

 The electronic state is 2-A.
 Alpha  occ. eigenvalues --  -19.03883 -18.99682 -14.25217 -14.19139 -10.17737
 Alpha  occ. eigenvalues --  -10.14131 -10.13038 -10.10608 -10.09680 -10.09113
 Alpha  occ. eigenvalues --  -10.08919 -10.08910 -10.08479 -10.07948 -10.07718
 Alpha  occ. eigenvalues --  -10.07611 -10.07006  -0.95204  -0.94156  -0.84789
 Alpha  occ. eigenvalues --   -0.78980  -0.75881  -0.71644  -0.68213  -0.65875
 Alpha  occ. eigenvalues --   -0.63117  -0.62208  -0.57011  -0.56633  -0.52708
 Alpha  occ. eigenvalues --   -0.50376  -0.48845  -0.45046  -0.43135  -0.40888
 Alpha  occ. eigenvalues --   -0.40515  -0.39824  -0.38062  -0.37938  -0.37197
 Alpha  occ. eigenvalues --   -0.36056  -0.34264  -0.33900  -0.33235  -0.32304
 Alpha  occ. eigenvalues --   -0.31958  -0.31889  -0.31375  -0.29977  -0.29524
 Alpha  occ. eigenvalues --   -0.28156  -0.28010  -0.26432  -0.25541  -0.25346
 Alpha  occ. eigenvalues --   -0.24244  -0.23773  -0.19847  -0.16556  -0.16208
 Alpha  occ. eigenvalues --   -0.15763  -0.15226  -0.14016   0.04041
 Alpha virt. eigenvalues --    0.05792   0.06939   0.07289   0.07786   0.08010
 Alpha virt. eigenvalues --    0.08537   0.08837   0.09385   0.09982   0.10058
 Alpha virt. eigenvalues --    0.10425   0.11045   0.11553   0.11967   0.12584

  Beta  occ. eigenvalues --  -19.03872 -18.99678 -14.25209 -14.19080 -10.17736
  Beta  occ. eigenvalues --  -10.14123 -10.13033 -10.10579 -10.09658 -10.09100
  Beta  occ. eigenvalues --  -10.08905 -10.08868 -10.08462 -10.07941 -10.07697
  Beta  occ. eigenvalues --  -10.07569 -10.07006  -0.95191  -0.94141  -0.84766
  Beta  occ. eigenvalues --   -0.78888  -0.75808  -0.71616  -0.68149  -0.65811
  Beta  occ. eigenvalues --   -0.63072  -0.62158  -0.56960  -0.56559  -0.52670
  Beta  occ. eigenvalues --   -0.50312  -0.48787  -0.45007  -0.43091  -0.40858
  Beta  occ. eigenvalues --   -0.40465  -0.39768  -0.38003  -0.37902  -0.37142
  Beta  occ. eigenvalues --   -0.36008  -0.34232  -0.33873  -0.33188  -0.32260
  Beta  occ. eigenvalues --   -0.31918  -0.31861  -0.31321  -0.29942  -0.29469
  Beta  occ. eigenvalues --   -0.28119  -0.27984  -0.26341  -0.25512  -0.25312
  Beta  occ. eigenvalues --   -0.24201  -0.23741  -0.19829  -0.16515  -0.16121
  Beta  occ. eigenvalues --   -0.15688  -0.15105  -0.13914
  Beta virt. eigenvalues --    0.06211   0.06925   0.07213   0.07703   0.08095
  Beta virt. eigenvalues --    0.08384   0.08688   0.09199   0.09900   0.10130
  Beta virt. eigenvalues --    0.10329   0.10732   0.11391   0.11683   0.12264

 Mulliken charges and spin densities:
               1          2
     1  C    0.592018  -0.868146
     2  N   -0.124312   0.041844
     3  C   -0.386506  -0.011787
     4  C    0.872151  -1.278855
     5  C    0.264606  -0.423545
     6  C   -0.225484  -0.039217
     7  C   -0.042463  -0.167910
     8  O   -0.320188   0.022097
     9  O   -0.115226  -0.013047
    10  C    0.180896   0.418680
    11  C   -0.593667   0.386044
    12  C   -0.011566  -0.623586
    13  C   -0.301201  -0.042767
    14  C   -0.387140   0.210961
    15  C    0.379717   0.012964
    16  C    0.636567  -1.305661
    17  N   -0.489935   0.164370
    18  H   -0.177615   0.373413
    19  H    0.059084   0.100764
    20  H   -0.008321   0.195707
    21  H   -0.110522   0.389174
    22  H   -0.229329   0.458920
    23  H    0.145804   0.032528
    24  H   -0.175703   0.341453
    25  H    0.141841   0.084719
    26  H    0.218920  -0.048329
    27  H    0.169117   0.076763
    28  H    0.096777   0.013850
    29  H   -0.410893   0.573861
    30  H    0.009888   0.128789
    31  H    0.182708   0.038777
    32  H    0.095679   0.148417
    33  H   -0.461160   0.651597
    34  H   -0.280097   0.530205
    35  H   -0.194445   0.426952
 Sum of Mulliken charges =  -1.00000   1.00000

 Dipole moment (field-independent basis, Debye):
    X=              2.6620    Y=             -3.6409    Z=              2.1813  Tot=              5.0100
 Quadrupole moment (field-independent basis, Debye-Ang):
   XX=           -156.2741   YY=           -163.4778   ZZ=           -143.8803
   XY=              8.2864   XZ=             -4.4419   YZ=             -1.6126

 Summary of Natural Population Analysis:

                                       Natural Population
                Natural  -----------------------------------------------
    Atom  No    Charge         Core      Valence    Rydberg      Total
 -----------------------------------------------------------------------
      C    1   -0.17850      0.99963     2.16956    0.00932     3.17850
      N    2   -0.26543      0.99964     2.75399    0.01180     3.76543
      C    3   -0.02166      0.99952     2.00712    0.01502     3.02166
      C    4    0.06168      0.99954     1.92389    0.01489     2.93832
      C    5   -0.20406      0.99961     2.19571    0.00874     3.20406
      C    6   -0.23752      0.99959     2.23071    0.00723     3.23752
      C    7    0.34609      0.99962     1.63122    0.02307     2.65391
      O    8   -0.32461      0.99988     3.31925    0.00548     4.32461
      O    9   -0.36677      0.99990     3.36077    0.00610     4.36677
      C   10   -0.01838      0.99945     2.00788    0.01104     3.01838
      C   11   -0.10395      0.99951     2.09501    0.00943     3.10395
      C   12   -0.10268      0.99956     2.09288    0.01024     3.10268
      C   13   -0.09230      0.99956     2.08370    0.00905     3.09230
      C   14   -0.10196      0.99951     2.09370    0.00874     3.10196
      C   15   -0.00647      0.99947     1.99571    0.01129     3.00647
      C   16   -0.09827      0.99959     2.08699    0.01169     3.09827
      N   17   -0.42176      0.99977     2.91175    0.01024     3.92176
      H   18    0.10113      0.00000     0.39750    0.00138     0.39887
      H   19    0.10047      0.00000     0.39856    0.00097     0.39953
      H   20    0.10033      0.00000     0.39846    0.00121     0.39967
      H   21    0.11774      0.00000     0.37999    0.00226     0.38226
      H   22    0.09675      0.00000     0.40139    0.00186     0.40325
      H   23    0.10499      0.00000     0.39389    0.00112     0.39501
      H   24    0.10647      0.00000     0.39243    0.00110     0.39353
      H   25    0.11134      0.00000     0.38760    0.00106     0.38866
      H   26    0.11722      0.00000     0.38141    0.00137     0.38278
      H   27    0.22632      0.00000     0.27069    0.00299     0.27368
      H   28    0.09961      0.00000     0.39829    0.00211     0.40039
      H   29    0.09973      0.00000     0.39928    0.00098     0.40027
      H   30    0.09729      0.00000     0.40195    0.00076     0.40271
      H   31    0.11330      0.00000     0.38526    0.00144     0.38670
      H   32    0.10037      0.00000     0.39810    0.00153     0.39963
      H   33    0.08648      0.00000     0.41073    0.00279     0.41352
      H   34    0.18111      0.00000     0.31504    0.00385     0.31889
      H   35    0.17589      0.00000     0.32114    0.00297     0.32411
 =======================================================================
   * Total *    0.00000     16.99333    45.79156    0.21510    63.00000

 Normal termination of Gaussian 16 at Sun Dec 13 13:44:46 2020.
