 Gaussian 16, Revision A.03,

 -----------------------------------------------------------
 # opt freq B3LYP/6-31G(d) empiricaldispersion=gd3bj scf=xqc
 -----------------------------------------------------------

 ------------------------------
 CID_86174800_JID_5566_neutraal
 ------------------------------
 Symbolic Z-matrix:
 Charge =  0 Multiplicity = 1

 SCF Done:  E(RB3LYP) =  -644.157995441     A.U. after   16 cycles
 SCF Done:  E(RB3LYP) =  -644.161622987     A.U. after   15 cycles
 SCF Done:  E(RB3LYP) =  -644.164171189     A.U. after   13 cycles
 SCF Done:  E(RB3LYP) =  -644.164887916     A.U. after   14 cycles
 SCF Done:  E(RB3LYP) =  -644.165250504     A.U. after   14 cycles
 SCF Done:  E(RB3LYP) =  -644.165367674     A.U. after   13 cycles
 SCF Done:  E(RB3LYP) =  -644.165409854     A.U. after   11 cycles
 SCF Done:  E(RB3LYP) =  -644.165428830     A.U. after   12 cycles
 SCF Done:  E(RB3LYP) =  -644.165437838     A.U. after   11 cycles
 SCF Done:  E(RB3LYP) =  -644.165446704     A.U. after   11 cycles
 SCF Done:  E(RB3LYP) =  -644.168101238     A.U. after   12 cycles
 SCF Done:  E(RB3LYP) =  -644.168106606     A.U. after   10 cycles
 SCF Done:  E(RB3LYP) =  -644.168108492     A.U. after   10 cycles
 SCF Done:  E(RB3LYP) =  -644.168108957     A.U. after    9 cycles
 SCF Done:  E(RB3LYP) =  -644.168109230     A.U. after   10 cycles
 Optimization completed.
    -- Stationary point found.
 Normal termination of Gaussian 16 at Thu Dec 10 17:49:38 2020.

 --------------------------------------------------------------------
 #N Geom=AllCheck Guess=TCheck SCRF=Check GenChk RB3LYP/6-31G(d) Freq
 --------------------------------------------------------------------

 Structure from the checkpoint file:  "JID_5566.chk"
 ------------------------------
 CID_86174800_JID_5566_neutraal
 ------------------------------
 Charge =  0 Multiplicity = 1

 SCF Done:  E(RB3LYP) =  -644.168109230     A.U. after    1 cycles

  Exact polarizability: 167.695 -19.136  95.542   7.535   3.077 125.114
 Approx polarizability: 259.459 -30.672 141.813  34.388   5.318 256.757

                      1                      2                      3
                      A                      A                      A
 Frequencies --     18.1508                49.8049                59.4123
 Red. masses --      9.5546                 4.8717                 5.8992
 Frc consts  --      0.0019                 0.0071                 0.0123
 IR Inten    --      0.0852                 1.2271                 0.2366

                      4                      5                      6
                      A                      A                      A
 Frequencies --     92.6797               111.5721               118.8653
 Red. masses --      5.0615                 4.6098                 5.1218
 Frc consts  --      0.0256                 0.0338                 0.0426
 IR Inten    --      0.4417                 0.3467                 2.1809

                      7                      8                      9
                      A                      A                      A
 Frequencies --    194.3700               272.0415               316.1885
 Red. masses --      7.3740                 3.0606                 4.1928
 Frc consts  --      0.1641                 0.1335                 0.2470
 IR Inten    --      1.2104                 2.6740                 0.2517

                     10                     11                     12
                      A                      A                      A
 Frequencies --    375.1614               394.1347               424.5911
 Red. masses --      4.6632                 4.3280                 3.0586
 Frc consts  --      0.3867                 0.3961                 0.3249
 IR Inten    --      0.8847                 4.1138                 0.0195

                     13                     14                     15
                      A                      A                      A
 Frequencies --    442.9412               550.1205               572.6274
 Red. masses --      4.9190                 3.2701                13.7115
 Frc consts  --      0.5686                 0.5831                 2.6490
 IR Inten    --      3.3433                 8.9693                 9.5337

                     16                     17                     18
                      A                      A                      A
 Frequencies --    619.9427               634.0065               646.8409
 Red. masses --      4.5048                 4.8133                 6.8309
 Frc consts  --      1.0201                 1.1399                 1.6839
 IR Inten    --      2.0393                 3.4555                 8.3674

                     19                     20                     21
                      A                      A                      A
 Frequencies --    664.2276               708.2892               715.0792
 Red. masses --      5.1932                 3.4849                 2.0385
 Frc consts  --      1.3499                 1.0300                 0.6142
 IR Inten    --      5.4357                 6.5323                31.4668

                     22                     23                     24
                      A                      A                      A
 Frequencies --    724.4736               760.6488               781.5371
 Red. masses --      1.4236                 2.4443                 1.7699
 Frc consts  --      0.4402                 0.8333                 0.6369
 IR Inten    --     21.0745                34.7404                25.2474

                     25                     26                     27
                      A                      A                      A
 Frequencies --    810.0203               854.6444               864.1677
 Red. masses --      1.7966                 1.2560                 2.0803
 Frc consts  --      0.6946                 0.5405                 0.9153
 IR Inten    --     15.9578                 1.2730                25.2906

                     28                     29                     30
                      A                      A                      A
 Frequencies --    871.2566               910.7124               931.4848
 Red. masses --      2.2010                 4.9178                 1.4108
 Frc consts  --      0.9844                 2.4032                 0.7212
 IR Inten    --     16.2840                 8.0716                 4.5431

                     31                     32                     33
                      A                      A                      A
 Frequencies --    963.5245               971.0968               997.7678
 Red. masses --      1.8353                 1.3497                 1.2568
 Frc consts  --      1.0039                 0.7499                 0.7372
 IR Inten    --      9.6510                 0.3503                 0.2572

                     34                     35                     36
                      A                      A                      A
 Frequencies --   1013.6773              1024.8811              1056.4079
 Red. masses --      3.2080                 6.0219                 1.7759
 Frc consts  --      1.9421                 3.7268                 1.1677
 IR Inten    --      0.5972                 0.7433                 0.4999

                     37                     38                     39
                      A                      A                      A
 Frequencies --   1068.1819              1110.2497              1129.1515
 Red. masses --      1.4673                 1.5366                 1.6033
 Frc consts  --      0.9864                 1.1160                 1.2044
 IR Inten    --      9.2986                 5.0125                16.5216

                     40                     41                     42
                      A                      A                      A
 Frequencies --   1194.6555              1201.4142              1207.2854
 Red. masses --      1.1053                 1.9228                 1.1605
 Frc consts  --      0.9295                 1.6352                 0.9966
 IR Inten    --      0.3373                17.0268                 1.1231

                     43                     44                     45
                      A                      A                      A
 Frequencies --   1257.7045              1281.4216              1307.4733
 Red. masses --      1.7527                 1.5504                 3.0739
 Frc consts  --      1.6335                 1.5000                 3.0960
 IR Inten    --      4.0294                 2.9255               105.3953

                     46                     47                     48
                      A                      A                      A
 Frequencies --   1342.4792              1364.2215              1371.1075
 Red. masses --      2.0520                 2.5346                 3.6654
 Frc consts  --      2.1790                 2.7793                 4.0599
 IR Inten    --      3.2986                 3.5882                44.1287

                     49                     50                     51
                      A                      A                      A
 Frequencies --   1381.7962              1405.7449              1472.4531
 Red. masses --      3.4186                 1.7147                 4.1498
 Frc consts  --      3.8458                 1.9964                 5.3011
 IR Inten    --     23.4160                 8.6863                 9.2355

                     52                     53                     54
                      A                      A                      A
 Frequencies --   1502.6884              1512.9145              1517.4366
 Red. masses --      2.2547                 2.6871                 1.2596
 Frc consts  --      2.9996                 3.6238                 1.7089
 IR Inten    --      4.5313                50.2530                 6.5579

                     55                     56                     57
                      A                      A                      A
 Frequencies --   1553.5617              1605.1975              1649.3827
 Red. masses --      2.6561                 5.2184                 5.9827
 Frc consts  --      3.7771                 7.9222                 9.5894
 IR Inten    --     95.3160                 2.9988                 3.5879

                     58                     59                     60
                      A                      A                      A
 Frequencies --   1664.0053              2254.7819              3078.4530
 Red. masses --      5.7098                13.6593                 1.0671
 Frc consts  --      9.3149                40.9154                 5.9582
 IR Inten    --     26.6784               334.7516                26.0443

                     61                     62                     63
                      A                      A                      A
 Frequencies --   3151.1419              3191.6525              3201.0908
 Red. masses --      1.0981                 1.0855                 1.0889
 Frc consts  --      6.4243                 6.5151                 6.5739
 IR Inten    --     11.0743                 0.5389                 7.9681

                     64                     65                     66
                      A                      A                      A
 Frequencies --   3210.2927              3217.5590              3225.3802
 Red. masses --      1.0924                 1.0960                 1.0957
 Frc consts  --      6.6333                 6.6850                 6.7161
 IR Inten    --     23.4377                13.3109                 1.8974

                     67                     68                     69
                      A                      A                      A
 Frequencies --   3252.0097              3265.8511              3286.4800
 Red. masses --      1.0914                 1.0951                 1.1030
 Frc consts  --      6.8007                 6.8815                 7.0195
 IR Inten    --      4.5362                 4.8332                 1.8465

 - Thermochemistry -
 -------------------
 Temperature   298.150 Kelvin.  Pressure   1.00000 Atm.
 Atom     1 has atomic number  6 and mass  12.00000

 Molecular mass:   198.09055 amu.
 Principal axes and moments of inertia in atomic units:
                           1         2         3
     Eigenvalues --  1993.456563396.014094107.15222
           X            0.99975  -0.02216   0.00290
           Y            0.02205   0.99919   0.03363
           Z           -0.00364  -0.03356   0.99943
 This molecule is an asymmetric top.
 Rotational symmetry number  1.
 Warning -- assumption of classical behavior for rotation
           may cause significant error
 Rotational temperatures (Kelvin)      0.04345     0.02550     0.02109
 Rotational constants (GHZ):           0.90533     0.53143     0.43941
 Zero-point vibrational energy     514110.5 (Joules/Mol)
                                  122.87537 (Kcal/Mol)
 Warning -- explicit consideration of  16 degrees of freedom as
           vibrations may cause significant error
 Vibrational temperatures:     26.11    71.66    85.48   133.35   160.53
          (Kelvin)            171.02   279.66   391.41   454.92   539.77
                              567.07   610.89   637.29   791.50   823.88
                              891.96   912.19   930.66   955.68  1019.07
                             1028.84  1042.36  1094.40  1124.46  1165.44
                             1229.64  1243.34  1253.54  1310.31  1340.20
                             1386.30  1397.19  1435.57  1458.46  1474.58
                             1519.94  1536.88  1597.40  1624.60  1718.84
                             1728.57  1737.01  1809.56  1843.68  1881.16
                             1931.53  1962.81  1972.72  1988.10  2022.55
                             2118.53  2162.03  2176.75  2183.25  2235.23
                             2309.52  2373.09  2394.13  3244.13  4429.21
                             4533.79  4592.08  4605.66  4618.90  4629.35
                             4640.60  4678.92  4698.83  4728.51

 Zero-point correction=                           0.195814 (Hartree/Particle)
 Thermal correction to Energy=                    0.208222
 Thermal correction to Enthalpy=                  0.209166
 Thermal correction to Gibbs Free Energy=         0.154829
 Sum of electronic and zero-point Energies=           -643.972295
 Sum of electronic and thermal Energies=              -643.959887
 Sum of electronic and thermal Enthalpies=            -643.958943
 Sum of electronic and thermal Free Energies=         -644.013280

                     E (Thermal)             CV                S
                      KCal/Mol        Cal/Mol-Kelvin    Cal/Mol-Kelvin
 Total                  130.661             47.032            114.362
 Electronic               0.000              0.000              0.000
 Translational            0.889              2.981             41.756
 Rotational               0.889              2.981             31.698
 Vibrational            128.884             41.070             40.909
 Vibration     1          0.593              1.986              6.827
 Vibration     2          0.595              1.978              4.825
 Vibration     3          0.597              1.974              4.477
 Vibration     4          0.602              1.954              3.603
 Vibration     5          0.607              1.940              3.241
 Vibration     6          0.609              1.934              3.119
 Vibration     7          0.635              1.848              2.186
 Vibration     8          0.675              1.725              1.583
 Vibration     9          0.703              1.643              1.330
 Vibration    10          0.746              1.523              1.059
 Vibration    11          0.761              1.483              0.984
 Vibration    12          0.787              1.417              0.877
 Vibration    13          0.803              1.376              0.817
 Vibration    14          0.905              1.139              0.544
 Vibration    15          0.929              1.090              0.499
 Vibration    16          0.980              0.990              0.417

                           ! Non-Optimized Parameters !
 Normal termination of Gaussian 16 at Thu Dec 10 17:57:50 2020.

 ----------------------------------------------------------------------
 # B3LYP/6-311++G(d,p) empiricaldispersion=gd3bj scf=xqc pop=npa geom=c
 heck
 ----------------------------------------------------------------------

 --------------------------------------
 CID_86174800_JID_5566_Energie_neutraal
 --------------------------------------
 Structure from the checkpoint file:  "JID_5566.chk"
 Charge =  0 Multiplicity = 1

 SCF Done:  E(RB3LYP) =  -644.336020691     A.U. after   17 cycles
 Normal termination of Gaussian 16 at Thu Dec 10 18:02:57 2020.

 ----------------------------------------------------------------------
 # B3LYP/6-311++G(d,p) empiricaldispersion=gd3bj scf=xqc pop=npa geom=c
 heck
 ----------------------------------------------------------------------

 ------------------------------------
 CID_86174800_JID_5566_Energie_kation
 ------------------------------------
 Structure from the checkpoint file:  "JID_5566.chk"
 Charge =  1 Multiplicity = 2

 SCF Done:  E(UB3LYP) =  -644.041568119     A.U. after   32 cycles
 Normal termination of Gaussian 16 at Thu Dec 10 18:14:38 2020.
 Gaussian 16:  ES64L-G16RevA.03 25-Dec-2016

 ----------------------------------------------------------------------
 # B3LYP/6-311++G(d,p) empiricaldispersion=gd3bj scf=xqc pop=npa geom=c
 heck
 ----------------------------------------------------------------------

 -----------------------------------
 CID_86174800_JID_5566_Energie_anion
 -----------------------------------
 Structure from the checkpoint file:  "JID_5566.chk"
 Charge = -1 Multiplicity = 2

                         Standard orientation:
 ---------------------------------------------------------------------
 Center     Atomic      Atomic             Coordinates (Angstroms)
 Number     Number       Type             X           Y           Z
 ---------------------------------------------------------------------
      1          6           0        3.528037    0.026003   -0.150785
      2          6           0        2.830870    0.394010   -1.302789
      3          6           0        1.472664    0.701078   -1.232041
      4          6           0        0.807645    0.618523   -0.005440
      5          6           0        1.500003    0.248242    1.149517
      6          6           0        2.861723   -0.040203    1.074044
      7          7           0       -0.581451    0.921033    0.075730
      8          6           0       -1.107406    1.947677    0.832475
      9          6           0       -2.470885    1.977348    0.639038
     10          6           0       -2.790071    0.926967   -0.262517
     11          6           0       -1.615738    0.286193   -0.609280
     12          6           0       -1.420959   -0.967311   -1.389850
     13          7           0       -1.553964   -2.234170   -0.594266
     14          7           0       -0.952075   -2.255649    0.480691
     15          7           0       -0.449290   -2.386126    1.499413
     16          1           0        4.586706   -0.208923   -0.207633
     17          1           0        3.346319    0.455664   -2.256680
     18          1           0        0.925859    1.021316   -2.113225
     19          1           0        0.960691    0.165181    2.086954
     20          1           0        3.397753   -0.333005    1.971789
     21          1           0       -0.450922    2.586240    1.404655
     22          1           0       -3.158412    2.680469    1.088202
     23          1           0       -3.774797    0.644412   -0.610381
     24          1           0       -2.198990   -1.050643   -2.149434
     25          1           0       -0.452046   -0.987481   -1.899447
 ---------------------------------------------------------------------

 SCF Done:  E(UB3LYP) =  -644.327913212     A.U. after   33 cycles
 SCF Done:  E(UB3LYP) =  -644.327913212     a.u. after    1 cycles

 The electronic state is 2-A.
 Alpha  occ. eigenvalues --  -14.32617 -14.25706 -14.22972 -14.22117 -10.10226
 Alpha  occ. eigenvalues --  -10.10087 -10.08884 -10.08545 -10.07030 -10.06900
 Alpha  occ. eigenvalues --  -10.06454 -10.06402 -10.06283 -10.05489 -10.05143
 Alpha  occ. eigenvalues --   -0.99568  -0.88392  -0.83839  -0.75367  -0.69341
 Alpha  occ. eigenvalues --   -0.66397  -0.64206  -0.61893  -0.58297  -0.51567
 Alpha  occ. eigenvalues --   -0.50721  -0.47072  -0.45185  -0.44126  -0.39656
 Alpha  occ. eigenvalues --   -0.39335  -0.38007  -0.36588  -0.35601  -0.34867
 Alpha  occ. eigenvalues --   -0.32744  -0.31986  -0.31798  -0.31399  -0.30077
 Alpha  occ. eigenvalues --   -0.29099  -0.28218  -0.26924  -0.25835  -0.25330
 Alpha  occ. eigenvalues --   -0.24142  -0.17954  -0.16367  -0.15131  -0.13145
 Alpha  occ. eigenvalues --   -0.12158  -0.10859   0.04910
 Alpha virt. eigenvalues --    0.07024   0.07772   0.08013   0.08465   0.08987
 Alpha virt. eigenvalues --    0.09407   0.09542   0.10821   0.10987   0.11271
 Alpha virt. eigenvalues --    0.12587   0.13109   0.13396   0.14302   0.14690

  Beta  occ. eigenvalues --  -14.32365 -14.25708 -14.22647 -14.22157 -10.10122
  Beta  occ. eigenvalues --  -10.09979 -10.08861 -10.08503 -10.07054 -10.06910
  Beta  occ. eigenvalues --  -10.06381 -10.06321 -10.06189 -10.05495 -10.05118
  Beta  occ. eigenvalues --   -0.99085  -0.88325  -0.83601  -0.75231  -0.69231
  Beta  occ. eigenvalues --   -0.66238  -0.64080  -0.61755  -0.58129  -0.51411
  Beta  occ. eigenvalues --   -0.50633  -0.47017  -0.45064  -0.43983  -0.39401
  Beta  occ. eigenvalues --   -0.39143  -0.37429  -0.36399  -0.35373  -0.34710
  Beta  occ. eigenvalues --   -0.32557  -0.31940  -0.31693  -0.30809  -0.29901
  Beta  occ. eigenvalues --   -0.28813  -0.28077  -0.26862  -0.25555  -0.25236
  Beta  occ. eigenvalues --   -0.24063  -0.17321  -0.15990  -0.14818  -0.12910
  Beta  occ. eigenvalues --   -0.11986  -0.10679
  Beta virt. eigenvalues --    0.07400   0.07854   0.08376   0.08660   0.09002
  Beta virt. eigenvalues --    0.09313   0.09700   0.10732   0.11036   0.11286
  Beta virt. eigenvalues --    0.11600   0.12979   0.13289   0.13539   0.14426

 Mulliken charges and spin densities:
               1          2
     1  C    1.004553  -1.363640
     2  C    0.729627  -0.855132
     3  C   -0.478562   0.665267
     4  C   -0.763605   0.213661
     5  C   -0.033299   0.255536
     6  C   -0.651167   0.252558
     7  N    0.735447  -0.098529
     8  C    0.069930  -0.000071
     9  C   -0.033024  -0.342438
    10  C   -0.568812   0.572961
    11  C   -0.638434   0.623903
    12  C    1.010318  -1.948783
    13  N   -0.551193   0.357758
    14  N    0.664637  -0.086366
    15  N   -0.360360   0.057167
    16  H   -0.204679   0.336743
    17  H   -0.868985   1.051120
    18  H   -0.378963   0.566319
    19  H    0.185973  -0.016008
    20  H    0.029042   0.134289
    21  H    0.039814   0.092264
    22  H    0.087795   0.041915
    23  H   -0.087322   0.230417
    24  H   -0.111418   0.299988
    25  H    0.172687  -0.040899
 Sum of Mulliken charges =  -1.00000   1.00000

 Dipole moment (field-independent basis, Debye):
    X=             -2.5605    Y=              2.0995    Z=              3.0965  Tot=              4.5335
 Quadrupole moment (field-independent basis, Debye-Ang):
   XX=           -135.9484   YY=           -120.5017   ZZ=           -117.8973
   XY=             -6.6892   XZ=              9.9521   YZ=              7.8665

 Summary of Natural Population Analysis:

                                       Natural Population
                Natural  -----------------------------------------------
    Atom  No    Charge         Core      Valence    Rydberg      Total
 -----------------------------------------------------------------------
      C    1   -0.09011      0.99956     2.08005    0.01050     3.09011
      C    2   -0.08783      0.99956     2.07772    0.01055     3.08783
      C    3   -0.10878      0.99951     2.09905    0.01021     3.10878
      C    4    0.08618      0.99946     1.90206    0.01230     2.91382
      C    5   -0.08849      0.99951     2.07975    0.00923     3.08849
      C    6   -0.10406      0.99957     2.09455    0.00994     3.10406
      N    7   -0.20397      0.99960     2.69286    0.01150     3.70397
      C    8   -0.00601      0.99956     1.99629    0.01015     3.00601
      C    9   -0.15295      0.99957     2.14364    0.00974     3.15295
      C   10   -0.13304      0.99951     2.12520    0.00833     3.13304
      C   11    0.06664      0.99951     1.92111    0.01274     2.93336
      C   12   -0.10505      0.99954     2.09338    0.01213     3.10505
      N   13   -0.20637      0.99972     2.69227    0.01438     3.70637
      N   14    0.13379      0.99970     2.35129    0.01522     3.36621
      N   15   -0.02124      0.99982     2.50811    0.01331     3.52124
      H   16    0.09841      0.00000     0.40061    0.00098     0.40159
      H   17    0.10208      0.00000     0.39555    0.00236     0.39792
      H   18    0.10687      0.00000     0.39170    0.00143     0.39313
      H   19    0.10761      0.00000     0.39131    0.00108     0.39239
      H   20    0.09821      0.00000     0.40102    0.00077     0.40179
      H   21    0.09996      0.00000     0.39915    0.00089     0.40004
      H   22    0.10044      0.00000     0.39890    0.00065     0.39956
      H   23    0.10244      0.00000     0.39681    0.00075     0.39756
      H   24    0.10374      0.00000     0.39477    0.00149     0.39626
      H   25    0.10151      0.00000     0.39679    0.00170     0.39849
 =======================================================================
   * Total *    0.00000     14.99371    36.82394    0.18235    52.00000

 Normal termination of Gaussian 16 at Thu Dec 10 18:24:11 2020.
