 Gaussian 16, Revision A.03,

 -----------------------------------------------------------
 # opt freq B3LYP/6-31G(d) empiricaldispersion=gd3bj scf=xqc
 -----------------------------------------------------------

 -------------------------------
 CID_137811903_JID_6119_neutraal
 -------------------------------
 Symbolic Z-matrix:
 Charge =  0 Multiplicity = 1

 SCF Done:  E(RB3LYP) =  -1034.81960353     A.U. after   14 cycles
 SCF Done:  E(RB3LYP) =  -1034.82476987     A.U. after   12 cycles
 SCF Done:  E(RB3LYP) =  -1034.81860713     A.U. after   13 cycles
 SCF Done:  E(RB3LYP) =  -1034.82397957     A.U. after   12 cycles
 SCF Done:  E(RB3LYP) =  -1034.82756564     A.U. after    9 cycles
 SCF Done:  E(RB3LYP) =  -1034.82903850     A.U. after   12 cycles
 SCF Done:  E(RB3LYP) =  -1034.82972814     A.U. after   12 cycles
 SCF Done:  E(RB3LYP) =  -1034.83009428     A.U. after   11 cycles
 SCF Done:  E(RB3LYP) =  -1034.83028600     A.U. after   11 cycles
 SCF Done:  E(RB3LYP) =  -1034.83021196     A.U. after   11 cycles
 SCF Done:  E(RB3LYP) =  -1034.83060299     A.U. after    9 cycles
 SCF Done:  E(RB3LYP) =  -1034.83060348     A.U. after    7 cycles
 SCF Done:  E(RB3LYP) =  -1034.83060358     A.U. after    7 cycles
 SCF Done:  E(RB3LYP) =  -1034.83060363     A.U. after    6 cycles
 SCF Done:  E(RB3LYP) =  -1034.83060367     A.U. after    6 cycles
 Optimization completed.
    -- Stationary point found.
 Normal termination of Gaussian 16 at Thu Dec 10 21:30:17 2020.

 --------------------------------------------------------------------
 #N Geom=AllCheck Guess=TCheck SCRF=Check GenChk RB3LYP/6-31G(d) Freq
 --------------------------------------------------------------------

 Structure from the checkpoint file:  "JID_6119.chk"
 -------------------------------
 CID_137811903_JID_6119_neutraal
 -------------------------------
 Charge =  0 Multiplicity = 1

 SCF Done:  E(RB3LYP) =  -1034.83060367     A.U. after    1 cycles

  Exact polarizability: 192.894   4.139 162.345  17.381   8.570 145.504
 Approx polarizability: 265.563   3.353 226.100  33.328  22.756 223.103

                      1                      2                      3
                      A                      A                      A
 Frequencies --     30.4745                39.3536                57.4117
 Red. masses --      3.5272                 2.1279                 2.9497
 Frc consts  --      0.0019                 0.0019                 0.0057
 IR Inten    --      0.6448                 0.0725                 0.1467

                      4                      5                      6
                      A                      A                      A
 Frequencies --     65.4703                67.1135                77.7402
 Red. masses --      3.2520                 2.8567                 3.5219
 Frc consts  --      0.0082                 0.0076                 0.0125
 IR Inten    --      0.6665                 0.2069                 1.3998

                      7                      8                      9
                      A                      A                      A
 Frequencies --     93.3280               129.0050               152.9977
 Red. masses --      3.6304                 3.0804                 3.3111
 Frc consts  --      0.0186                 0.0302                 0.0457
 IR Inten    --      2.9004                 0.5883                 3.0970

                     10                     11                     12
                      A                      A                      A
 Frequencies --    172.8605               200.7829               209.1124
 Red. masses --      2.9271                 2.0438                 1.1546
 Frc consts  --      0.0515                 0.0485                 0.0297
 IR Inten    --      1.9782                 0.2332                 0.7963

                     13                     14                     15
                      A                      A                      A
 Frequencies --    219.9437               238.0897               250.9990
 Red. masses --      2.2643                 2.1921                 1.1624
 Frc consts  --      0.0645                 0.0732                 0.0431
 IR Inten    --      2.3053                 2.0493                 0.1257

                     16                     17                     18
                      A                      A                      A
 Frequencies --    290.6936               303.1134               315.8442
 Red. masses --      2.1087                 3.7727                 2.5333
 Frc consts  --      0.1050                 0.2042                 0.1489
 IR Inten    --      2.0685                 1.6725                 2.4242

                     19                     20                     21
                      A                      A                      A
 Frequencies --    380.3289               384.0706               410.4929
 Red. masses --      2.2919                 2.3395                 2.4118
 Frc consts  --      0.1953                 0.2033                 0.2394
 IR Inten    --      1.2245                 0.1611                 3.3307

                     22                     23                     24
                      A                      A                      A
 Frequencies --    433.0900               445.7124               462.8822
 Red. masses --      2.6875                 2.6421                 3.2466
 Frc consts  --      0.2970                 0.3093                 0.4098
 IR Inten    --      4.4260                 2.1425                 3.9672

                     25                     26                     27
                      A                      A                      A
 Frequencies --    493.2658               525.6218               589.0957
 Red. masses --      3.6556                 2.8912                 2.0293
 Frc consts  --      0.5240                 0.4706                 0.4149
 IR Inten    --      8.2569                10.2913                 0.5141

                     28                     29                     30
                      A                      A                      A
 Frequencies --    626.2389               641.5010               705.6248
 Red. masses --      2.4941                 6.1824                 1.5636
 Frc consts  --      0.5763                 1.4990                 0.4587
 IR Inten    --      3.3118                15.2281                57.4646

                     31                     32                     33
                      A                      A                      A
 Frequencies --    707.9280               762.6086               783.1010
 Red. masses --      1.8456                 1.3584                 1.2170
 Frc consts  --      0.5450                 0.4655                 0.4397
 IR Inten    --     73.2064               231.1012                 3.4897

                     34                     35                     36
                      A                      A                      A
 Frequencies --    809.0497               819.3211               877.0547
 Red. masses --      2.1539                 1.8531                 2.3449
 Frc consts  --      0.8307                 0.7329                 1.0628
 IR Inten    --      5.9939                 5.8331                10.7763

                     37                     38                     39
                      A                      A                      A
 Frequencies --    894.1292               902.4770               912.1543
 Red. masses --      2.2809                 2.1615                 2.1215
 Frc consts  --      1.0744                 1.0373                 1.0400
 IR Inten    --      1.8963                15.4465                 3.1270

                     40                     41                     42
                      A                      A                      A
 Frequencies --    934.7242               946.7888               964.8233
 Red. masses --      2.3352                 1.1676                 2.2192
 Frc consts  --      1.2021                 0.6167                 1.2171
 IR Inten    --      4.1437                 1.1147                14.4480

                     43                     44                     45
                      A                      A                      A
 Frequencies --    977.1701               978.8107               981.1895
 Red. masses --      1.7653                 2.0011                 1.5710
 Frc consts  --      0.9931                 1.1296                 0.8911
 IR Inten    --      4.0881                 6.9258                 1.0540

                     46                     47                     48
                      A                      A                      A
 Frequencies --   1001.0367              1015.0677              1038.0122
 Red. masses --      1.3066                 1.2940                 2.4896
 Frc consts  --      0.7714                 0.7855                 1.5805
 IR Inten    --      3.1060                 4.6115                12.0966

                     49                     50                     51
                      A                      A                      A
 Frequencies --   1059.0018              1085.8911              1095.1002
 Red. masses --      1.8469                 3.1016                 2.5567
 Frc consts  --      1.2203                 2.1548                 1.8065
 IR Inten    --      5.9449                 6.2481                15.2816

                     52                     53                     54
                      A                      A                      A
 Frequencies --   1121.0891              1131.2484              1144.0526
 Red. masses --      2.9803                 2.7541                 2.2243
 Frc consts  --      2.2070                 2.0765                 1.7153
 IR Inten    --     80.7853                 3.5073                11.2181

                     55                     56                     57
                      A                      A                      A
 Frequencies --   1172.2567              1199.5164              1205.9954
 Red. masses --      2.3623                 2.1429                 1.7305
 Frc consts  --      1.9127                 1.8166                 1.4829
 IR Inten    --     10.5141                71.0171                23.0958

                     58                     59                     60
                      A                      A                      A
 Frequencies --   1214.5960              1222.2554              1228.0621
 Red. masses --      1.7185                 1.6190                 1.6547
 Frc consts  --      1.4937                 1.4250                 1.4703
 IR Inten    --     22.4132                21.3726                53.7083

                     61                     62                     63
                      A                      A                      A
 Frequencies --   1246.0707              1280.9009              1304.7318
 Red. masses --      1.5760                 1.2296                 1.2838
 Frc consts  --      1.4418                 1.1887                 1.2877
 IR Inten    --     17.2685                 1.7427                 4.2989

                     64                     65                     66
                      A                      A                      A
 Frequencies --   1314.5645              1325.6770              1339.2671
 Red. masses --      1.2762                 1.3427                 1.2462
 Frc consts  --      1.2994                 1.3903                 1.3169
 IR Inten    --      2.8354                12.8997                11.7684

                     67                     68                     69
                      A                      A                      A
 Frequencies --   1344.9648              1358.8704              1362.5574
 Red. masses --      1.3289                 1.3070                 1.3334
 Frc consts  --      1.4164                 1.4220                 1.4585
 IR Inten    --      0.3706                 0.1732                 0.8916

                     70                     71                     72
                      A                      A                      A
 Frequencies --   1372.2183              1384.4496              1400.4093
 Red. masses --      1.3344                 1.2920                 1.4092
 Frc consts  --      1.4805                 1.4590                 1.6283
 IR Inten    --      3.6048                 2.9932                 5.8765

                     73                     74                     75
                      A                      A                      A
 Frequencies --   1401.7374              1417.2791              1432.9967
 Red. masses --      1.3492                 1.4213                 1.2655
 Frc consts  --      1.5620                 1.6821                 1.5310
 IR Inten    --      3.9440                 5.8806                 6.5468

                     76                     77                     78
                      A                      A                      A
 Frequencies --   1444.7125              1455.2018              1463.4135
 Red. masses --      1.2474                 1.2455                 1.5303
 Frc consts  --      1.5340                 1.5539                 1.9309
 IR Inten    --     11.6874                13.8386               145.4780

                     79                     80                     81
                      A                      A                      A
 Frequencies --   1470.9879              1499.1994              1512.5598
 Red. masses --      2.5012                 1.0886                 1.0884
 Frc consts  --      3.1887                 1.4415                 1.4671
 IR Inten    --     85.2332                 8.7051                30.6430

                     82                     83                     84
                      A                      A                      A
 Frequencies --   1515.1701              1517.6254              1523.5461
 Red. masses --      1.0793                 1.0614                 1.0791
 Frc consts  --      1.4598                 1.4404                 1.4758
 IR Inten    --      5.4696                11.9183                23.8694

                     85                     86                     87
                      A                      A                      A
 Frequencies --   1524.4753              1526.3227              1530.0276
 Red. masses --      1.0888                 1.0849                 1.0927
 Frc consts  --      1.4908                 1.4891                 1.5071
 IR Inten    --      2.0482                 5.8992                13.7984

                     88                     89                     90
                      A                      A                      A
 Frequencies --   1535.5466              1537.3984              1548.6396
 Red. masses --      1.1008                 1.0564                 1.0732
 Frc consts  --      1.5293                 1.4711                 1.5164
 IR Inten    --     21.9083                 4.8595                 6.0209

                     91                     92                     93
                      A                      A                      A
 Frequencies --   1550.5586              1584.7918              2997.5008
 Red. masses --      1.0799                 1.4093                 1.0828
 Frc consts  --      1.5298                 2.0855                 5.7324
 IR Inten    --      9.0330               167.2516                26.6808

                     94                     95                     96
                      A                      A                      A
 Frequencies --   3011.5083              3034.7504              3035.5214
 Red. masses --      1.0811                 1.0638                 1.0722
 Frc consts  --      5.7765                 5.7726                 5.8209
 IR Inten    --     14.4487                11.1400                19.4297

                     97                     98                     99
                      A                      A                      A
 Frequencies --   3043.6020              3044.2940              3049.1127
 Red. masses --      1.0397                 1.0671                 1.0665
 Frc consts  --      5.6747                 5.8267                 5.8422
 IR Inten    --     15.4561                21.8882                92.8035

                    100                    101                    102
                      A                      A                      A
 Frequencies --   3051.4022              3054.5112              3070.6977
 Red. masses --      1.0384                 1.0379                 1.0637
 Frc consts  --      5.6963                 5.7054                 5.9095
 IR Inten    --     33.0469                 8.8796                44.9803

                    103                    104                    105
                      A                      A                      A
 Frequencies --   3080.8716              3090.0305              3101.1019
 Red. masses --      1.1023                 1.0981                 1.0976
 Frc consts  --      6.1643                 6.1775                 6.2191
 IR Inten    --     16.5461                33.0797                14.4805

                    106                    107                    108
                      A                      A                      A
 Frequencies --   3107.7511              3113.8910              3114.0664
 Red. masses --      1.0990                 1.1007                 1.0996
 Frc consts  --      6.2540                 6.2880                 6.2826
 IR Inten    --      4.1673                 2.2939               110.2894

                    109                    110                    111
                      A                      A                      A
 Frequencies --   3116.6195              3127.4073              3140.2982
 Red. masses --      1.1042                 1.1023                 1.0992
 Frc consts  --      6.3193                 6.3523                 6.3867
 IR Inten    --     69.2664                30.8507                11.9055

                    112                    113                    114
                      A                      A                      A
 Frequencies --   3141.2220              3142.4509              3173.0267
 Red. masses --      1.0996                 1.0929                 1.0831
 Frc consts  --      6.3925                 6.3590                 6.4250
 IR Inten    --     29.2106                21.4154                 6.0110

                    115                    116                    117
                      A                      A                      A
 Frequencies --   3555.8762              3569.5975              3572.9529
 Red. masses --      1.0761                 1.0743                 1.0761
 Frc consts  --      8.0168                 8.0654                 8.0937
 IR Inten    --      6.3394                51.3264                 9.5862

 - Thermochemistry -
 -------------------
 Temperature   298.150 Kelvin.  Pressure   1.00000 Atm.
 Atom     1 has atomic number  6 and mass  12.00000

 Molecular mass:   243.17692 amu.
 Principal axes and moments of inertia in atomic units:
                           1         2         3
     Eigenvalues --  3294.232245507.041586809.93947
           X            0.99907  -0.04201  -0.01016
           Y            0.04191   0.99907  -0.00998
           Z            0.01057   0.00954   0.99990
 This molecule is an asymmetric top.
 Rotational symmetry number  1.
 Warning -- assumption of classical behavior for rotation
           may cause significant error
 Rotational temperatures (Kelvin)      0.02629     0.01573     0.01272
 Rotational constants (GHZ):           0.54785     0.32772     0.26502
 Zero-point vibrational energy     979524.5 (Joules/Mol)
                                  234.11197 (Kcal/Mol)
 Warning -- explicit consideration of  27 degrees of freedom as
           vibrations may cause significant error
 Vibrational temperatures:     43.85    56.62    82.60    94.20    96.56
          (Kelvin)            111.85   134.28   185.61   220.13   248.71
                              288.88   300.87   316.45   342.56   361.13
                              418.24   436.11   454.43   547.21   552.59
                              590.61   623.12   641.28   665.98   709.70
                              756.25   847.58   901.02   922.98  1015.24
                             1018.55  1097.22  1126.71  1164.04  1178.82
                             1261.89  1286.45  1298.46  1312.39  1344.86
                             1362.22  1388.17  1405.93  1408.29  1411.71
                             1440.27  1460.46  1493.47  1523.67  1562.36
                             1575.60  1613.00  1627.61  1646.04  1686.62
                             1725.84  1735.16  1747.53  1758.55  1766.91
                             1792.82  1842.93  1877.22  1891.37  1907.35
                             1926.91  1935.10  1955.11  1960.42  1974.32
                             1991.91  2014.88  2016.79  2039.15  2061.76
                             2078.62  2093.71  2105.53  2116.42  2157.01
                             2176.24  2179.99  2183.52  2192.04  2193.38
                             2196.04  2201.37  2209.31  2211.97  2228.15
                             2230.91  2280.16  4312.74  4332.89  4366.33
                             4367.44  4379.06  4380.06  4386.99  4390.29
                             4394.76  4418.05  4432.69  4445.86  4461.79
                             4471.36  4480.19  4480.45  4484.12  4499.64
                             4518.19  4519.52  4521.29  4565.28  5116.11
                             5135.85  5140.68

 Zero-point correction=                           0.373081 (Hartree/Particle)
 Thermal correction to Energy=                    0.391612
 Thermal correction to Enthalpy=                  0.392556
 Thermal correction to Gibbs Free Energy=         0.325509
 Sum of electronic and zero-point Energies=          -1034.457522
 Sum of electronic and thermal Energies=             -1034.438992
 Sum of electronic and thermal Enthalpies=           -1034.438047
 Sum of electronic and thermal Free Energies=        -1034.505095

                     E (Thermal)             CV                S
                      KCal/Mol        Cal/Mol-Kelvin    Cal/Mol-Kelvin
 Total                  245.740             69.342            141.114
 Electronic               0.000              0.000              0.000
 Translational            0.889              2.981             42.367
 Rotational               0.889              2.981             33.179
 Vibrational            243.963             63.380             65.567
 Vibration     1          0.594              1.984              5.798
 Vibration     2          0.594              1.981              5.291
 Vibration     3          0.596              1.975              4.544
 Vibration     4          0.597              1.971              4.285
 Vibration     5          0.598              1.970              4.236
 Vibration     6          0.599              1.964              3.947
 Vibration     7          0.602              1.954              3.589
 Vibration     8          0.611              1.924              2.961
 Vibration     9          0.619              1.899              2.635
 Vibration    10          0.626              1.876              2.404
 Vibration    11          0.638              1.839              2.126
 Vibration    12          0.642              1.827              2.051
 Vibration    13          0.647              1.811              1.960
 Vibration    14          0.656              1.782              1.817
 Vibration    15          0.663              1.761              1.724
 Vibration    16          0.687              1.691              1.470
 Vibration    17          0.695              1.668              1.400
 Vibration    18          0.703              1.643              1.332
 Vibration    19          0.750              1.512              1.038
 Vibration    20          0.753              1.504              1.023
 Vibration    21          0.775              1.447              0.925
 Vibration    22          0.794              1.398              0.849
 Vibration    23          0.805              1.370              0.809
 Vibration    24          0.821              1.332              0.758
 Vibration    25          0.849              1.265              0.675
 Vibration    26          0.881              1.193              0.597
 Vibration    27          0.946              1.055              0.469

 Optimization completed.
    -- Stationary point found.
 Normal termination of Gaussian 16 at Thu Dec 10 21:46:22 2020.

 ----------------------------------------------------------------------
 # B3LYP/6-311++G(d,p) empiricaldispersion=gd3bj scf=xqc pop=npa geom=c
 heck
 ----------------------------------------------------------------------

 ---------------------------------------
 CID_137811903_JID_6119_Energie_neutraal
 ---------------------------------------
 Structure from the checkpoint file:  "JID_6119.chk"
 Charge =  0 Multiplicity = 1

 SCF Done:  E(RB3LYP) =  -1035.04007425     A.U. after   15 cycles
 Normal termination of Gaussian 16 at Thu Dec 10 21:54:51 2020.

 ----------------------------------------------------------------------
 # B3LYP/6-311++G(d,p) empiricaldispersion=gd3bj scf=xqc pop=npa geom=c
 heck
 ----------------------------------------------------------------------

 -------------------------------------
 CID_137811903_JID_6119_Energie_kation
 -------------------------------------
 Structure from the checkpoint file:  "JID_6119.chk"
 Charge =  1 Multiplicity = 2

 SCF Done:  E(UB3LYP) =  -1034.76531052     A.U. after   25 cycles
 Normal termination of Gaussian 16 at Thu Dec 10 22:14:41 2020.
 Gaussian 16:  ES64L-G16RevA.03 25-Dec-2016

 ----------------------------------------------------------------------
 # B3LYP/6-311++G(d,p) empiricaldispersion=gd3bj scf=xqc pop=npa geom=c
 heck
 ----------------------------------------------------------------------

 ------------------------------------
 CID_137811903_JID_6119_Energie_anion
 ------------------------------------
 Structure from the checkpoint file:  "JID_6119.chk"
 Charge = -1 Multiplicity = 2

                         Standard orientation:
 ---------------------------------------------------------------------
 Center     Atomic      Atomic             Coordinates (Angstroms)
 Number     Number       Type             X           Y           Z
 ---------------------------------------------------------------------
      1          6           0       -0.373145    3.381592    0.096063
      2          6           0       -1.421231    2.265812   -0.026780
      3          6           0       -1.605497    1.873444   -1.498637
      4          6           0       -1.049458    1.045288    0.849368
      5          6           0       -0.875066    1.399589    2.329760
      6          7           0       -2.068330   -0.015230    0.711559
      7          6           0       -1.948481   -1.128905   -0.082189
      8         16           0       -3.225262   -1.689610   -1.024244
      9          7           0       -0.752802   -1.793681   -0.065866
     10          7           0        0.011882   -1.957868    1.138720
     11          6           0        1.462914   -1.908017    0.931099
     12          6           0        2.122370   -0.644239    0.367829
     13          6           0        3.662525   -0.708894    0.448726
     14          6           0        4.176830    0.340660   -0.571289
     15          6           0        2.953180    0.699627   -1.460727
     16          6           0        1.888982   -0.358156   -1.125329
     17          1           0        0.623137    3.008498   -0.176080
     18          1           0       -0.315510    3.797065    1.106297
     19          1           0       -0.613347    4.203525   -0.586528
     20          1           0       -2.380524    2.655225    0.351000
     21          1           0       -0.664704    1.498185   -1.920003
     22          1           0       -2.363997    1.097757   -1.634342
     23          1           0       -1.903857    2.747360   -2.087986
     24          1           0       -0.117120    0.637096    0.461725
     25          1           0       -1.781954    1.872875    2.724535
     26          1           0       -0.688587    0.501983    2.928728
     27          1           0       -0.038466    2.086730    2.482824
     28          1           0       -3.017406    0.339487    0.673345
     29          1           0       -0.839678   -2.683041   -0.546300
     30          1           0       -0.304958   -1.254828    1.798900
     31          1           0        1.885992   -2.130684    1.918791
     32          1           0        1.725807   -2.759275    0.288234
     33          1           0        1.791257    0.224202    0.957206
     34          1           0        4.034706   -0.537063    1.464307
     35          1           0        3.991020   -1.715018    0.155076
     36          1           0        5.000838   -0.064655   -1.166851
     37          1           0        4.565300    1.229415   -0.063506
     38          1           0        3.197423    0.727979   -2.527169
     39          1           0        2.574449    1.695247   -1.196273
     40          1           0        2.073963   -1.281463   -1.692115
     41          1           0        0.871628   -0.042202   -1.364156
 ---------------------------------------------------------------------

 SCF Done:  E(UB3LYP) =  -1035.03181152     A.U. after   33 cycles
 SCF Done:  E(UB3LYP) =  -1035.03181152     a.u. after    1 cycles

 The electronic state is 2-A.
 Alpha  occ. eigenvalues --  -88.69538 -14.27614 -14.25815 -14.24833 -10.18594
 Alpha  occ. eigenvalues --  -10.12560 -10.11529 -10.09063 -10.08476 -10.07594
 Alpha  occ. eigenvalues --  -10.07487 -10.07461 -10.07428 -10.07235 -10.06722
 Alpha  occ. eigenvalues --  -10.06569  -7.78306  -5.74713  -5.74142  -5.73842
 Alpha  occ. eigenvalues --   -0.92633  -0.85251  -0.76990  -0.74454  -0.71662
 Alpha  occ. eigenvalues --   -0.66070  -0.64402  -0.62095  -0.61218  -0.59244
 Alpha  occ. eigenvalues --   -0.56142  -0.54454  -0.53442  -0.48542  -0.48199
 Alpha  occ. eigenvalues --   -0.47659  -0.45049  -0.41795  -0.39613  -0.39463
 Alpha  occ. eigenvalues --   -0.38344  -0.36999  -0.35962  -0.35345  -0.34027
 Alpha  occ. eigenvalues --   -0.33685  -0.32614  -0.31604  -0.30563  -0.30244
 Alpha  occ. eigenvalues --   -0.29786  -0.28675  -0.27998  -0.27449  -0.27208
 Alpha  occ. eigenvalues --   -0.25528  -0.25158  -0.25013  -0.24514  -0.24107
 Alpha  occ. eigenvalues --   -0.23663  -0.23381  -0.22838  -0.20709  -0.14648
 Alpha  occ. eigenvalues --   -0.12660  -0.11483   0.03926
 Alpha virt. eigenvalues --    0.05901   0.06451   0.06673   0.07061   0.07986
 Alpha virt. eigenvalues --    0.08433   0.08770   0.09053   0.09837   0.10385
 Alpha virt. eigenvalues --    0.10927   0.11094   0.11274   0.11486   0.12420

  Beta  occ. eigenvalues --  -88.69535 -14.27586 -14.25797 -14.24835 -10.18483
  Beta  occ. eigenvalues --  -10.12551 -10.11520 -10.09051 -10.08466 -10.07574
  Beta  occ. eigenvalues --  -10.07477 -10.07455 -10.07409 -10.07186 -10.06683
  Beta  occ. eigenvalues --  -10.06562  -7.78303  -5.74715  -5.74128  -5.73840
  Beta  occ. eigenvalues --   -0.92566  -0.85203  -0.76944  -0.74416  -0.71629
  Beta  occ. eigenvalues --   -0.66017  -0.64365  -0.62060  -0.61154  -0.59193
  Beta  occ. eigenvalues --   -0.56103  -0.54387  -0.53376  -0.48485  -0.48160
  Beta  occ. eigenvalues --   -0.47602  -0.44998  -0.41760  -0.39575  -0.39411
  Beta  occ. eigenvalues --   -0.38305  -0.36926  -0.35918  -0.35293  -0.33995
  Beta  occ. eigenvalues --   -0.33636  -0.32587  -0.31519  -0.30503  -0.30196
  Beta  occ. eigenvalues --   -0.29744  -0.28603  -0.27926  -0.27362  -0.27167
  Beta  occ. eigenvalues --   -0.25486  -0.25121  -0.24973  -0.24474  -0.24072
  Beta  occ. eigenvalues --   -0.23626  -0.23353  -0.22809  -0.20597  -0.14588
  Beta  occ. eigenvalues --   -0.12608  -0.11414
  Beta virt. eigenvalues --    0.06063   0.06550   0.07117   0.07231   0.07508
  Beta virt. eigenvalues --    0.08440   0.08663   0.09175   0.09363   0.10042
  Beta virt. eigenvalues --    0.10650   0.11087   0.11371   0.11564   0.11742

 Mulliken charges and spin densities:
               1          2
     1  C    0.879558  -1.585423
     2  C   -1.153029   1.442049
     3  C   -0.387608  -0.110521
     4  C   -0.985061   0.476803
     5  C    1.659173  -2.206344
     6  N    0.016898   0.117011
     7  C    0.004409   0.255691
     8  S   -0.913031   0.063725
     9  N   -0.151817   0.012029
    10  N    0.054169  -0.021425
    11  C   -0.426452  -0.209734
    12  C    0.090353   0.290089
    13  C   -0.621686   0.095116
    14  C    0.749819  -1.179831
    15  C   -0.811989   0.338046
    16  C    0.147686  -0.176827
    17  H   -0.387840   0.535433
    18  H   -0.168667   0.310972
    19  H   -0.187526   0.338099
    20  H   -0.188633   0.378067
    21  H   -0.011384   0.162170
    22  H    0.157935  -0.045128
    23  H   -0.016704   0.179007
    24  H    1.513576  -1.336290
    25  H   -0.408947   0.572983
    26  H   -0.182757   0.300322
    27  H   -0.426934   0.588349
    28  H    0.195386   0.084903
    29  H    0.278003   0.023594
    30  H    0.271407  -0.014202
    31  H   -0.141443   0.333313
    32  H    0.111497   0.034733
    33  H    0.344970  -0.159660
    34  H   -0.388068   0.555011
    35  H    0.112256   0.018642
    36  H    0.015087   0.118983
    37  H   -0.265936   0.441259
    38  H   -0.042948   0.198504
    39  H    0.213694  -0.113295
    40  H    0.072130   0.100633
    41  H    0.380455  -0.206856
 Sum of Mulliken charges =  -1.00000   1.00000

 Dipole moment (field-independent basis, Debye):
    X=              0.3191    Y=             -3.8170    Z=             -3.3786  Tot=              5.1075
 Quadrupole moment (field-independent basis, Debye-Ang):
   XX=           -184.9832   YY=           -166.8657   ZZ=           -156.4018
   XY=            -11.5993   XZ=             -8.7640   YZ=             -8.2799

 Summary of Natural Population Analysis:

                                       Natural Population
                Natural  -----------------------------------------------
    Atom  No    Charge         Core      Valence    Rydberg      Total
 -----------------------------------------------------------------------
      C    1   -0.28485      0.99964     2.27894    0.00627     3.28485
      C    2   -0.11115      0.99959     2.10165    0.00992     3.11115
      C    3   -0.28992      0.99964     2.28451    0.00577     3.28992
      C    4   -0.02567      0.99954     2.01205    0.01407     3.02567
      C    5   -0.28600      0.99964     2.27963    0.00673     3.28600
      N    6   -0.32715      0.99964     2.81424    0.01327     3.82715
      C    7    0.16346      0.99966     1.81583    0.02106     2.83654
      S    8   -0.15174      4.99957     3.13936    0.01280     8.15174
      N    9   -0.23028      0.99961     2.71869    0.01198     3.73028
      N   10   -0.24118      0.99975     2.72919    0.01225     3.74118
      C   11   -0.08401      0.99959     2.07175    0.01267     3.08401
      C   12   -0.12707      0.99958     2.11705    0.01044     3.12707
      C   13   -0.18626      0.99963     2.17807    0.00857     3.18626
      C   14   -0.19253      0.99965     2.18540    0.00749     3.19253
      C   15   -0.19228      0.99964     2.18491    0.00773     3.19228
      C   16   -0.19119      0.99961     2.18429    0.00729     3.19119
      H   17    0.09802      0.00000     0.40034    0.00164     0.40198
      H   18    0.10401      0.00000     0.39471    0.00128     0.39599
      H   19    0.10119      0.00000     0.39776    0.00105     0.39881
      H   20    0.09227      0.00000     0.40597    0.00176     0.40773
      H   21    0.09683      0.00000     0.40221    0.00097     0.40317
      H   22    0.10960      0.00000     0.38934    0.00106     0.39040
      H   23    0.09883      0.00000     0.40048    0.00069     0.40117
      H   24    0.10308      0.00000     0.39202    0.00491     0.39692
      H   25    0.10266      0.00000     0.39578    0.00156     0.39734
      H   26    0.09756      0.00000     0.40081    0.00163     0.40244
      H   27    0.10747      0.00000     0.39084    0.00168     0.39253
      H   28    0.19841      0.00000     0.29970    0.00189     0.30159
      H   29    0.19462      0.00000     0.30343    0.00195     0.30538
      H   30    0.17917      0.00000     0.31653    0.00430     0.32083
      H   31    0.10148      0.00000     0.39742    0.00109     0.39852
      H   32    0.08984      0.00000     0.40899    0.00117     0.41016
      H   33    0.09735      0.00000     0.39965    0.00301     0.40265
      H   34    0.10443      0.00000     0.39420    0.00137     0.39557
      H   35    0.09203      0.00000     0.40680    0.00117     0.40797
      H   36    0.09536      0.00000     0.40373    0.00092     0.40464
      H   37    0.10130      0.00000     0.39745    0.00125     0.39870
      H   38    0.09754      0.00000     0.40163    0.00082     0.40246
      H   39    0.09700      0.00000     0.40134    0.00166     0.40300
      H   40    0.09246      0.00000     0.40642    0.00112     0.40754
      H   41    0.10534      0.00000     0.39323    0.00144     0.39466
 =======================================================================
   * Total *   -0.00000     19.99398    46.79633    0.20969    67.00000

 Normal termination of Gaussian 16 at Thu Dec 10 22:37:46 2020.
