 Gaussian 16, Revision A.03,

 ----------------------------------------------------------------------
 # opt=(cartesian,calcfc) freq B3LYP/6-31G(d) empiricaldispersion=gd3bj
  scf=xqc
 ----------------------------------------------------------------------

 ------------------------------
 CID_135349675_JID_317_neutraal
 ------------------------------
 Symbolic Z-matrix:
 Charge =  0 Multiplicity = 1

 SCF Done:  E(RB3LYP) =  -457.501077139     A.U. after   15 cycles
 SCF Done:  E(RB3LYP) =  -457.501540325     A.U. after   12 cycles
 SCF Done:  E(RB3LYP) =  -457.501620477     A.U. after   12 cycles
 SCF Done:  E(RB3LYP) =  -457.501243310     A.U. after   13 cycles
 SCF Done:  E(RB3LYP) =  -457.501119336     A.U. after   13 cycles
 SCF Done:  E(RB3LYP) =  -457.501715679     A.U. after   12 cycles
 SCF Done:  E(RB3LYP) =  -457.501742269     A.U. after   12 cycles
 SCF Done:  E(RB3LYP) =  -457.501746498     A.U. after   11 cycles
 SCF Done:  E(RB3LYP) =  -457.501593803     A.U. after   12 cycles
 SCF Done:  E(RB3LYP) =  -457.501749165     A.U. after   11 cycles
 SCF Done:  E(RB3LYP) =  -457.501754604     A.U. after    9 cycles
 SCF Done:  E(RB3LYP) =  -457.501754743     A.U. after    8 cycles
 SCF Done:  E(RB3LYP) =  -457.501754115     A.U. after    9 cycles
 SCF Done:  E(RB3LYP) =  -457.501754823     A.U. after    8 cycles
 SCF Done:  E(RB3LYP) =  -457.501754853     A.U. after    8 cycles
 SCF Done:  E(RB3LYP) =  -457.501754861     A.U. after    8 cycles
 Optimization completed.
    -- Stationary point found.
 Normal termination of Gaussian 16 at Mon Jan  4 08:56:33 2021.

 --------------------------------------------------------------------
 #N Geom=AllCheck Guess=TCheck SCRF=Check GenChk RB3LYP/6-31G(d) Freq
 --------------------------------------------------------------------

 Structure from the checkpoint file:  "JID_317.chk"
 ------------------------------
 CID_135349675_JID_317_neutraal
 ------------------------------
 Charge =  0 Multiplicity = 1

 SCF Done:  E(RB3LYP) =  -457.501754861     A.U. after    1 cycles

  Exact polarizability:  84.606   4.433  89.533   3.158   4.395  65.902
 Approx polarizability: 126.030  15.542 125.705   7.018  10.145 104.713

                      1                      2                      3
                      A                      A                      A
 Frequencies --     60.0291                75.2447               123.2721
 Red. masses --      5.3670                 5.6059                 4.8098
 Frc consts  --      0.0114                 0.0187                 0.0431
 IR Inten    --      5.3080                 7.7603                 6.8938

                      4                      5                      6
                      A                      A                      A
 Frequencies --    166.0919               184.9308               237.1716
 Red. masses --      2.8993                 1.2489                 3.5251
 Frc consts  --      0.0471                 0.0252                 0.1168
 IR Inten    --      2.2979                 0.1087                 5.2376

                      7                      8                      9
                      A                      A                      A
 Frequencies --    282.0619               324.1037               384.0525
 Red. masses --      2.7528                 3.4005                 2.5567
 Frc consts  --      0.1290                 0.2105                 0.2222
 IR Inten    --      0.8062                 0.2602                 2.0210

                     10                     11                     12
                      A                      A                      A
 Frequencies --    390.3413               429.4371               454.4915
 Red. masses --      3.6229                 3.2060                 2.7019
 Frc consts  --      0.3252                 0.3483                 0.3288
 IR Inten    --      4.3631                 5.2027                21.1795

                     13                     14                     15
                      A                      A                      A
 Frequencies --    484.4299               494.8143               583.5528
 Red. masses --      3.1677                 1.3783                 1.3541
 Frc consts  --      0.4380                 0.1988                 0.2717
 IR Inten    --     40.9241                91.2426                98.0341

                     16                     17                     18
                      A                      A                      A
 Frequencies --    638.3049               718.3436               754.8097
 Red. masses --      3.2186                 3.1265                 4.9620
 Frc consts  --      0.7726                 0.9506                 1.6657
 IR Inten    --     17.0911                13.7771                22.3946

                     19                     20                     21
                      A                      A                      A
 Frequencies --    829.4128               854.4903               906.3671
 Red. masses --      2.6904                 2.5565                 1.4460
 Frc consts  --      1.0905                 1.0998                 0.6999
 IR Inten    --     11.3967                25.8359                 2.6506

                     22                     23                     24
                      A                      A                      A
 Frequencies --    933.2189               973.3946               979.4231
 Red. masses --      2.0002                 2.3883                 2.4425
 Frc consts  --      1.0263                 1.3333                 1.3804
 IR Inten    --      0.3669                 2.2401                 0.8255

                     25                     26                     27
                      A                      A                      A
 Frequencies --   1047.6014              1075.7130              1095.8388
 Red. masses --      1.3178                 1.6585                 1.7490
 Frc consts  --      0.8521                 1.1307                 1.2375
 IR Inten    --      5.5232                 1.2484                 3.0032

                     28                     29                     30
                      A                      A                      A
 Frequencies --   1131.7421              1147.0833              1208.7635
 Red. masses --      1.7400                 1.7549                 1.6009
 Frc consts  --      1.3131                 1.3604                 1.3781
 IR Inten    --      4.7724                14.2622                 2.2539

                     31                     32                     33
                      A                      A                      A
 Frequencies --   1214.4480              1276.1063              1310.3546
 Red. masses --      1.5938                 1.4426                 1.5346
 Frc consts  --      1.3850                 1.3841                 1.5525
 IR Inten    --      2.1400                25.3053                 3.6108

                     34                     35                     36
                      A                      A                      A
 Frequencies --   1358.4792              1389.2966              1430.8221
 Red. masses --      2.0093                 2.3775                 1.4798
 Frc consts  --      2.1847                 2.7037                 1.7849
 IR Inten    --      3.2348               106.3599                41.6832

                     37                     38                     39
                      A                      A                      A
 Frequencies --   1455.3954              1489.8084              1502.0309
 Red. masses --      1.5172                 1.1048                 1.3476
 Frc consts  --      1.8935                 1.4447                 1.7912
 IR Inten    --     23.9924                13.2772                11.0191

                     40                     41                     42
                      A                      A                      A
 Frequencies --   1523.5534              1534.1342              1665.8089
 Red. masses --      1.0488                 1.0782                 1.2294
 Frc consts  --      1.4343                 1.4952                 2.0100
 IR Inten    --      3.9764                14.5154               107.7823

                     43                     44                     45
                      A                      A                      A
 Frequencies --   1789.8585              2362.3781              3053.0557
 Red. masses --      7.6641                12.5885                 1.0358
 Frc consts  --     14.4660                41.3925                 5.6883
 IR Inten    --    227.5791                 6.9419                22.1979

                     46                     47                     48
                      A                      A                      A
 Frequencies --   3068.0502              3112.9250              3117.7885
 Red. masses --      1.0637                 1.1006                 1.1011
 Frc consts  --      5.8991                 6.2838                 6.3064
 IR Inten    --      3.5159                13.7676                13.3755

                     49                     50                     51
                      A                      A                      A
 Frequencies --   3122.9820              3150.1541              3176.8578
 Red. masses --      1.1001                 1.0579                 1.0878
 Frc consts  --      6.3218                 6.1852                 6.4684
 IR Inten    --     15.9479                12.6151                 7.3553

                     52                     53                     54
                      A                      A                      A
 Frequencies --   3250.4491              3561.6386              3674.8241
 Red. masses --      1.1149                 1.0466                 1.1024
 Frc consts  --      6.9404                 7.8220                 8.7709
 IR Inten    --      1.0974                30.6771                53.9869

 - Thermochemistry -
 -------------------
 Temperature   298.150 Kelvin.  Pressure   1.00000 Atm.
 Atom     1 has atomic number  6 and mass  12.00000

 Molecular mass:   138.07931 amu.
 Principal axes and moments of inertia in atomic units:
                           1         2         3
     Eigenvalues --  1170.359881345.659952102.16176
           X            0.98136  -0.19220   0.00003
           Y            0.19220   0.98133  -0.00676
           Z            0.00127   0.00664   0.99998
 This molecule is an asymmetric top.
 Rotational symmetry number  1.
 Warning -- assumption of classical behavior for rotation
           may cause significant error
 Rotational temperatures (Kelvin)      0.07401     0.06437     0.04120
 Rotational constants (GHZ):           1.54204     1.34116     0.85852
 Zero-point vibrational energy     434003.6 (Joules/Mol)
                                  103.72934 (Kcal/Mol)
 Warning -- explicit consideration of  15 degrees of freedom as
           vibrations may cause significant error
 Vibrational temperatures:     86.37   108.26   177.36   238.97   266.07
          (Kelvin)            341.24   405.82   466.31   552.57   561.61
                              617.86   653.91   696.99   711.93   839.60
                              918.38  1033.54  1086.00  1193.34  1229.42
                             1304.06  1342.69  1400.50  1409.17  1507.26
                             1547.71  1576.67  1628.32  1650.40  1739.14
                             1747.32  1836.03  1885.31  1954.55  1998.89
                             2058.63  2093.99  2143.50  2161.09  2192.05
                             2207.28  2396.73  2575.21  3398.94  4392.67
                             4414.24  4478.80  4485.80  4493.27  4532.37
                             4570.79  4676.67  5124.40  5287.25

 Zero-point correction=                           0.165303 (Hartree/Particle)
 Thermal correction to Energy=                    0.175669
 Thermal correction to Enthalpy=                  0.176613
 Thermal correction to Gibbs Free Energy=         0.129577
 Sum of electronic and zero-point Energies=           -457.336452
 Sum of electronic and thermal Energies=              -457.326086
 Sum of electronic and thermal Enthalpies=            -457.325142
 Sum of electronic and thermal Free Energies=         -457.372178

                     E (Thermal)             CV                S
                      KCal/Mol        Cal/Mol-Kelvin    Cal/Mol-Kelvin
 Total                  110.234             38.336             98.996
 Electronic               0.000              0.000              0.000
 Translational            0.889              2.981             40.680
 Rotational               0.889              2.981             29.583
 Vibrational            108.456             32.375             28.733
 Vibration     1          0.597              1.973              4.456
 Vibration     2          0.599              1.966              4.011
 Vibration     3          0.610              1.930              3.048
 Vibration     4          0.624              1.884              2.479
 Vibration     5          0.631              1.860              2.278
 Vibration     6          0.656              1.784              1.824
 Vibration     7          0.681              1.707              1.521
 Vibration     8          0.709              1.627              1.289
 Vibration     9          0.753              1.504              1.023
 Vibration    10          0.758              1.491              0.999
 Vibration    11          0.791              1.406              0.860
 Vibration    12          0.813              1.351              0.782
 Vibration    13          0.841              1.285              0.698
 Vibration    14          0.850              1.262              0.671
 Vibration    15          0.940              1.067              0.479

 Optimization completed.
    -- Stationary point found.
 Normal termination of Gaussian 16 at Mon Jan  4 09:00:14 2021.

 ----------------------------------------------------------------------
 # B3LYP/6-311++G(d,p) empiricaldispersion=gd3bj scf=xqc pop=npa geom=c
 heck
 ----------------------------------------------------------------------

 --------------------------------------
 CID_135349675_JID_317_Energie_neutraal
 --------------------------------------
 Structure from the checkpoint file:  "JID_317.chk"
 Charge =  0 Multiplicity = 1

 SCF Done:  E(RB3LYP) =  -457.639371800     A.U. after   14 cycles
 Normal termination of Gaussian 16 at Mon Jan  4 09:01:25 2021.

 ----------------------------------------------------------------------
 # B3LYP/6-311++G(d,p) empiricaldispersion=gd3bj scf=xqc pop=npa geom=c
 heck
 ----------------------------------------------------------------------

 ------------------------------------
 CID_135349675_JID_317_Energie_kation
 ------------------------------------
 Structure from the checkpoint file:  "JID_317.chk"
 Charge =  1 Multiplicity = 2

 SCF Done:  E(UB3LYP) =  -457.285582328     A.U. after   26 cycles
 Normal termination of Gaussian 16 at Mon Jan  4 09:04:12 2021.
 Gaussian 16:  ES64L-G16RevA.03 25-Dec-2016

 ----------------------------------------------------------------------
 # B3LYP/6-311++G(d,p) empiricaldispersion=gd3bj scf=xqc pop=npa geom=c
 heck
 ----------------------------------------------------------------------

 -----------------------------------
 CID_135349675_JID_317_Energie_anion
 -----------------------------------
 Structure from the checkpoint file:  "JID_317.chk"
 Charge = -1 Multiplicity = 2

                         Standard orientation:
 ---------------------------------------------------------------------
 Center     Atomic      Atomic             Coordinates (Angstroms)
 Number     Number       Type             X           Y           Z
 ---------------------------------------------------------------------
      1          6           0       -1.138116    2.187846   -0.741102
      2          6           0        0.194017    1.521623   -0.475860
      3          6           0        0.869172    1.582754    0.856247
      4          6           0        0.308331    0.254169    0.375426
      5          6           0       -0.924151   -0.291023    1.093731
      6          6           0       -1.851231   -0.992800    0.197590
      7          7           0       -2.534311   -1.573381   -0.540511
      8          6           0        1.346449   -0.723611   -0.120717
      9          8           0        2.464376   -0.349378   -0.452291
     10          7           0        0.985775   -2.048748   -0.155847
     11          1           0       -1.708694    1.650098   -1.506244
     12          1           0       -0.978378    3.212130   -1.096136
     13          1           0       -1.758572    2.252003    0.158924
     14          1           0        0.873757    1.510551   -1.324276
     15          1           0        1.950542    1.656246    0.882419
     16          1           0        0.341520    2.064831    1.675783
     17          1           0       -0.620870   -0.984772    1.887271
     18          1           0       -1.470302    0.521761    1.580768
     19          1           0        0.015267   -2.318202   -0.253624
     20          1           0        1.653646   -2.648476   -0.623952
 ---------------------------------------------------------------------

 SCF Done:  E(UB3LYP) =  -457.627034121     A.U. after   32 cycles

 The electronic state is 2-A.
 Alpha  occ. eigenvalues --  -18.99023 -14.23190 -14.21716 -10.17855 -10.11743
 Alpha  occ. eigenvalues --  -10.11709 -10.10666 -10.09026 -10.07657 -10.06419
 Alpha  occ. eigenvalues --   -0.94238  -0.81830  -0.80513  -0.78306  -0.67523
 Alpha  occ. eigenvalues --   -0.62001  -0.55230  -0.48766  -0.46134  -0.45034
 Alpha  occ. eigenvalues --   -0.40522  -0.40240  -0.36796  -0.35148  -0.33848
 Alpha  occ. eigenvalues --   -0.31541  -0.31111  -0.30290  -0.29077  -0.27323
 Alpha  occ. eigenvalues --   -0.25840  -0.23876  -0.23629  -0.20127  -0.18953
 Alpha  occ. eigenvalues --   -0.18209  -0.16157   0.04689
 Alpha virt. eigenvalues --    0.06993   0.07756   0.09329   0.09403   0.10163
 Alpha virt. eigenvalues --    0.10891   0.11559   0.11925   0.12133   0.12690
 Alpha virt. eigenvalues --    0.12789   0.14278   0.15229   0.15782   0.16429

  Beta  occ. eigenvalues --  -18.99007 -14.23135 -14.21699 -10.17847 -10.11737
  Beta  occ. eigenvalues --  -10.11632 -10.10664 -10.09021 -10.07632 -10.06369
  Beta  occ. eigenvalues --   -0.94210  -0.81786  -0.80450  -0.78277  -0.67424
  Beta  occ. eigenvalues --   -0.61930  -0.55150  -0.48686  -0.46066  -0.44985
  Beta  occ. eigenvalues --   -0.40457  -0.40154  -0.36714  -0.35078  -0.33807
  Beta  occ. eigenvalues --   -0.31486  -0.31059  -0.30241  -0.29034  -0.27301
  Beta  occ. eigenvalues --   -0.25787  -0.23841  -0.23591  -0.20100  -0.18914
  Beta  occ. eigenvalues --   -0.18121  -0.16124
  Beta virt. eigenvalues --    0.07348   0.08170   0.09067   0.09729   0.10254
  Beta virt. eigenvalues --    0.10423   0.11244   0.11720   0.12264   0.12633
  Beta virt. eigenvalues --    0.13010   0.13195   0.14937   0.15594   0.15915

 Mulliken charges and spin densities:
               1          2
     1  C    1.756724  -2.481728
     2  C   -1.768892   1.913040
     3  C    1.056804  -1.758094
     4  C   -0.894360   1.470367
     5  C    2.542347  -2.580097
     6  C   -0.191769   0.007731
     7  N   -0.303202  -0.006261
     8  C   -0.233094   0.088827
     9  O   -0.347939   0.001063
    10  N   -0.413870   0.083054
    11  H   -0.076121   0.236763
    12  H   -0.273926   0.420510
    13  H   -0.292093   0.438495
    14  H    0.030122   0.223467
    15  H    0.244709  -0.049361
    16  H   -0.604880   0.775561
    17  H   -0.708915   0.968975
    18  H   -0.418449   0.611044
    19  H    0.057670   0.179437
    20  H   -0.160864   0.457207
 Sum of Mulliken charges =  -1.00000   1.00000

 Dipole moment (field-independent basis, Debye):
    X=              2.4830    Y=             -0.4588    Z=             -2.4307  Tot=              3.5049
 Quadrupole moment (field-independent basis, Debye-Ang):
   XX=           -106.4264   YY=           -105.2788   ZZ=            -95.7602
   XY=              3.5684   XZ=              4.3383   YZ=             -2.1396

 Summary of Natural Population Analysis:

                                       Natural Population
                Natural  -----------------------------------------------
    Atom  No    Charge         Core      Valence    Rydberg      Total
 -----------------------------------------------------------------------
      C    1   -0.29018      0.99965     2.28443    0.00611     3.29018
      C    2   -0.09368      0.99956     2.08438    0.00975     3.09368
      C    3   -0.17947      0.99957     2.16952    0.01038     3.17947
      C    4   -0.08090      0.99948     2.06608    0.01534     3.08090
      C    5   -0.25370      0.99951     2.24091    0.01328     3.25370
      C    6    0.16299      0.99965     1.82062    0.01674     2.83701
      N    7   -0.18702      0.99979     2.67576    0.01148     3.68702
      C    8    0.34558      0.99962     1.63129    0.02351     2.65442
      O    9   -0.32699      0.99988     3.32154    0.00557     4.32699
      N   10   -0.40140      0.99970     2.89394    0.00776     3.90140
      H   11    0.10361      0.00000     0.39520    0.00118     0.39639
      H   12    0.10482      0.00000     0.39397    0.00121     0.39518
      H   13    0.10306      0.00000     0.39466    0.00228     0.39694
      H   14    0.11024      0.00000     0.38851    0.00124     0.38976
      H   15    0.11581      0.00000     0.38305    0.00114     0.38419
      H   16    0.10631      0.00000     0.39189    0.00180     0.39369
      H   17    0.13260      0.00000     0.36315    0.00425     0.36740
      H   18    0.13431      0.00000     0.36018    0.00550     0.36569
      H   19    0.19912      0.00000     0.29810    0.00279     0.30088
      H   20    0.19490      0.00000     0.30234    0.00275     0.30510
 =======================================================================
   * Total *   -0.00000      9.99640    26.85952    0.14408    37.00000

 Normal termination of Gaussian 16 at Mon Jan  4 09:07:34 2021.
