 Gaussian 16, Revision A.03,

 -----------------------------------------------------------
 # opt freq B3LYP/6-31G(d) empiricaldispersion=gd3bj scf=xqc
 -----------------------------------------------------------

 -------------------------------
 CID_117188934_JID_5637_neutraal
 -------------------------------
 Symbolic Z-matrix:
 Charge =  0 Multiplicity = 1

 SCF Done:  E(RB3LYP) =  -722.248135086     A.U. after   14 cycles
 SCF Done:  E(RB3LYP) =  -722.254829004     A.U. after   12 cycles
 SCF Done:  E(RB3LYP) =  -722.256244318     A.U. after   12 cycles
 SCF Done:  E(RB3LYP) =  -722.256720749     A.U. after   11 cycles
 SCF Done:  E(RB3LYP) =  -722.256884420     A.U. after   11 cycles
 SCF Done:  E(RB3LYP) =  -722.256990241     A.U. after   10 cycles
 SCF Done:  E(RB3LYP) =  -722.257028421     A.U. after   11 cycles
 SCF Done:  E(RB3LYP) =  -722.257038728     A.U. after   10 cycles
 SCF Done:  E(RB3LYP) =  -722.257059415     A.U. after   11 cycles
 SCF Done:  E(RB3LYP) =  -722.257088256     A.U. after   12 cycles
 SCF Done:  E(RB3LYP) =  -722.257265496     A.U. after   10 cycles
 SCF Done:  E(RB3LYP) =  -722.257269814     A.U. after   10 cycles
 SCF Done:  E(RB3LYP) =  -722.257270021     A.U. after    8 cycles
 SCF Done:  E(RB3LYP) =  -722.257270069     A.U. after    7 cycles
 SCF Done:  E(RB3LYP) =  -722.257270092     A.U. after    7 cycles
 Optimization completed.
    -- Stationary point found.
 Normal termination of Gaussian 16 at Thu Dec 10 17:15:53 2020.

 --------------------------------------------------------------------
 #N Geom=AllCheck Guess=TCheck SCRF=Check GenChk RB3LYP/6-31G(d) Freq
 --------------------------------------------------------------------

 Structure from the checkpoint file:  "JID_5637.chk"
 -------------------------------
 CID_117188934_JID_5637_neutraal
 -------------------------------
 Charge =  0 Multiplicity = 1

 SCF Done:  E(RB3LYP) =  -722.257270092     A.U. after    1 cycles

  Exact polarizability: 195.298   2.590 130.054  -0.582   0.523  52.818
 Approx polarizability: 256.390   6.004 227.355  -2.439   2.396  80.335

                      1                      2                      3
                      A                      A                      A
 Frequencies --     19.6207                35.9980                82.9954
 Red. masses --      4.2649                 5.4891                 3.6268
 Frc consts  --      0.0010                 0.0042                 0.0147
 IR Inten    --      0.1886                 2.0350                 1.1737

                      4                      5                      6
                      A                      A                      A
 Frequencies --     94.1548               155.0578               213.5463
 Red. masses --      4.7957                 4.7639                 1.7029
 Frc consts  --      0.0250                 0.0675                 0.0458
 IR Inten    --      1.0694                 7.2863                23.6234

                      7                      8                      9
                      A                      A                      A
 Frequencies --    214.1391               247.4767               263.5865
 Red. masses --      4.2898                 1.7638                 1.3074
 Frc consts  --      0.1159                 0.0636                 0.0535
 IR Inten    --      1.3350                13.0088                 1.1396

                     10                     11                     12
                      A                      A                      A
 Frequencies --    291.4508               316.5842               354.1980
 Red. masses --      6.2229                 4.3629                 5.7367
 Frc consts  --      0.3114                 0.2576                 0.4240
 IR Inten    --      1.5043                 1.0369                 9.1710

                     13                     14                     15
                      A                      A                      A
 Frequencies --    381.9364               430.7736               434.9590
 Red. masses --      6.4384                 3.3316                 4.0349
 Frc consts  --      0.5534                 0.3643                 0.4498
 IR Inten    --      0.2862                 0.0411                 0.5788

                     16                     17                     18
                      A                      A                      A
 Frequencies --    487.2170               526.3564               576.5606
 Red. masses --      4.1981                 2.4665                 2.1761
 Frc consts  --      0.5871                 0.4026                 0.4262
 IR Inten    --      0.2017                 6.9725                28.3451

                     19                     20                     21
                      A                      A                      A
 Frequencies --    578.9008               635.3757               640.4698
 Red. masses --      1.7538                 4.5349                 3.8902
 Frc consts  --      0.3463                 1.0786                 0.9402
 IR Inten    --     32.8080                43.3697                55.6149

                     22                     23                     24
                      A                      A                      A
 Frequencies --    680.9935               705.8930               711.4669
 Red. masses --      6.8944                 4.3101                 4.0735
 Frc consts  --      1.8838                 1.2654                 1.2149
 IR Inten    --      8.1510                 0.5880                53.5891

                     25                     26                     27
                      A                      A                      A
 Frequencies --    742.8478               756.3182               808.5539
 Red. masses --      5.6591                 2.8040                 6.2193
 Frc consts  --      1.8399                 0.9450                 2.3956
 IR Inten    --     51.1441               161.9828                14.5481

                     28                     29                     30
                      A                      A                      A
 Frequencies --    820.1301               845.8349               891.1052
 Red. masses --      1.2485                 1.6642                 7.9294
 Frc consts  --      0.4948                 0.7015                 3.7098
 IR Inten    --      1.4800                63.3728                14.3961

                     31                     32                     33
                      A                      A                      A
 Frequencies --    950.7914               954.1829              1012.9739
 Red. masses --      1.2697                 1.2892                 6.2885
 Frc consts  --      0.6763                 0.6916                 3.8018
 IR Inten    --      0.7826                 1.1829                 4.8388

                     34                     35                     36
                      A                      A                      A
 Frequencies --   1036.0894              1048.8039              1084.7796
 Red. masses --      2.7082                 3.3616                 6.0076
 Frc consts  --      1.7129                 2.1786                 4.1652
 IR Inten    --      5.7222                25.3736                57.4774

                     37                     38                     39
                      A                      A                      A
 Frequencies --   1105.5632              1140.9376              1142.7924
 Red. masses --      3.3728                 1.8503                 1.3692
 Frc consts  --      2.4289                 1.4191                 1.0536
 IR Inten    --     16.0367                23.5888                 5.1408

                     40                     41                     42
                      A                      A                      A
 Frequencies --   1187.2478              1202.4101              1221.1358
 Red. masses --      1.2716                 1.2584                 1.3689
 Frc consts  --      1.0561                 1.0720                 1.2027
 IR Inten    --      0.7949                 0.4513                14.0364

                     43                     44                     45
                      A                      A                      A
 Frequencies --   1240.8124              1267.0440              1301.6751
 Red. masses --      2.6924                 2.0815                 6.0657
 Frc consts  --      2.4424                 1.9688                 6.0553
 IR Inten    --    107.6103               235.2793               150.5382

                     46                     47                     48
                      A                      A                      A
 Frequencies --   1342.9656              1364.9331              1392.1949
 Red. masses --      1.3036                 7.7847                 5.0712
 Frc consts  --      1.3853                 8.5451                 5.7911
 IR Inten    --      0.0387               101.8451                35.9305

                     49                     50                     51
                      A                      A                      A
 Frequencies --   1448.0086              1476.0267              1500.0604
 Red. masses --      4.9474                 3.3323                 1.1957
 Frc consts  --      6.1118                 4.2774                 1.5852
 IR Inten    --    464.0586                13.9014                35.5922

                     52                     53                     54
                      A                      A                      A
 Frequencies --   1520.7374              1536.1673              1562.4438
 Red. masses --      1.0477                 1.0759                 2.3256
 Frc consts  --      1.4275                 1.4959                 3.3449
 IR Inten    --      5.4768                64.8645               306.2701

                     55                     56                     57
                      A                      A                      A
 Frequencies --   1639.5850              1648.9651              1661.2382
 Red. masses --      7.0781                 7.4922                 1.5720
 Frc consts  --     11.2108                12.0028                 2.5560
 IR Inten    --    470.5719               102.1214                25.1511

                     58                     59                     60
                      A                      A                      A
 Frequencies --   1677.5961              1704.1826              3023.7478
 Red. masses --      5.7283                 2.9510                 1.0349
 Frc consts  --      9.4985                 5.0495                 5.5752
 IR Inten    --     16.0319               125.1614                53.9564

                     61                     62                     63
                      A                      A                      A
 Frequencies --   3081.4963              3158.8732              3213.3144
 Red. masses --      1.1065                 1.0995                 1.0879
 Frc consts  --      6.1907                 6.4642                 6.6181
 IR Inten    --     45.3236                28.8669                 6.0668

                     64                     65                     66
                      A                      A                      A
 Frequencies --   3227.4033              3228.5669              3271.6454
 Red. masses --      1.0949                 1.0898                 1.0922
 Frc consts  --      6.7194                 6.6926                 6.8879
 IR Inten    --      7.4319                 6.9988                10.2381

                     67                     68                     69
                      A                      A                      A
 Frequencies --   3331.0036              3541.5936              3642.0839
 Red. masses --      1.0992                 1.0481                 1.0972
 Frc consts  --      7.1861                 7.7458                 8.5748
 IR Inten    --      3.2261                11.3127                13.6465

 - Thermochemistry -
 -------------------
 Temperature   298.150 Kelvin.  Pressure   1.00000 Atm.
 Atom     1 has atomic number  6 and mass  12.00000

 Molecular mass:   206.06914 amu.
 Principal axes and moments of inertia in atomic units:
                           1         2         3
     Eigenvalues --  1066.318946870.496397918.74332
           X            0.99999   0.00318   0.00180
           Y           -0.00317   0.99999  -0.00279
           Z           -0.00181   0.00278   0.99999
 This molecule is an asymmetric top.
 Rotational symmetry number  1.
 Warning -- assumption of classical behavior for rotation
           may cause significant error
 Rotational temperatures (Kelvin)      0.08123     0.01261     0.01094
 Rotational constants (GHZ):           1.69250     0.26268     0.22791
 Zero-point vibrational energy     508631.7 (Joules/Mol)
                                  121.56589 (Kcal/Mol)
 Warning -- explicit consideration of  19 degrees of freedom as
           vibrations may cause significant error
 Vibrational temperatures:     28.23    51.79   119.41   135.47   223.09
          (Kelvin)            307.25   308.10   356.06   379.24   419.33
                              455.49   509.61   549.52   619.79   625.81
                              701.00   757.31   829.54   832.91   914.16
                              921.49   979.80  1015.62  1023.64  1068.79
                             1088.17  1163.33  1179.98  1216.97  1282.10
                             1367.98  1372.86  1457.44  1490.70  1508.99
                             1560.76  1590.66  1641.55  1644.22  1708.18
                             1730.00  1756.94  1785.25  1822.99  1872.82
                             1932.23  1963.83  2003.06  2083.36  2123.67
                             2158.25  2188.00  2210.20  2248.01  2359.00
                             2372.49  2390.15  2413.69  2451.94  4350.50
                             4433.59  4544.91  4623.24  4643.51  4645.19
                             4707.17  4792.57  5095.56  5240.15

 Zero-point correction=                           0.193728 (Hartree/Particle)
 Thermal correction to Energy=                    0.206879
 Thermal correction to Enthalpy=                  0.207823
 Thermal correction to Gibbs Free Energy=         0.152336
 Sum of electronic and zero-point Energies=           -722.063543
 Sum of electronic and thermal Energies=              -722.050391
 Sum of electronic and thermal Enthalpies=            -722.049447
 Sum of electronic and thermal Free Energies=         -722.104934

                     E (Thermal)             CV                S
                      KCal/Mol        Cal/Mol-Kelvin    Cal/Mol-Kelvin
 Total                  129.818             49.998            116.781
 Electronic               0.000              0.000              0.000
 Translational            0.889              2.981             41.873
 Rotational               0.889              2.981             32.428
 Vibrational            128.041             44.036             42.480
 Vibration     1          0.593              1.986              6.672
 Vibration     2          0.594              1.982              5.468
 Vibration     3          0.600              1.961              3.819
 Vibration     4          0.603              1.953              3.572
 Vibration     5          0.620              1.897              2.609
 Vibration     6          0.644              1.820              2.013
 Vibration     7          0.644              1.819              2.008
 Vibration     8          0.661              1.767              1.748
 Vibration     9          0.670              1.740              1.638
 Vibration    10          0.687              1.690              1.466
 Vibration    11          0.703              1.642              1.328
 Vibration    12          0.730              1.567              1.147
 Vibration    13          0.751              1.509              1.031
 Vibration    14          0.792              1.403              0.856
 Vibration    15          0.796              1.394              0.843
 Vibration    16          0.843              1.278              0.691
 Vibration    17          0.881              1.192              0.595
 Vibration    18          0.933              1.082              0.492
 Vibration    19          0.935              1.077              0.487

                           ! Non-Optimized Parameters !
 Normal termination of Gaussian 16 at Thu Dec 10 17:23:27 2020.

 ----------------------------------------------------------------------
 # B3LYP/6-311++G(d,p) empiricaldispersion=gd3bj scf=xqc pop=npa geom=c
 heck
 ----------------------------------------------------------------------

 ---------------------------------------
 CID_117188934_JID_5637_Energie_neutraal
 ---------------------------------------
 Structure from the checkpoint file:  "JID_5637.chk"
 Charge =  0 Multiplicity = 1

 SCF Done:  E(RB3LYP) =  -722.462665070     A.U. after   14 cycles
 Normal termination of Gaussian 16 at Thu Dec 10 17:26:19 2020.

 ----------------------------------------------------------------------
 # B3LYP/6-311++G(d,p) empiricaldispersion=gd3bj scf=xqc pop=npa geom=c
 heck
 ----------------------------------------------------------------------

 -------------------------------------
 CID_117188934_JID_5637_Energie_kation
 -------------------------------------
 Structure from the checkpoint file:  "JID_5637.chk"
 Charge =  1 Multiplicity = 2

 SCF Done:  E(UB3LYP) =  -722.195753763     A.U. after   23 cycles
 Normal termination of Gaussian 16 at Thu Dec 10 17:33:13 2020.
 Gaussian 16:  ES64L-G16RevA.03 25-Dec-2016

 ----------------------------------------------------------------------
 # B3LYP/6-311++G(d,p) empiricaldispersion=gd3bj scf=xqc pop=npa geom=c
 heck
 ----------------------------------------------------------------------

 ------------------------------------
 CID_117188934_JID_5637_Energie_anion
 ------------------------------------
 Structure from the checkpoint file:  "JID_5637.chk"
 Charge = -1 Multiplicity = 2

                         Standard orientation:
 ---------------------------------------------------------------------
 Center     Atomic      Atomic             Coordinates (Angstroms)
 Number     Number       Type             X           Y           Z
 ---------------------------------------------------------------------
      1          6           0        4.829269    1.548625    0.039198
      2          8           0        4.421345    0.193755   -0.034871
      3          6           0        3.080959   -0.068217   -0.015719
      4          6           0        2.724546   -1.423344   -0.086217
      5          6           0        1.389767   -1.793867   -0.074267
      6          6           0        0.395754   -0.814189    0.007657
      7          6           0        0.729116    0.533212    0.079108
      8          6           0        2.079805    0.901721    0.066533
      9          8           0       -0.898877   -1.335782    0.024131
     10          6           0       -2.005723   -0.601111    0.019548
     11          7           0       -2.186486    0.686337   -0.039028
     12          6           0       -3.574898    0.827292   -0.018962
     13          6           0       -4.156575   -0.399550    0.046497
     14          8           0       -3.122080   -1.341472    0.075957
     15          7           0       -4.125317    2.104400   -0.005428
     16          1           0        5.920141    1.536364    0.011841
     17          1           0        4.494134    2.019789    0.972853
     18          1           0        4.450782    2.130513   -0.811847
     19          1           0        3.511712   -2.167089   -0.149364
     20          1           0        1.097767   -2.837354   -0.126488
     21          1           0       -0.046011    1.283611    0.137703
     22          1           0        2.327269    1.954963    0.122084
     23          1           0       -5.159707   -0.785372    0.093302
     24          1           0       -3.510082    2.780025   -0.444567
     25          1           0       -5.058601    2.153964   -0.396313
 ---------------------------------------------------------------------

 SCF Done:  E(UB3LYP) =  -722.451814229     A.U. after   33 cycles
 SCF Done:  E(UB3LYP) =  -722.451814229     a.u. after    1 cycles

 The electronic state is 2-A.
 Alpha  occ. eigenvalues --  -19.10991 -19.10801 -19.07002 -14.22339 -14.22177
 Alpha  occ. eigenvalues --  -10.23541 -10.16008 -10.15292 -10.14691 -10.13276
 Alpha  occ. eigenvalues --  -10.11909 -10.10178 -10.09682 -10.09425 -10.09363
 Alpha  occ. eigenvalues --   -1.07042  -1.00854  -0.98611  -0.85961  -0.79693
 Alpha  occ. eigenvalues --   -0.78108  -0.69741  -0.67850  -0.65126  -0.61434
 Alpha  occ. eigenvalues --   -0.56663  -0.54629  -0.52314  -0.49977  -0.47678
 Alpha  occ. eigenvalues --   -0.45120  -0.42526  -0.41636  -0.41527  -0.38920
 Alpha  occ. eigenvalues --   -0.38422  -0.38065  -0.37290  -0.35561  -0.34445
 Alpha  occ. eigenvalues --   -0.34067  -0.33031  -0.31724  -0.30666  -0.29192
 Alpha  occ. eigenvalues --   -0.27962  -0.26716  -0.25203  -0.23689  -0.21394
 Alpha  occ. eigenvalues --   -0.19642  -0.18055  -0.14204  -0.11227   0.03909
 Alpha virt. eigenvalues --    0.05079   0.06131   0.07058   0.07477   0.07585
 Alpha virt. eigenvalues --    0.07919   0.09318   0.09621   0.09788   0.10641
 Alpha virt. eigenvalues --    0.10898   0.12058   0.12735   0.13194   0.13745

  Beta  occ. eigenvalues --  -19.10991 -19.10797 -19.06993 -14.22267 -14.22168
  Beta  occ. eigenvalues --  -10.23539 -10.16007 -10.15292 -10.14686 -10.13221
  Beta  occ. eigenvalues --  -10.11889 -10.10176 -10.09679 -10.09413 -10.09356
  Beta  occ. eigenvalues --   -1.07035  -1.00850  -0.98592  -0.85927  -0.79614
  Beta  occ. eigenvalues --   -0.78096  -0.69723  -0.67834  -0.65089  -0.61378
  Beta  occ. eigenvalues --   -0.56642  -0.54590  -0.52270  -0.49952  -0.47652
  Beta  occ. eigenvalues --   -0.45083  -0.42478  -0.41623  -0.41492  -0.38858
  Beta  occ. eigenvalues --   -0.38390  -0.38000  -0.37271  -0.35539  -0.34416
  Beta  occ. eigenvalues --   -0.34053  -0.33012  -0.31699  -0.30644  -0.29170
  Beta  occ. eigenvalues --   -0.27941  -0.26680  -0.25169  -0.23670  -0.21369
  Beta  occ. eigenvalues --   -0.19612  -0.18042  -0.14184  -0.11192
  Beta virt. eigenvalues --    0.06136   0.06208   0.06879   0.07182   0.07582
  Beta virt. eigenvalues --    0.08335   0.08640   0.09836   0.10030   0.10369
  Beta virt. eigenvalues --    0.10652   0.11269   0.12515   0.12774   0.13281

 Mulliken charges and spin densities:
               1          2
     1  C    0.971114  -1.292264
     2  O   -0.225099   0.062839
     3  C   -1.315715   0.662969
     4  C    0.012594  -0.187561
     5  C   -0.814946   0.602887
     6  C    0.676553  -0.842557
     7  C    1.119689  -1.072614
     8  C    0.146382   0.141725
     9  O   -0.224283  -0.000023
    10  C    0.548220  -0.510967
    11  N   -0.086230  -0.047181
    12  C    0.740987  -0.770008
    13  C    0.178018  -0.143174
    14  O   -0.103713   0.011540
    15  N   -0.372938   0.047544
    16  H   -0.754095   0.934336
    17  H   -0.269159   0.425831
    18  H   -0.248528   0.405999
    19  H    0.134140   0.045832
    20  H    0.105747   0.072431
    21  H    0.004922   0.300560
    22  H   -0.053728   0.270405
    23  H   -0.495901   0.690472
    24  H   -0.123949   0.377295
    25  H   -0.550083   0.813683
 Sum of Mulliken charges =  -1.00000   1.00000

 Dipole moment (field-independent basis, Debye):
    X=              1.7596    Y=             -7.4913    Z=              0.6390  Tot=              7.7217
 Quadrupole moment (field-independent basis, Debye-Ang):
   XX=           -225.6385   YY=           -129.3895   ZZ=           -110.9627
   XY=              0.3203   XZ=             -5.1076   YZ=              1.6075

 Summary of Natural Population Analysis:

                                       Natural Population
                Natural  -----------------------------------------------
    Atom  No    Charge         Core      Valence    Rydberg      Total
 -----------------------------------------------------------------------
      C    1   -0.10124      0.99960     2.09237    0.00926     3.10124
      O    2   -0.27349      0.99986     3.26351    0.01012     4.27349
      C    3    0.15391      0.99938     1.83271    0.01399     2.84609
      C    4   -0.11499      0.99953     2.10650    0.00897     3.11499
      C    5   -0.11082      0.99953     2.10230    0.00899     3.11082
      C    6    0.13554      0.99933     1.85392    0.01120     2.86446
      C    7   -0.12107      0.99952     2.11242    0.00913     3.12107
      C    8   -0.13381      0.99953     2.12570    0.00858     3.13381
      O    9   -0.25493      0.99981     3.24724    0.00788     4.25493
      C   10    0.41699      0.99955     1.56178    0.02168     2.58301
      N   11   -0.29692      0.99965     2.78740    0.00987     3.79692
      C   12    0.14687      0.99954     1.83883    0.01477     2.85313
      C   13   -0.01626      0.99944     2.00224    0.01458     3.01626
      O   14   -0.23709      0.99986     3.23088    0.00635     4.23709
      N   15   -0.39810      0.99972     2.88752    0.01086     3.89810
      H   16    0.09661      0.00000     0.40154    0.00185     0.40339
      H   17    0.08609      0.00000     0.41192    0.00199     0.41391
      H   18    0.08601      0.00000     0.41202    0.00196     0.41399
      H   19    0.10679      0.00000     0.39223    0.00097     0.39321
      H   20    0.10715      0.00000     0.39189    0.00096     0.39285
      H   21    0.12710      0.00000     0.37085    0.00205     0.37290
      H   22    0.11018      0.00000     0.38850    0.00132     0.38982
      H   23    0.10088      0.00000     0.39785    0.00127     0.39912
      H   24    0.19129      0.00000     0.30533    0.00338     0.30871
      H   25    0.19330      0.00000     0.29310    0.01360     0.30670
 =======================================================================
   * Total *   -0.00000     14.99386    38.81055    0.19559    54.00000

 Normal termination of Gaussian 16 at Thu Dec 10 17:42:55 2020.
