 Gaussian 16, Revision A.03,

 -----------------------------------------------------------
 # opt freq B3LYP/6-31G(d) empiricaldispersion=gd3bj scf=xqc
 -----------------------------------------------------------

 -------------------------------
 CID_115103888_JID_1711_neutraal
 -------------------------------
 Symbolic Z-matrix:
 Charge =  0 Multiplicity = 1

 SCF Done:  E(RB3LYP) =  -520.288604580     A.U. after   13 cycles
 SCF Done:  E(RB3LYP) =  -520.292439714     A.U. after   11 cycles
 SCF Done:  E(RB3LYP) =  -520.292752398     A.U. after   10 cycles
 SCF Done:  E(RB3LYP) =  -520.292826592     A.U. after   10 cycles
 SCF Done:  E(RB3LYP) =  -520.292842418     A.U. after    8 cycles
 SCF Done:  E(RB3LYP) =  -520.292855681     A.U. after    9 cycles
 SCF Done:  E(RB3LYP) =  -520.292862427     A.U. after    9 cycles
 SCF Done:  E(RB3LYP) =  -520.292865691     A.U. after    9 cycles
 SCF Done:  E(RB3LYP) =  -520.292871266     A.U. after    9 cycles
 SCF Done:  E(RB3LYP) =  -520.292879808     A.U. after   10 cycles
 SCF Done:  E(RB3LYP) =  -520.294713127     A.U. after   10 cycles
 SCF Done:  E(RB3LYP) =  -520.294727275     A.U. after    9 cycles
 SCF Done:  E(RB3LYP) =  -520.294730550     A.U. after    9 cycles
 SCF Done:  E(RB3LYP) =  -520.294731376     A.U. after    9 cycles
 SCF Done:  E(RB3LYP) =  -520.294731278     A.U. after    8 cycles
 SCF Done:  E(RB3LYP) =  -520.294731224     A.U. after    7 cycles
 Optimization completed.
    -- Stationary point found.
 Normal termination of Gaussian 16 at Tue Dec  8 21:17:21 2020.

 --------------------------------------------------------------------
 #N Geom=AllCheck Guess=TCheck SCRF=Check GenChk RB3LYP/6-31G(d) Freq
 --------------------------------------------------------------------

 Structure from the checkpoint file:  "JID_1711.chk"
 -------------------------------
 CID_115103888_JID_1711_neutraal
 -------------------------------
 Charge =  0 Multiplicity = 1

 SCF Done:  E(RB3LYP) =  -520.294731224     A.U. after    1 cycles

  Exact polarizability: 112.418  -1.502  85.942  -0.222   2.405  87.478
 Approx polarizability: 134.970   0.753 125.527  -1.038   2.839 130.180

                      1                      2                      3
                      A                      A                      A
 Frequencies --     18.0828                45.4868                67.5049
 Red. masses --      5.0550                 3.6099                 3.9503
 Frc consts  --      0.0010                 0.0044                 0.0106
 IR Inten    --      0.9410                 0.2495                 1.1304

                      4                      5                      6
                      A                      A                      A
 Frequencies --    122.5641               146.5547               159.7436
 Red. masses --      3.2427                 2.4249                 2.4170
 Frc consts  --      0.0287                 0.0307                 0.0363
 IR Inten    --      2.9700                 1.2437                 1.0000

                      7                      8                      9
                      A                      A                      A
 Frequencies --    217.1890               235.0579               285.1146
 Red. masses --      2.4101                 2.4155                 2.7735
 Frc consts  --      0.0670                 0.0786                 0.1328
 IR Inten    --     11.5962                 4.6291                 0.5850

                     10                     11                     12
                      A                      A                      A
 Frequencies --    324.5227               333.3093               364.5992
 Red. masses --      1.2185                 1.1954                 2.6695
 Frc consts  --      0.0756                 0.0782                 0.2091
 IR Inten    --      8.0204               223.1112                 5.6304

                     13                     14                     15
                      A                      A                      A
 Frequencies --    425.0171               437.1406               494.8081
 Red. masses --      2.0802                 1.7677                 2.8120
 Frc consts  --      0.2214                 0.1990                 0.4056
 IR Inten    --      8.0763                 2.3399                 1.7506

                     16                     17                     18
                      A                      A                      A
 Frequencies --    524.3377               597.3007               662.3468
 Red. masses --      2.6903                 2.4884                 3.8475
 Frc consts  --      0.4358                 0.5231                 0.9945
 IR Inten    --      0.9462                 0.3252                21.9277

                     19                     20                     21
                      A                      A                      A
 Frequencies --    746.5174               795.8172               829.9743
 Red. masses --      1.5594                 1.4121                 2.6034
 Frc consts  --      0.5120                 0.5269                 1.0566
 IR Inten    --     26.0670                30.9566                 2.6511

                     22                     23                     24
                      A                      A                      A
 Frequencies --    866.7393               877.5040               902.2852
 Red. masses --      2.8948                 1.7241                 2.0442
 Frc consts  --      1.2813                 0.7822                 0.9805
 IR Inten    --      1.0442                23.3815                 1.2631

                     25                     26                     27
                      A                      A                      A
 Frequencies --    942.0361               978.2783               995.7734
 Red. masses --      1.4799                 1.9010                 1.7471
 Frc consts  --      0.7738                 1.0719                 1.0207
 IR Inten    --      3.5301                28.4685                10.8857

                     28                     29                     30
                      A                      A                      A
 Frequencies --   1007.3588              1035.2901              1066.8863
 Red. masses --      1.5052                 2.1212                 2.0573
 Frc consts  --      0.8999                 1.3395                 1.3797
 IR Inten    --     11.2909                 3.9536                25.6803

                     31                     32                     33
                      A                      A                      A
 Frequencies --   1071.1276              1095.5390              1104.1546
 Red. masses --      4.1025                 2.1056                 3.2839
 Frc consts  --      2.7732                 1.4889                 2.3588
 IR Inten    --     99.9088                43.4782                54.4126

                     34                     35                     36
                      A                      A                      A
 Frequencies --   1123.5101              1137.2089              1148.8404
 Red. masses --      2.4298                 1.9249                 2.4645
 Frc consts  --      1.8071                 1.4667                 1.9165
 IR Inten    --      6.1977                 5.6329                20.8654

                     37                     38                     39
                      A                      A                      A
 Frequencies --   1161.2973              1198.5259              1220.6029
 Red. masses --      1.5389                 1.2228                 1.3240
 Frc consts  --      1.2228                 1.0349                 1.1622
 IR Inten    --     19.2053                39.1878                 1.3406

                     40                     41                     42
                      A                      A                      A
 Frequencies --   1239.5135              1267.4587              1304.7785
 Red. masses --      1.3908                 1.4588                 1.2599
 Frc consts  --      1.2590                 1.3808                 1.2637
 IR Inten    --      1.9286                 4.1831                 7.5112

                     43                     44                     45
                      A                      A                      A
 Frequencies --   1322.8393              1340.1518              1343.6319
 Red. masses --      1.3548                 1.3145                 1.2231
 Frc consts  --      1.3968                 1.3909                 1.3010
 IR Inten    --      1.5815                 0.8503                 0.5752

                     46                     47                     48
                      A                      A                      A
 Frequencies --   1358.2242              1378.6258              1391.8320
 Red. masses --      1.2366                 1.3904                 1.3266
 Frc consts  --      1.3440                 1.5569                 1.5141
 IR Inten    --     12.1402                 2.0967                 2.3334

                     49                     50                     51
                      A                      A                      A
 Frequencies --   1396.9362              1403.2549              1410.8172
 Red. masses --      1.2192                 1.5684                 1.2048
 Frc consts  --      1.4017                 1.8196                 1.4129
 IR Inten    --     23.5598                 2.5298                27.1473

                     52                     53                     54
                      A                      A                      A
 Frequencies --   1419.8989              1432.8753              1442.4384
 Red. masses --      1.3672                 1.3423                 1.3321
 Frc consts  --      1.6240                 1.6237                 1.6330
 IR Inten    --      8.4225                26.3696                28.4448

                     55                     56                     57
                      A                      A                      A
 Frequencies --   1488.2896              1508.2038              1515.1101
 Red. masses --      1.2297                 1.0866                 1.0874
 Frc consts  --      1.6048                 1.4563                 1.4707
 IR Inten    --     20.0612                 6.6859                 0.9947

                     58                     59                     60
                      A                      A                      A
 Frequencies --   1526.3825              1531.2728              1535.9926
 Red. masses --      1.1022                 1.0907                 1.0992
 Frc consts  --      1.5129                 1.5069                 1.5280
 IR Inten    --      0.6234                 3.9516                 1.2170

                     61                     62                     63
                      A                      A                      A
 Frequencies --   1539.4154              2983.9317              2994.4866
 Red. masses --      1.0873                 1.0806                 1.0725
 Frc consts  --      1.5181                 5.6688                 5.6664
 IR Inten    --      3.2249                21.3472                58.6238

                     64                     65                     66
                      A                      A                      A
 Frequencies --   3004.0952              3020.5335              3025.9247
 Red. masses --      1.0731                 1.0726                 1.0640
 Frc consts  --      5.7059                 5.7656                 5.7397
 IR Inten    --     48.4597                29.7293                29.6589

                     67                     68                     69
                      A                      A                      A
 Frequencies --   3039.8377              3043.0300              3052.3857
 Red. masses --      1.0641                 1.0649                 1.0851
 Frc consts  --      5.7934                 5.8100                 5.9565
 IR Inten    --      9.4749                41.0802                42.7657

                     70                     71                     72
                      A                      A                      A
 Frequencies --   3068.4327              3087.9906              3102.0910
 Red. masses --      1.0967                 1.1004                 1.0959
 Frc consts  --      6.0839                 6.1821                 6.2136
 IR Inten    --     35.3257                43.8428                67.0786

                     73                     74                     75
                      A                      A                      A
 Frequencies --   3103.5029              3112.8858              3120.5251
 Red. masses --      1.0964                 1.0948                 1.0943
 Frc consts  --      6.2216                 6.2506                 6.2780
 IR Inten    --     32.1075                37.2392                38.6757

                     76                     77                     78
                      A                      A                      A
 Frequencies --   3497.6426              3744.0594              3749.8538
 Red. masses --      1.0751                 1.0658                 1.0661
 Frc consts  --      7.7488                 8.8029                 8.8323
 IR Inten    --      0.1187                 7.0608                 9.0013

 - Thermochemistry -
 -------------------
 Temperature   298.150 Kelvin.  Pressure   1.00000 Atm.
 Atom     1 has atomic number  6 and mass  12.00000

 Molecular mass:   159.12593 amu.
 Principal axes and moments of inertia in atomic units:
                           1         2         3
     Eigenvalues --   784.531453930.043294103.10289
           X            0.99998  -0.00616   0.00142
           Y            0.00613   0.99974   0.02180
           Z           -0.00156  -0.02179   0.99976
 This molecule is an asymmetric top.
 Rotational symmetry number  1.
 Warning -- assumption of classical behavior for rotation
           may cause significant error
 Rotational temperatures (Kelvin)      0.11040     0.02204     0.02111
 Rotational constants (GHZ):           2.30041     0.45922     0.43985
 Zero-point vibrational energy     667606.6 (Joules/Mol)
                                  159.56180 (Kcal/Mol)
 Warning -- explicit consideration of  17 degrees of freedom as
           vibrations may cause significant error
 Vibrational temperatures:     26.02    65.45    97.12   176.34   210.86
          (Kelvin)            229.84   312.49   338.20   410.22   466.92
                              479.56   524.58   611.50   628.95   711.92
                              754.40   859.38   952.97  1074.07  1145.00
                             1194.15  1247.04  1262.53  1298.19  1355.38
                             1407.52  1432.70  1449.36  1489.55  1535.01
                             1541.11  1576.24  1588.63  1616.48  1636.19
                             1652.93  1670.85  1724.41  1756.18  1783.38
                             1823.59  1877.29  1903.27  1928.18  1933.19
                             1954.18  1983.53  2002.54  2009.88  2018.97
                             2029.85  2042.92  2061.59  2075.35  2141.32
                             2169.97  2179.91  2196.12  2203.16  2209.95
                             2214.88  4293.21  4308.40  4322.22  4345.87
                             4353.63  4373.65  4378.24  4391.70  4414.79
                             4442.93  4463.22  4465.25  4478.75  4489.74
                             5032.33  5386.87  5395.20

 Zero-point correction=                           0.254278 (Hartree/Particle)
 Thermal correction to Energy=                    0.266506
 Thermal correction to Enthalpy=                  0.267450
 Thermal correction to Gibbs Free Energy=         0.214377
 Sum of electronic and zero-point Energies=           -520.040453
 Sum of electronic and thermal Energies=              -520.028225
 Sum of electronic and thermal Enthalpies=            -520.027281
 Sum of electronic and thermal Free Energies=         -520.080354

                     E (Thermal)             CV                S
                      KCal/Mol        Cal/Mol-Kelvin    Cal/Mol-Kelvin
 Total                  167.235             45.304            111.703
 Electronic               0.000              0.000              0.000
 Translational            0.889              2.981             41.103
 Rotational               0.889              2.981             30.915
 Vibrational            165.458             39.342             39.685
 Vibration     1          0.593              1.986              6.834
 Vibration     2          0.595              1.979              5.005
 Vibration     3          0.598              1.970              4.225
 Vibration     4          0.610              1.930              3.060
 Vibration     5          0.617              1.906              2.716
 Vibration     6          0.622              1.892              2.553
 Vibration     7          0.646              1.815              1.982
 Vibration     8          0.655              1.787              1.840
 Vibration     9          0.683              1.701              1.503
 Vibration    10          0.709              1.626              1.287
 Vibration    11          0.715              1.609              1.244
 Vibration    12          0.738              1.545              1.102
 Vibration    13          0.787              1.416              0.875
 Vibration    14          0.797              1.389              0.836
 Vibration    15          0.850              1.262              0.671
 Vibration    16          0.879              1.196              0.600
 Vibration    17          0.955              1.038              0.454

 Optimization completed.
    -- Stationary point found.
 Normal termination of Gaussian 16 at Tue Dec  8 21:24:36 2020.

 ----------------------------------------------------------------------
 # B3LYP/6-311++G(d,p) empiricaldispersion=gd3bj scf=xqc pop=npa geom=c
 heck
 ----------------------------------------------------------------------

 ---------------------------------------
 CID_115103888_JID_1711_Energie_neutraal
 ---------------------------------------
 Structure from the checkpoint file:  "JID_1711.chk"
 Charge =  0 Multiplicity = 1

 SCF Done:  E(RB3LYP) =  -520.469185389     A.U. after   13 cycles
 Normal termination of Gaussian 16 at Tue Dec  8 21:28:27 2020.

 ----------------------------------------------------------------------
 # B3LYP/6-311++G(d,p) empiricaldispersion=gd3bj scf=xqc pop=npa geom=c
 heck
 ----------------------------------------------------------------------

 -------------------------------------
 CID_115103888_JID_1711_Energie_kation
 -------------------------------------
 Structure from the checkpoint file:  "JID_1711.chk"
 Charge =  1 Multiplicity = 2

 SCF Done:  E(UB3LYP) =  -520.151958043     A.U. after   28 cycles
 Normal termination of Gaussian 16 at Tue Dec  8 21:37:33 2020.
 Gaussian 16:  ES64L-G16RevA.03 25-Dec-2016

 ----------------------------------------------------------------------
 # B3LYP/6-311++G(d,p) empiricaldispersion=gd3bj scf=xqc pop=npa geom=c
 heck
 ----------------------------------------------------------------------

 ------------------------------------
 CID_115103888_JID_1711_Energie_anion
 ------------------------------------
 Structure from the checkpoint file:  "JID_1711.chk"
 Charge = -1 Multiplicity = 2

                         Standard orientation:
 ---------------------------------------------------------------------
 Center     Atomic      Atomic             Coordinates (Angstroms)
 Number     Number       Type             X           Y           Z
 ---------------------------------------------------------------------
      1          6           0       -0.169922   -1.407942   -0.488485
      2          6           0       -1.638723   -1.047885   -0.747125
      3          6           0       -2.040894   -0.185784    0.482431
      4          7           0       -0.775498    0.266750    1.112219
      5          6           0        0.342829   -0.159962    0.249456
      6          6           0        1.625442   -0.346336    1.056342
      7          6           0        2.855872   -0.742767    0.228081
      8          6           0        3.223022    0.263136   -0.867202
      9          8           0        3.454125    1.574614   -0.365478
     10          6           0       -2.895592    1.023983    0.100503
     11          8           0       -4.130831    0.652415   -0.500234
     12          1           0       -0.095346   -2.279707    0.176174
     13          1           0        0.384226   -1.636458   -1.404965
     14          1           0       -2.282900   -1.922178   -0.876773
     15          1           0       -1.709103   -0.449058   -1.667243
     16          1           0       -2.618238   -0.791980    1.191113
     17          1           0       -0.672467   -0.184730    2.018231
     18          1           0        0.500113    0.633508   -0.498495
     19          1           0        1.838026    0.581095    1.603864
     20          1           0        1.447010   -1.117483    1.819718
     21          1           0        3.712273   -0.848717    0.904589
     22          1           0        2.694763   -1.723633   -0.239556
     23          1           0        4.161002   -0.038721   -1.343688
     24          1           0        2.451883    0.272827   -1.653835
     25          1           0        2.602310    1.929797   -0.069117
     26          1           0       -3.152630    1.592773    0.998080
     27          1           0       -2.305126    1.688166   -0.552267
     28          1           0       -3.925872    0.232360   -1.349666
 ---------------------------------------------------------------------

 SCF Done:  E(UB3LYP) =  -520.456387868     A.U. after   27 cycles

 The electronic state is 2-A.
 Alpha  occ. eigenvalues --  -19.02799 -19.02256 -14.19478 -10.11658 -10.10807
 Alpha  occ. eigenvalues --  -10.09507 -10.09233 -10.07044 -10.06998 -10.06267
 Alpha  occ. eigenvalues --  -10.06006  -0.92822  -0.92284  -0.81925  -0.69631
 Alpha  occ. eigenvalues --   -0.66034  -0.64162  -0.59147  -0.55052  -0.50518
 Alpha  occ. eigenvalues --   -0.47431  -0.46749  -0.41999  -0.41243  -0.38375
 Alpha  occ. eigenvalues --   -0.38037  -0.35691  -0.34887  -0.34100  -0.32155
 Alpha  occ. eigenvalues --   -0.31349  -0.30817  -0.27693  -0.27442  -0.26370
 Alpha  occ. eigenvalues --   -0.25050  -0.24477  -0.23183  -0.22784  -0.22506
 Alpha  occ. eigenvalues --   -0.21398  -0.18115  -0.17972  -0.13105   0.04527
 Alpha virt. eigenvalues --    0.06687   0.07153   0.07725   0.08828   0.09372
 Alpha virt. eigenvalues --    0.09804   0.10278   0.10645   0.11618   0.12109
 Alpha virt. eigenvalues --    0.12811   0.13332   0.13578   0.14651   0.14934

  Beta  occ. eigenvalues --  -19.02786 -19.02238 -14.19466 -10.11635 -10.10794
  Beta  occ. eigenvalues --  -10.09494 -10.09222 -10.07024 -10.06983 -10.06229
  Beta  occ. eigenvalues --  -10.05973  -0.92794  -0.92247  -0.81892  -0.69589
  Beta  occ. eigenvalues --   -0.65978  -0.64119  -0.59096  -0.54986  -0.50448
  Beta  occ. eigenvalues --   -0.47363  -0.46676  -0.41952  -0.41193  -0.38329
  Beta  occ. eigenvalues --   -0.37977  -0.35655  -0.34837  -0.34061  -0.32108
  Beta  occ. eigenvalues --   -0.31311  -0.30772  -0.27652  -0.27402  -0.26330
  Beta  occ. eigenvalues --   -0.25004  -0.24433  -0.23139  -0.22739  -0.22465
  Beta  occ. eigenvalues --   -0.21366  -0.18082  -0.17942  -0.13077
  Beta virt. eigenvalues --    0.06915   0.07641   0.07882   0.08178   0.09315
  Beta virt. eigenvalues --    0.09658   0.10351   0.10867   0.11173   0.12061
  Beta virt. eigenvalues --    0.12560   0.13094   0.13772   0.13952   0.14892

 Mulliken charges and spin densities:
               1          2
     1  C   -0.071110  -0.419206
     2  C    1.747860  -2.121722
     3  C   -2.084224   1.857115
     4  N    0.041802   0.031927
     5  C   -0.312785   0.168681
     6  C    0.489782  -0.958594
     7  C   -0.061586  -0.022366
     8  C    0.699610  -1.292190
     9  O   -0.291537   0.048914
    10  C    1.253204  -1.534633
    11  O   -0.268117   0.035566
    12  H   -0.147590   0.311369
    13  H   -0.257659   0.423772
    14  H   -0.440378   0.630367
    15  H   -0.405778   0.540193
    16  H   -0.404038   0.581925
    17  H    0.033641   0.200805
    18  H    0.407765  -0.211544
    19  H    0.057250   0.133482
    20  H   -0.289891   0.414832
    21  H   -0.044644   0.214188
    22  H   -0.248315   0.391629
    23  H   -0.135876   0.304486
    24  H   -0.324611   0.509429
    25  H    0.140827   0.107666
    26  H    0.193807  -0.024124
    27  H   -0.277623   0.436772
    28  H    0.000214   0.241263
 Sum of Mulliken charges =  -1.00000   1.00000

 Dipole moment (field-independent basis, Debye):
    X=              1.1366    Y=              2.1174    Z=              2.3181  Tot=              3.3390
 Quadrupole moment (field-independent basis, Debye-Ang):
   XX=           -142.5192   YY=           -108.2236   ZZ=           -106.2827
   XY=             -4.0625   XZ=             -0.3256   YZ=              0.6956

 Summary of Natural Population Analysis:

                                       Natural Population
                Natural  -----------------------------------------------
    Atom  No    Charge         Core      Valence    Rydberg      Total
 -----------------------------------------------------------------------
      C    1   -0.19707      0.99961     2.18764    0.00982     3.19707
      C    2   -0.20138      0.99963     2.19172    0.01004     3.20138
      C    3   -0.02476      0.99960     2.01179    0.01338     3.02476
      N    4   -0.34443      0.99973     2.83264    0.01207     3.84443
      C    5   -0.01141      0.99959     1.99877    0.01306     3.01141
      C    6   -0.19629      0.99960     2.18608    0.01060     3.19629
      C    7   -0.20176      0.99963     2.19330    0.00884     3.20176
      C    8   -0.00961      0.99960     1.99832    0.01168     3.00961
      O    9   -0.37088      0.99990     3.36410    0.00688     4.37088
      C   10   -0.00532      0.99956     1.99309    0.01267     3.00532
      O   11   -0.37146      0.99990     3.36520    0.00636     4.37146
      H   12    0.09671      0.00000     0.40128    0.00200     0.40329
      H   13    0.10493      0.00000     0.39318    0.00188     0.39507
      H   14    0.10704      0.00000     0.39112    0.00184     0.39296
      H   15    0.09451      0.00000     0.40310    0.00240     0.40549
      H   16    0.09270      0.00000     0.40589    0.00141     0.40730
      H   17    0.17541      0.00000     0.32161    0.00298     0.32459
      H   18    0.08437      0.00000     0.41315    0.00248     0.41563
      H   19    0.09793      0.00000     0.40064    0.00144     0.40207
      H   20    0.10030      0.00000     0.39815    0.00155     0.39970
      H   21    0.09786      0.00000     0.40101    0.00113     0.40214
      H   22    0.10124      0.00000     0.39726    0.00151     0.39876
      H   23    0.08575      0.00000     0.41282    0.00143     0.41425
      H   24    0.07831      0.00000     0.41995    0.00174     0.42169
      H   25    0.22758      0.00000     0.26943    0.00298     0.27242
      H   26    0.08538      0.00000     0.41317    0.00145     0.41462
      H   27    0.07569      0.00000     0.42267    0.00164     0.42431
      H   28    0.22869      0.00000     0.26781    0.00350     0.27131
 =======================================================================
   * Total *   -0.00000     10.99635    32.85490    0.14875    44.00000

 Normal termination of Gaussian 16 at Tue Dec  8 21:48:04 2020.
