 Gaussian 16, Revision A.03,

 -----------------------------------------------------------
 # opt freq B3LYP/6-31G(d) empiricaldispersion=gd3bj scf=xqc
 -----------------------------------------------------------

 -------------------------------
 CID_62242155_JID_10290_neutraal
 -------------------------------
 Symbolic Z-matrix:
 Charge =  0 Multiplicity = 1

 SCF Done:  E(RB3LYP) =  -968.058156414     A.U. after   18 cycles
 SCF Done:  E(RB3LYP) =  -968.067543867     A.U. after   15 cycles
 SCF Done:  E(RB3LYP) =  -968.070126332     A.U. after   15 cycles
 SCF Done:  E(RB3LYP) =  -968.069544975     A.U. after   15 cycles
 SCF Done:  E(RB3LYP) =  -968.072968279     A.U. after   15 cycles
 SCF Done:  E(RB3LYP) =  -968.074444158     A.U. after   14 cycles
 SCF Done:  E(RB3LYP) =  -968.075099787     A.U. after   15 cycles
 SCF Done:  E(RB3LYP) =  -968.076369357     A.U. after   14 cycles
 SCF Done:  E(RB3LYP) =  -968.077848342     A.U. after   15 cycles
 SCF Done:  E(RB3LYP) =  -968.079029795     A.U. after   15 cycles
 SCF Done:  E(RB3LYP) =  -968.083547690     A.U. after   10 cycles
 SCF Done:  E(RB3LYP) =  -968.083549658     A.U. after   10 cycles
 SCF Done:  E(RB3LYP) =  -968.083550411     A.U. after    8 cycles
 SCF Done:  E(RB3LYP) =  -968.083550550     A.U. after    8 cycles
 SCF Done:  E(RB3LYP) =  -968.083550592     A.U. after    7 cycles
 Optimization completed.
    -- Stationary point found.
 Normal termination of Gaussian 16 at Mon Dec 14 18:08:31 2020.

 --------------------------------------------------------------------
 #N Geom=AllCheck Guess=TCheck SCRF=Check GenChk RB3LYP/6-31G(d) Freq
 --------------------------------------------------------------------

 Structure from the checkpoint file:  "JID_10290.chk"
 -------------------------------
 CID_62242155_JID_10290_neutraal
 -------------------------------
 Charge =  0 Multiplicity = 1

 SCF Done:  E(RB3LYP) =  -968.083550592     A.U. after    1 cycles

  Exact polarizability: 247.277  -7.101 175.226 -12.286  11.646 111.299
 Approx polarizability: 332.781 -15.931 305.667 -32.576  44.280 187.086

                      1                      2                      3
                      A                      A                      A
 Frequencies --     26.6058                34.7606                54.5010
 Red. masses --      4.6341                 5.6855                 5.8979
 Frc consts  --      0.0019                 0.0040                 0.0103
 IR Inten    --      0.0529                 3.3132                 1.6043

                      4                      5                      6
                      A                      A                      A
 Frequencies --     60.3298                76.1596                85.5266
 Red. masses --      4.7807                 5.6745                 2.7803
 Frc consts  --      0.0103                 0.0194                 0.0120
 IR Inten    --      4.5041                 0.6381                 0.1369

                      7                      8                      9
                      A                      A                      A
 Frequencies --    109.8002               119.7294               127.7932
 Red. masses --      1.9633                 3.2565                 2.9689
 Frc consts  --      0.0139                 0.0275                 0.0286
 IR Inten    --      3.6087                 1.2331                 3.4272

                     10                     11                     12
                      A                      A                      A
 Frequencies --    150.9014               161.7803               168.1753
 Red. masses --      4.1024                 2.3773                 1.4601
 Frc consts  --      0.0550                 0.0367                 0.0243
 IR Inten    --      1.1894                 3.9473                 1.5843

                     13                     14                     15
                      A                      A                      A
 Frequencies --    203.7436               224.0662               250.3836
 Red. masses --      3.4136                 2.7159                 3.1353
 Frc consts  --      0.0835                 0.0803                 0.1158
 IR Inten    --      5.9545                 0.8900                 4.1442

                     16                     17                     18
                      A                      A                      A
 Frequencies --    260.8410               270.6026               297.2676
 Red. masses --      1.1674                 4.3523                 3.5952
 Frc consts  --      0.0468                 0.1878                 0.1872
 IR Inten    --      0.0583                 3.3736                 9.2117

                     19                     20                     21
                      A                      A                      A
 Frequencies --    334.9291               339.6951               359.2864
 Red. masses --      2.9403                 3.0241                 3.2092
 Frc consts  --      0.1943                 0.2056                 0.2441
 IR Inten    --      6.4337                 1.1678                 0.8040

                     22                     23                     24
                      A                      A                      A
 Frequencies --    361.8642               381.5798               415.4070
 Red. masses --      1.7858                 4.3107                 4.6534
 Frc consts  --      0.1378                 0.3698                 0.4731
 IR Inten    --     17.4600                 4.3975                 3.4773

                     25                     26                     27
                      A                      A                      A
 Frequencies --    418.1839               434.6665               452.4402
 Red. masses --      2.3757                 4.2276                 1.9228
 Frc consts  --      0.2448                 0.4706                 0.2319
 IR Inten    --      2.3147                 4.7107                 2.0154

                     28                     29                     30
                      A                      A                      A
 Frequencies --    483.8465               497.0478               526.8310
 Red. masses --      3.0796                 3.1981                 4.4446
 Frc consts  --      0.4248                 0.4655                 0.7268
 IR Inten    --      4.1532                11.6572                69.6493

                     31                     32                     33
                      A                      A                      A
 Frequencies --    569.2733               604.4129               636.6791
 Red. masses --      2.5344                 4.5992                 2.3587
 Frc consts  --      0.4839                 0.9899                 0.5633
 IR Inten    --     53.3965                33.0272               106.9705

                     34                     35                     36
                      A                      A                      A
 Frequencies --    652.5822               698.0406               704.6389
 Red. masses --      3.0629                 6.1806                 5.5668
 Frc consts  --      0.7685                 1.7744                 1.6285
 IR Inten    --     14.7317                 7.3138                25.0124

                     37                     38                     39
                      A                      A                      A
 Frequencies --    730.7787               772.6376               783.3468
 Red. masses --      4.7223                 5.6766                 3.6659
 Frc consts  --      1.4859                 1.9966                 1.3254
 IR Inten    --     11.6119                15.5020                10.3084

                     40                     41                     42
                      A                      A                      A
 Frequencies --    812.8433               831.3758               848.9498
 Red. masses --      4.1124                 4.5795                 1.8868
 Frc consts  --      1.6009                 1.8649                 0.8012
 IR Inten    --     25.6099                13.2589                16.2233

                     43                     44                     45
                      A                      A                      A
 Frequencies --    864.6169               938.5321               943.4869
 Red. masses --      2.9357                 1.5296                 2.9939
 Frc consts  --      1.2930                 0.7939                 1.5702
 IR Inten    --     22.2315                 3.8675                51.4809

                     46                     47                     48
                      A                      A                      A
 Frequencies --    987.2972               993.3007               994.5898
 Red. masses --      2.0940                 2.5255                 2.5693
 Frc consts  --      1.2026                 1.4681                 1.4974
 IR Inten    --     60.0956                48.5006                 9.0507

                     49                     50                     51
                      A                      A                      A
 Frequencies --   1016.1554              1030.4426              1064.2251
 Red. masses --      1.3593                 1.7932                 2.1334
 Frc consts  --      0.8270                 1.1218                 1.4236
 IR Inten    --      5.2129                71.3878                37.3532

                     52                     53                     54
                      A                      A                      A
 Frequencies --   1094.1318              1120.3480              1139.5052
 Red. masses --      1.4143                 2.7318                 1.5765
 Frc consts  --      0.9976                 2.0202                 1.2061
 IR Inten    --      9.9769                22.4165                 7.6914

                     55                     56                     57
                      A                      A                      A
 Frequencies --   1140.3700              1162.9348              1185.8047
 Red. masses --      1.5689                 1.4444                 2.1661
 Frc consts  --      1.2021                 1.1509                 1.7945
 IR Inten    --     24.3062                16.1353                18.4794

                     58                     59                     60
                      A                      A                      A
 Frequencies --   1187.5325              1206.0103              1216.6174
 Red. masses --      1.4684                 1.6457                 1.4460
 Frc consts  --      1.2201                 1.4103                 1.2610
 IR Inten    --     26.4881                42.4741                18.8708

                     61                     62                     63
                      A                      A                      A
 Frequencies --   1230.2293              1242.8676              1297.4234
 Red. masses --      1.9254                 2.3767                 5.3048
 Frc consts  --      1.7169                 2.1631                 5.2612
 IR Inten    --     37.0131                66.9755                42.3993

                     64                     65                     66
                      A                      A                      A
 Frequencies --   1300.9968              1302.6887              1327.9036
 Red. masses --      1.5142                 1.6913                 2.9313
 Frc consts  --      1.5100                 1.6910                 3.0454
 IR Inten    --     26.1197                 8.4203                80.9502

                     67                     68                     69
                      A                      A                      A
 Frequencies --   1353.2930              1361.8520              1378.8195
 Red. masses --      1.5010                 1.3850                 5.0526
 Frc consts  --      1.6196                 1.5135                 5.6595
 IR Inten    --     12.2669                51.8689               361.1827

                     70                     71                     72
                      A                      A                      A
 Frequencies --   1393.2328              1399.2846              1412.4473
 Red. masses --      1.4237                 1.6151                 2.6000
 Frc consts  --      1.6283                 1.8632                 3.0561
 IR Inten    --     25.1884                 7.6976                 7.2847

                     73                     74                     75
                      A                      A                      A
 Frequencies --   1448.6856              1455.0602              1460.3357
 Red. masses --      1.3896                 2.2832                 1.8417
 Frc consts  --      1.7183                 2.8482                 2.3140
 IR Inten    --     56.2262                 5.7201                50.3755

                     76                     77                     78
                      A                      A                      A
 Frequencies --   1480.3094              1488.2562              1512.0541
 Red. masses --      1.1989                 1.2209                 1.0971
 Frc consts  --      1.5479                 1.5932                 1.4778
 IR Inten    --     13.5660                25.8432                 5.5943

                     79                     80                     81
                      A                      A                      A
 Frequencies --   1514.5400              1522.7034              1528.6650
 Red. masses --      1.0515                 1.0571                 1.0664
 Frc consts  --      1.4211                 1.4442                 1.4683
 IR Inten    --     10.0891                12.4515                 7.6837

                     82                     83                     84
                      A                      A                      A
 Frequencies --   1532.0753              1535.2265              1541.4259
 Red. masses --      1.0846                 1.6685                 1.0568
 Frc consts  --      1.5000                 2.3170                 1.4794
 IR Inten    --      9.9269                42.5132                14.2664

                     85                     86                     87
                      A                      A                      A
 Frequencies --   1548.1431              1552.7351              1564.6671
 Red. masses --      2.5106                 1.0542                 1.3018
 Frc consts  --      3.5453                 1.4975                 1.8778
 IR Inten    --     88.1177                 4.6880                24.6431

                     88                     89                     90
                      A                      A                      A
 Frequencies --   1602.9260              1627.1126              1681.6142
 Red. masses --      5.1903                 5.2623                 5.9835
 Frc consts  --      7.8573                 8.2084                 9.9692
 IR Inten    --    142.4182                68.1087               101.3606

                     91                     92                     93
                      A                      A                      A
 Frequencies --   1738.8609              1742.7108              2988.9992
 Red. masses --      1.0671                 8.7467                 1.0529
 Frc consts  --      1.9010                15.6511                 5.5421
 IR Inten    --     27.5948               317.6737                53.1695

                     94                     95                     96
                      A                      A                      A
 Frequencies --   3020.3687              3024.6421              3037.7280
 Red. masses --      1.0619                 1.0480                 1.0421
 Frc consts  --      5.7073                 5.6491                 5.6655
 IR Inten    --     42.6979                53.1320                89.6780

                     97                     98                     99
                      A                      A                      A
 Frequencies --   3062.6851              3068.6396              3080.3659
 Red. masses --      1.0615                 1.0985                 1.0798
 Frc consts  --      5.8666                 6.0947                 6.0366
 IR Inten    --     23.0874                28.7715                40.0004

                    100                    101                    102
                      A                      A                      A
 Frequencies --   3088.0306              3094.4974              3109.5152
 Red. masses --      1.1020                 1.0939                 1.1045
 Frc consts  --      6.1917                 6.1717                 6.2923
 IR Inten    --     38.6442                24.3670                13.3955

                    103                    104                    105
                      A                      A                      A
 Frequencies --   3121.6820              3177.9562              3178.9591
 Red. masses --      1.1038                 1.0986                 1.0887
 Frc consts  --      6.3377                 6.5369                 6.4823
 IR Inten    --     31.4371                 4.3456                11.3207

                    106                    107                    108
                      A                      A                      A
 Frequencies --   3195.0972              3199.9515              3234.0315
 Red. masses --      1.0964                 1.0951                 1.0900
 Frc consts  --      6.5948                 6.6069                 6.7171
 IR Inten    --      1.2786                28.0122                 1.3008

                    109                    110                    111
                      A                      A                      A
 Frequencies --   3415.2764              3520.5944              3584.4182
 Red. masses --      1.0522                 1.0886                 1.0766
 Frc consts  --      7.2307                 7.9497                 8.1496
 IR Inten    --      8.7644                 5.5235                34.6973

 - Thermochemistry -
 -------------------
 Temperature   298.150 Kelvin.  Pressure   1.00000 Atm.
 Atom     1 has atomic number  6 and mass  12.00000

 Molecular mass:   281.14879 amu.
 Principal axes and moments of inertia in atomic units:
                           1         2         3
     Eigenvalues --  2292.67449********************
           X            0.99993  -0.01170  -0.00151
           Y            0.01168   0.99980  -0.01641
           Z            0.00170   0.01639   0.99986
 This molecule is an asymmetric top.
 Rotational symmetry number  1.
 Warning -- assumption of classical behavior for rotation
           may cause significant error
 Rotational temperatures (Kelvin)      0.03778     0.00748     0.00660
 Rotational constants (GHZ):           0.78718     0.15585     0.13745
 Zero-point vibrational energy     854748.5 (Joules/Mol)
                                  204.28979 (Kcal/Mol)
 Warning -- explicit consideration of  32 degrees of freedom as
           vibrations may cause significant error
 Vibrational temperatures:     38.28    50.01    78.41    86.80   109.58
          (Kelvin)            123.05   157.98   172.26   183.87   217.11
                              232.77   241.97   293.14   322.38   360.25
                              375.29   389.34   427.70   481.89   488.75
                              516.93   520.64   549.01   597.68   601.67
                              625.39   650.96   696.15   715.14   757.99
                              819.06   869.62   916.04   938.92  1004.32
                             1013.82  1051.43  1111.65  1127.06  1169.50
                             1196.16  1221.45  1243.99  1350.34  1357.47
                             1420.50  1429.14  1430.99  1462.02  1482.58
                             1531.18  1574.21  1611.93  1639.49  1640.74
                             1673.20  1706.11  1708.59  1735.18  1750.44
                             1770.03  1788.21  1866.70  1871.84  1874.28
                             1910.56  1947.09  1959.40  1983.81  2004.55
                             2013.26  2032.20  2084.34  2093.51  2101.10
                             2129.84  2141.27  2175.51  2179.09  2190.83
                             2199.41  2204.31  2208.85  2217.77  2227.43
                             2234.04  2251.21  2306.25  2341.05  2419.47
                             2501.83  2507.37  4300.50  4345.64  4351.79
                             4370.61  4406.52  4415.09  4431.96  4442.99
                             4452.29  4473.90  4491.40  4572.37  4573.81
                             4597.03  4604.02  4653.05  4913.82  5065.35
                             5157.18

 Zero-point correction=                           0.325557 (Hartree/Particle)
 Thermal correction to Energy=                    0.345847
 Thermal correction to Enthalpy=                  0.346791
 Thermal correction to Gibbs Free Energy=         0.275777
 Sum of electronic and zero-point Energies=           -967.757994
 Sum of electronic and thermal Energies=              -967.737704
 Sum of electronic and thermal Enthalpies=            -967.736759
 Sum of electronic and thermal Free Energies=         -967.807774

                     E (Thermal)             CV                S
                      KCal/Mol        Cal/Mol-Kelvin    Cal/Mol-Kelvin
 Total                  217.022             75.217            149.463
 Electronic               0.000              0.000              0.000
 Translational            0.889              2.981             42.799
 Rotational               0.889              2.981             34.210
 Vibrational            215.245             69.256             72.454
 Vibration     1          0.593              1.984              6.068
 Vibration     2          0.594              1.983              5.537
 Vibration     3          0.596              1.976              4.647
 Vibration     4          0.597              1.973              4.446
 Vibration     5          0.599              1.965              3.987
 Vibration     6          0.601              1.959              3.760
 Vibration     7          0.606              1.941              3.272
 Vibration     8          0.609              1.933              3.105
 Vibration     9          0.611              1.925              2.979
 Vibration    10          0.618              1.902              2.661
 Vibration    11          0.622              1.889              2.529
 Vibration    12          0.625              1.882              2.456
 Vibration    13          0.639              1.835              2.099
 Vibration    14          0.649              1.804              1.926
 Vibration    15          0.663              1.762              1.728
 Vibration    16          0.669              1.744              1.656
 Vibration    17          0.674              1.727              1.592
 Vibration    18          0.691              1.679              1.432
 Vibration    19          0.716              1.606              1.236
 Vibration    20          0.720              1.596              1.214
 Vibration    21          0.734              1.556              1.125
 Vibration    22          0.736              1.551              1.114
 Vibration    23          0.751              1.509              1.033
 Vibration    24          0.779              1.437              0.908
 Vibration    25          0.781              1.431              0.898
 Vibration    26          0.795              1.395              0.844
 Vibration    27          0.811              1.355              0.788
 Vibration    28          0.840              1.286              0.700
 Vibration    29          0.853              1.257              0.666
 Vibration    30          0.882              1.191              0.594
 Vibration    31          0.925              1.098              0.506
 Vibration    32          0.963              1.022              0.442

 Optimization completed.
    -- Stationary point found.
 Normal termination of Gaussian 16 at Mon Dec 14 18:29:04 2020.

 ----------------------------------------------------------------------
 # B3LYP/6-311++G(d,p) empiricaldispersion=gd3bj scf=xqc pop=npa geom=c
 heck
 ----------------------------------------------------------------------

 ---------------------------------------
 CID_62242155_JID_10290_Energie_neutraal
 ---------------------------------------
 Structure from the checkpoint file:  "JID_10290.chk"
 Charge =  0 Multiplicity = 1

 SCF Done:  E(RB3LYP) =  -968.365382753     A.U. after   20 cycles
 Normal termination of Gaussian 16 at Mon Dec 14 18:40:57 2020.

 ----------------------------------------------------------------------
 # B3LYP/6-311++G(d,p) empiricaldispersion=gd3bj scf=xqc pop=npa geom=c
 heck
 ----------------------------------------------------------------------

 -------------------------------------
 CID_62242155_JID_10290_Energie_kation
 -------------------------------------
 Structure from the checkpoint file:  "JID_10290.chk"
 Charge =  1 Multiplicity = 2

 SCF Done:  E(UB3LYP) =  -968.077452512     A.U. after   33 cycles
 SCF Done:  E(UB3LYP) =  -968.077452512     a.u. after    1 cycles
 Normal termination of Gaussian 16 at Mon Dec 14 19:10:39 2020.
 Gaussian 16:  ES64L-G16RevA.03 25-Dec-2016

 ----------------------------------------------------------------------
 # B3LYP/6-311++G(d,p) empiricaldispersion=gd3bj scf=xqc pop=npa geom=c
 heck
 ----------------------------------------------------------------------

 ------------------------------------
 CID_62242155_JID_10290_Energie_anion
 ------------------------------------
 Structure from the checkpoint file:  "JID_10290.chk"
 Charge = -1 Multiplicity = 2

                         Standard orientation:
 ---------------------------------------------------------------------
 Center     Atomic      Atomic             Coordinates (Angstroms)
 Number     Number       Type             X           Y           Z
 ---------------------------------------------------------------------
      1          6           0        5.360613    1.272047   -0.789399
      2          7           0        4.473860    0.299435   -0.168277
      3          6           0        4.993066   -1.054684   -0.038612
      4          6           0        3.303578    0.730643    0.387819
      5          8           0        2.934387    1.905117    0.320382
      6          6           0        2.432051   -0.303963    1.109339
      7          7           0        1.909272   -1.334101    0.213506
      8          6           0        1.189544   -2.362360    0.955776
      9          6           0        1.135187   -0.798761   -0.921507
     10          6           0       -0.177347   -0.124976   -0.569009
     11          6           0       -1.368048   -0.831483   -0.604848
     12          6           0       -2.586047   -0.248675   -0.220378
     13          6           0       -2.656649    1.115887    0.153920
     14          6           0       -1.425665    1.812245    0.197084
     15          6           0       -0.225185    1.217961   -0.139591
     16          7           0       -3.803289    1.819952    0.461537
     17          7           0       -5.039746    1.651317   -0.198434
     18          7           0       -3.716299   -1.160163   -0.128111
     19          8           0       -4.622363   -0.899699    0.675757
     20          8           0       -3.693291   -2.185379   -0.814850
     21          1           0        6.287404    1.376542   -0.209583
     22          1           0        4.848166    2.231832   -0.827052
     23          1           0        5.621920    0.948133   -1.803869
     24          1           0        4.170843   -1.756347    0.096005
     25          1           0        5.516533   -1.320624   -0.963334
     26          1           0        5.709529   -1.135365    0.791452
     27          1           0        3.022475   -0.807667    1.884970
     28          1           0        1.644240    0.268885    1.620405
     29          1           0        0.310138   -1.981426    1.502005
     30          1           0        0.849199   -3.138726    0.262516
     31          1           0        1.868655   -2.824915    1.680234
     32          1           0        1.781661   -0.097825   -1.458914
     33          1           0        0.941567   -1.640880   -1.595302
     34          1           0       -1.389577   -1.871323   -0.908742
     35          1           0       -1.443979    2.862561    0.478273
     36          1           0        0.693699    1.795938   -0.086040
     37          1           0       -3.634804    2.799278    0.651945
     38          1           0       -4.866884    1.407155   -1.176932
     39          1           0       -5.497827    0.846092    0.226525
 ---------------------------------------------------------------------

 SCF Done:  E(UB3LYP) =  -968.397486882     A.U. after   29 cycles

 The electronic state is 2-A.
 Alpha  occ. eigenvalues --  -19.00732 -18.93494 -18.93434 -14.30863 -14.27383
 Alpha  occ. eigenvalues --  -14.22030 -14.21439 -14.19302 -10.19231 -10.13424
 Alpha  occ. eigenvalues --  -10.13245 -10.11563 -10.09644 -10.09294 -10.08261
 Alpha  occ. eigenvalues --  -10.06205 -10.04115 -10.03852 -10.03177 -10.02969
 Alpha  occ. eigenvalues --   -1.01437  -0.95960  -0.86531  -0.85606  -0.83932
 Alpha  occ. eigenvalues --   -0.83546  -0.73108  -0.67878  -0.66761  -0.64802
 Alpha  occ. eigenvalues --   -0.64178  -0.62151  -0.60950  -0.57728  -0.52705
 Alpha  occ. eigenvalues --   -0.51403  -0.48114  -0.47087  -0.43758  -0.41774
 Alpha  occ. eigenvalues --   -0.41411  -0.40905  -0.40145  -0.38963  -0.37416
 Alpha  occ. eigenvalues --   -0.37067  -0.36735  -0.35532  -0.34358  -0.34245
 Alpha  occ. eigenvalues --   -0.33767  -0.33356  -0.32511  -0.32080  -0.31786
 Alpha  occ. eigenvalues --   -0.30632  -0.30344  -0.29911  -0.29612  -0.28977
 Alpha  occ. eigenvalues --   -0.27541  -0.26209  -0.25023  -0.23926  -0.21976
 Alpha  occ. eigenvalues --   -0.17819  -0.17426  -0.17312  -0.15180  -0.13147
 Alpha  occ. eigenvalues --   -0.12840  -0.12330  -0.11427  -0.09171  -0.07901
 Alpha  occ. eigenvalues --    0.03286
 Alpha virt. eigenvalues --    0.04534   0.06570   0.07193   0.07999   0.08706
 Alpha virt. eigenvalues --    0.09325   0.09646   0.10016   0.10448   0.11120
 Alpha virt. eigenvalues --    0.11471   0.12055   0.12272   0.12441   0.12951

  Beta  occ. eigenvalues --  -19.00732 -18.92985 -18.92933 -14.30104 -14.27382
  Beta  occ. eigenvalues --  -14.22037 -14.21371 -14.19276 -10.19230 -10.13424
  Beta  occ. eigenvalues --  -10.13244 -10.11558 -10.09640 -10.09287 -10.08135
  Beta  occ. eigenvalues --  -10.06208 -10.04207 -10.03883 -10.02993 -10.02722
  Beta  occ. eigenvalues --   -1.00252  -0.95960  -0.86531  -0.85414  -0.83558
  Beta  occ. eigenvalues --   -0.83026  -0.72884  -0.67783  -0.66722  -0.64789
  Beta  occ. eigenvalues --   -0.63795  -0.61978  -0.60938  -0.57557  -0.51773
  Beta  occ. eigenvalues --   -0.51331  -0.48025  -0.47028  -0.43539  -0.41682
  Beta  occ. eigenvalues --   -0.41399  -0.40901  -0.39807  -0.38914  -0.37300
  Beta  occ. eigenvalues --   -0.36984  -0.36549  -0.35362  -0.34243  -0.33615
  Beta  occ. eigenvalues --   -0.33319  -0.32418  -0.32042  -0.31827  -0.30998
  Beta  occ. eigenvalues --   -0.30569  -0.30051  -0.29792  -0.29333  -0.28763
  Beta  occ. eigenvalues --   -0.27515  -0.26131  -0.24838  -0.23206  -0.21840
  Beta  occ. eigenvalues --   -0.17794  -0.17302  -0.16850  -0.14806  -0.13128
  Beta  occ. eigenvalues --   -0.11830  -0.10998  -0.09231  -0.08654  -0.07280
  Beta virt. eigenvalues --    0.04505   0.06534   0.07170   0.07961   0.08665
  Beta virt. eigenvalues --    0.09215   0.09603   0.09966   0.10129   0.10472
  Beta virt. eigenvalues --    0.11134   0.11613   0.12164   0.12277   0.12758

 Mulliken charges and spin densities:
               1          2
     1  C   -0.256886  -0.004046
     2  N    0.110753   0.002275
     3  C   -0.339034  -0.005731
     4  C   -0.173230  -0.002977
     5  O   -0.288994   0.001079
     6  C   -0.595539  -0.004436
     7  N    0.181905   0.005646
     8  C   -0.352212  -0.019161
     9  C   -1.015406   0.001960
    10  C    1.258666  -0.066428
    11  C   -0.096851   0.175370
    12  C   -0.639739  -0.083177
    13  C   -0.188842   0.114815
    14  C   -0.178397  -0.036011
    15  C   -0.538485   0.197054
    16  N   -0.162649   0.057712
    17  N   -0.361548  -0.056876
    18  N   -0.256768   0.250835
    19  O   -0.215804   0.193271
    20  O   -0.176533   0.199981
    21  H    0.135783   0.003485
    22  H    0.187070   0.000667
    23  H    0.127560   0.002686
    24  H    0.201839   0.003831
    25  H    0.131310   0.001616
    26  H    0.138435   0.002549
    27  H    0.136112  -0.000414
    28  H    0.202040   0.002594
    29  H    0.176937   0.005241
    30  H    0.144597   0.006148
    31  H    0.105148   0.009399
    32  H    0.190139   0.002667
    33  H    0.190715  -0.001453
    34  H    0.209989  -0.005553
    35  H    0.120932   0.004138
    36  H    0.194496  -0.015596
    37  H    0.260924  -0.005803
    38  H    0.165221   0.040357
    39  H    0.266347   0.022286
 Sum of Mulliken charges =  -1.00000   1.00000

 Dipole moment (field-independent basis, Debye):
    X=             16.5552    Y=              1.3217    Z=             -0.0094  Tot=             16.6079
 Quadrupole moment (field-independent basis, Debye-Ang):
   XX=           -194.5805   YY=           -145.2589   ZZ=           -128.1621
   XY=            -22.2449   XZ=              1.3304   YZ=             -3.8206

 Summary of Natural Population Analysis:

                                       Natural Population
                Natural  -----------------------------------------------
    Atom  No    Charge         Core      Valence    Rydberg      Total
 -----------------------------------------------------------------------
      C    1   -0.18000      0.99965     2.17390    0.00645     3.18000
      N    2   -0.25335      0.99964     2.74469    0.00903     3.75335
      C    3   -0.18159      0.99965     2.17556    0.00638     3.18159
      C    4    0.34413      0.99964     1.63445    0.02178     2.65587
      O    5   -0.32472      0.99988     3.31885    0.00599     4.32472
      C    6   -0.12679      0.99958     2.11804    0.00917     3.12679
      N    7   -0.28611      0.99973     2.77443    0.01195     3.78611
      C    8   -0.17868      0.99965     2.17197    0.00705     3.17868
      C    9   -0.08663      0.99958     2.07549    0.01155     3.08663
      C   10   -0.08104      0.99949     2.07303    0.00852     3.08104
      C   11   -0.05090      0.99949     2.04256    0.00885     3.05090
      C   12    0.01263      0.99939     1.97018    0.01780     2.98737
      C   13    0.10807      0.99946     1.88194    0.01054     2.89193
      C   14   -0.13400      0.99954     2.12593    0.00853     3.13400
      C   15   -0.05434      0.99952     2.04597    0.00885     3.05434
      N   16   -0.21016      0.99965     2.69713    0.01338     3.71016
      N   17   -0.32872      0.99978     2.81689    0.01205     3.82872
      N   18    0.31748      0.99971     2.15450    0.02831     3.18252
      O   19   -0.20642      0.99989     3.19871    0.00781     4.20642
      O   20   -0.19663      0.99990     3.18920    0.00753     4.19663
      H   21    0.08797      0.00000     0.41098    0.00104     0.41203
      H   22    0.11781      0.00000     0.38110    0.00109     0.38219
      H   23    0.09040      0.00000     0.40857    0.00102     0.40960
      H   24    0.11831      0.00000     0.38011    0.00158     0.38169
      H   25    0.09265      0.00000     0.40637    0.00098     0.40735
      H   26    0.08564      0.00000     0.41325    0.00111     0.41436
      H   27    0.09707      0.00000     0.40177    0.00116     0.40293
      H   28    0.10742      0.00000     0.39097    0.00161     0.39258
      H   29    0.09472      0.00000     0.40387    0.00141     0.40528
      H   30    0.09757      0.00000     0.40157    0.00086     0.40243
      H   31    0.08631      0.00000     0.41274    0.00095     0.41369
      H   32    0.09558      0.00000     0.40331    0.00111     0.40442
      H   33    0.09625      0.00000     0.40270    0.00105     0.40375
      H   34    0.11028      0.00000     0.38839    0.00133     0.38972
      H   35    0.08942      0.00000     0.40866    0.00193     0.41058
      H   36    0.10628      0.00000     0.39209    0.00163     0.39372
      H   37    0.17105      0.00000     0.32667    0.00229     0.32895
      H   38    0.16148      0.00000     0.33568    0.00283     0.33852
      H   39    0.19155      0.00000     0.30510    0.00336     0.30845
 =======================================================================
   * Total *    0.00000     19.99282    54.75733    0.24985    75.00000

 Normal termination of Gaussian 16 at Mon Dec 14 19:35:19 2020.
