 Gaussian 16, Revision A.03,

 -----------------------------------------------------------
 # opt freq B3LYP/6-31G(d) empiricaldispersion=gd3bj scf=xqc
 -----------------------------------------------------------

 -------------------------------
 CID_61252338_JID_10000_neutraal
 -------------------------------
 Symbolic Z-matrix:
 Charge =  0 Multiplicity = 1

 SCF Done:  E(RB3LYP) =  -1310.97891618     A.U. after   15 cycles
 SCF Done:  E(RB3LYP) =  -1310.98565973     A.U. after   12 cycles
 SCF Done:  E(RB3LYP) =  -1310.98751446     A.U. after   14 cycles
 SCF Done:  E(RB3LYP) =  -1310.98961299     A.U. after   12 cycles
 SCF Done:  E(RB3LYP) =  -1310.99229693     A.U. after   13 cycles
 SCF Done:  E(RB3LYP) =  -1310.99459635     A.U. after   13 cycles
 SCF Done:  E(RB3LYP) =  -1310.99568414     A.U. after   12 cycles
 SCF Done:  E(RB3LYP) =  -1310.99658663     A.U. after   12 cycles
 SCF Done:  E(RB3LYP) =  -1310.99651785     A.U. after   13 cycles
 SCF Done:  E(RB3LYP) =  -1310.99737886     A.U. after   12 cycles
 SCF Done:  E(RB3LYP) =  -1310.99786038     A.U. after   11 cycles
 SCF Done:  E(RB3LYP) =  -1310.99785267     A.U. after   11 cycles
 SCF Done:  E(RB3LYP) =  -1310.99786237     A.U. after   12 cycles
 SCF Done:  E(RB3LYP) =  -1310.99786268     A.U. after    8 cycles
 SCF Done:  E(RB3LYP) =  -1310.99786258     A.U. after    8 cycles
 Optimization completed.
    -- Stationary point found.
 Normal termination of Gaussian 16 at Sun Dec 13 16:40:14 2020.

 --------------------------------------------------------------------
 #N Geom=AllCheck Guess=TCheck SCRF=Check GenChk RB3LYP/6-31G(d) Freq
 --------------------------------------------------------------------

 Structure from the checkpoint file:  "JID_10000.chk"
 -------------------------------
 CID_61252338_JID_10000_neutraal
 -------------------------------
 Charge =  0 Multiplicity = 1

 SCF Done:  E(RB3LYP) =  -1310.99786258     A.U. after    1 cycles

  Exact polarizability: 185.232  -6.678 188.450  26.825   4.765 126.750
 Approx polarizability: 266.792 -16.126 296.958  54.302  18.748 216.937

                      1                      2                      3
                      A                      A                      A
 Frequencies --     10.0415                41.8873                44.9707
 Red. masses --      5.5934                 5.5476                 4.4968
 Frc consts  --      0.0003                 0.0057                 0.0054
 IR Inten    --      1.2429                 0.3742                 2.3686

                      4                      5                      6
                      A                      A                      A
 Frequencies --     60.8856                71.2994                77.8453
 Red. masses --      5.2082                 5.3358                 5.6826
 Frc consts  --      0.0114                 0.0160                 0.0203
 IR Inten    --      4.1482                 2.0903                 2.2137

                      7                      8                      9
                      A                      A                      A
 Frequencies --    117.3494               159.8030               175.9145
 Red. masses --      5.4818                 4.6843                 5.9925
 Frc consts  --      0.0445                 0.0705                 0.1093
 IR Inten    --      0.3524                 3.9371                 1.9866

                     10                     11                     12
                      A                      A                      A
 Frequencies --    182.3520               196.5081               236.6464
 Red. masses --      3.2209                 3.5899                 4.6222
 Frc consts  --      0.0631                 0.0817                 0.1525
 IR Inten    --      0.1827                 7.5122                 6.9997

                     13                     14                     15
                      A                      A                      A
 Frequencies --    275.6034               288.3803               314.9024
 Red. masses --      3.6047                 2.5613                 2.8024
 Frc consts  --      0.1613                 0.1255                 0.1637
 IR Inten    --      7.9487                10.3530                 2.8121

                     16                     17                     18
                      A                      A                      A
 Frequencies --    329.0137               383.0821               385.5406
 Red. masses --      2.6398                 3.3212                 3.4496
 Frc consts  --      0.1684                 0.2872                 0.3021
 IR Inten    --      0.2810                 7.5372                 9.6730

                     19                     20                     21
                      A                      A                      A
 Frequencies --    399.0972               412.0714               424.5646
 Red. masses --      1.3957                 2.9394                 2.9550
 Frc consts  --      0.1310                 0.2941                 0.3138
 IR Inten    --    137.3922                60.2953                12.4793

                     22                     23                     24
                      A                      A                      A
 Frequencies --    446.1689               452.4485               470.5898
 Red. masses --      3.7688                 2.7723                 3.3258
 Frc consts  --      0.4420                 0.3344                 0.4339
 IR Inten    --      2.6541                11.5583                63.4939

                     25                     26                     27
                      A                      A                      A
 Frequencies --    489.8790               505.0333               515.7661
 Red. masses --      3.8062                 3.1947                 3.2709
 Frc consts  --      0.5382                 0.4801                 0.5127
 IR Inten    --     28.4074                10.4859                 6.6500

                     28                     29                     30
                      A                      A                      A
 Frequencies --    540.9205               567.0325               569.3311
 Red. masses --      4.9892                 2.2075                 1.5821
 Frc consts  --      0.8601                 0.4182                 0.3022
 IR Inten    --      2.8213                29.9381                46.5826

                     31                     32                     33
                      A                      A                      A
 Frequencies --    601.4911               621.9080               653.8911
 Red. masses --      2.4808                 4.0658                 3.4643
 Frc consts  --      0.5288                 0.9265                 0.8727
 IR Inten    --     38.5772                23.4221                19.4437

                     34                     35                     36
                      A                      A                      A
 Frequencies --    658.3208               708.6355               742.0546
 Red. masses --      3.6928                 2.8889                 2.5135
 Frc consts  --      0.9429                 0.8547                 0.8155
 IR Inten    --     21.4201                 7.5941                23.8735

                     37                     38                     39
                      A                      A                      A
 Frequencies --    774.2923               804.5850               812.0129
 Red. masses --      4.5621                 2.8223                 2.2710
 Frc consts  --      1.6115                 1.0765                 0.8823
 IR Inten    --     41.2311                42.7148               194.4209

                     40                     41                     42
                      A                      A                      A
 Frequencies --    823.4488               840.7954               867.1208
 Red. masses --      1.9602                 1.6160                 2.0067
 Frc consts  --      0.7831                 0.6731                 0.8890
 IR Inten    --      8.9243                 0.8479               137.7672

                     43                     44                     45
                      A                      A                      A
 Frequencies --    903.9545               910.6287               925.9881
 Red. masses --      3.3902                 2.5761                 1.4386
 Frc consts  --      1.6322                 1.2586                 0.7268
 IR Inten    --      5.2764                 2.9595                 2.8774

                     46                     47                     48
                      A                      A                      A
 Frequencies --    949.2892               958.2541               977.5083
 Red. masses --      1.4789                 2.3182                 1.3053
 Frc consts  --      0.7852                 1.2542                 0.7349
 IR Inten    --     13.5274                63.4026                 0.1142

                     49                     50                     51
                      A                      A                      A
 Frequencies --    996.4765              1020.9240              1025.5805
 Red. masses --      1.9853                 2.4929                 6.0630
 Frc consts  --      1.1615                 1.5309                 3.7573
 IR Inten    --     14.1479                 8.4422                 0.5801

                     52                     53                     54
                      A                      A                      A
 Frequencies --   1032.2281              1060.3642              1070.9941
 Red. masses --      1.5642                 2.3612                 4.3525
 Frc consts  --      0.9820                 1.5642                 2.9415
 IR Inten    --     16.5624                22.7539                61.0148

                     55                     56                     57
                      A                      A                      A
 Frequencies --   1105.9899              1124.9368              1131.7949
 Red. masses --      1.7738                10.4061                 1.8521
 Frc consts  --      1.2784                 7.7588                 1.3978
 IR Inten    --      5.4780               121.6416                 3.5625

                     58                     59                     60
                      A                      A                      A
 Frequencies --   1145.5339              1150.3743              1174.4801
 Red. masses --      3.9173                 1.6619                 4.7779
 Frc consts  --      3.0287                 1.2958                 3.8831
 IR Inten    --     32.7178                 4.0702                 2.1182

                     61                     62                     63
                      A                      A                      A
 Frequencies --   1186.4027              1209.6228              1226.6151
 Red. masses --      2.1050                 1.1226                 1.1664
 Frc consts  --      1.7457                 0.9678                 1.0340
 IR Inten    --     24.6671                 1.6130                 3.2423

                     64                     65                     66
                      A                      A                      A
 Frequencies --   1245.1444              1271.9323              1294.9506
 Red. masses --      2.8670                 1.3075                 1.2373
 Frc consts  --      2.6189                 1.2463                 1.2225
 IR Inten    --     33.0954                14.4540                17.5487

                     67                     68                     69
                      A                      A                      A
 Frequencies --   1315.6855              1345.2803              1357.4409
 Red. masses --      9.5378                 1.3533                 1.2940
 Frc consts  --      9.7275                 1.4430                 1.4048
 IR Inten    --    219.2493                 9.6619                 3.9680

                     70                     71                     72
                      A                      A                      A
 Frequencies --   1370.2052              1371.4145              1371.9241
 Red. masses --      1.3648                 1.6071                 2.5713
 Frc consts  --      1.5097                 1.7808                 2.8514
 IR Inten    --     16.9625                20.9475                39.8043

                     73                     74                     75
                      A                      A                      A
 Frequencies --   1385.6695              1399.3208              1401.6343
 Red. masses --      3.5784                 1.2687                 1.3673
 Frc consts  --      4.0481                 1.4637                 1.5826
 IR Inten    --    164.6917                11.4292                13.9799

                     76                     77                     78
                      A                      A                      A
 Frequencies --   1418.0151              1424.7415              1439.9503
 Red. masses --      1.3156                 1.2861                 1.1951
 Frc consts  --      1.5586                 1.5381                 1.4599
 IR Inten    --     14.3027                 6.3904                32.3642

                     79                     80                     81
                      A                      A                      A
 Frequencies --   1491.5602              1494.3084              1504.8905
 Red. masses --      2.4512                 1.1494                 1.0788
 Frc consts  --      3.2130                 1.5122                 1.4395
 IR Inten    --      4.8112                23.0339                 3.9532

                     82                     83                     84
                      A                      A                      A
 Frequencies --   1509.1195              1510.1261              1513.4815
 Red. masses --      1.1466                 1.1428                 1.1167
 Frc consts  --      1.5386                 1.5355                 1.5071
 IR Inten    --     22.3101                 0.3331                 4.4894

                     85                     86                     87
                      A                      A                      A
 Frequencies --   1518.5044              1539.4744              1644.8066
 Red. masses --      1.1132                 2.2712                 1.4551
 Frc consts  --      1.5123                 3.1713                 2.3194
 IR Inten    --      0.3840                 1.1709               116.9533

                     88                     89                     90
                      A                      A                      A
 Frequencies --   1650.1872              1671.0060              1777.6390
 Red. masses --      3.4991                 6.0087                 8.0014
 Frc consts  --      5.6140                 9.8853                14.8971
 IR Inten    --     39.0265                11.9522               255.3668

                     91                     92                     93
                      A                      A                      A
 Frequencies --   3037.8088              3050.1679              3062.0166
 Red. masses --      1.0701                 1.0617                 1.0612
 Frc consts  --      5.8183                 5.8199                 5.8623
 IR Inten    --     29.7530                26.5753                38.7771

                     94                     95                     96
                      A                      A                      A
 Frequencies --   3072.6196              3072.9015              3101.7376
 Red. masses --      1.0724                 1.0629                 1.1030
 Frc consts  --      5.9653                 5.9136                 6.2523
 IR Inten    --     16.4838                26.1184                33.5325

                     97                     98                     99
                      A                      A                      A
 Frequencies --   3112.5465              3124.7498              3131.3682
 Red. masses --      1.1042                 1.1034                 1.0967
 Frc consts  --      6.3027                 6.3478                 6.3361
 IR Inten    --     23.7933                11.5762                10.0317

                    100                    101                    102
                      A                      A                      A
 Frequencies --   3172.7107              3179.6931              3194.3131
 Red. masses --      1.0943                 1.0877                 1.0889
 Frc consts  --      6.4898                 6.4796                 6.5466
 IR Inten    --      3.1447                 6.7149                13.0607

                    103                    104                    105
                      A                      A                      A
 Frequencies --   3211.0354              3231.0228              3457.6451
 Red. masses --      1.0959                 1.0900                 1.0735
 Frc consts  --      6.6577                 6.7045                 7.5616
 IR Inten    --     22.1825                 1.7394                 3.2406

                    106                    107                    108
                      A                      A                      A
 Frequencies --   3548.9783              3583.8823              3704.3434
 Red. masses --      1.0755                 1.0458                 1.1029
 Frc consts  --      7.9814                 7.9145                 8.9170
 IR Inten    --     23.3439                42.1881                27.5321

 - Thermochemistry -
 -------------------
 Temperature   298.150 Kelvin.  Pressure   1.00000 Atm.
 Atom     1 has atomic number  6 and mass  12.00000

 Molecular mass:   298.10996 amu.
 Principal axes and moments of inertia in atomic units:
                           1         2         3
     Eigenvalues --  3775.752837151.776729476.21246
           X            0.99971   0.02145   0.01129
           Y           -0.02131   0.99969  -0.01289
           Z           -0.01156   0.01265   0.99985
 This molecule is an asymmetric top.
 Rotational symmetry number  1.
 Warning -- assumption of classical behavior for rotation
           may cause significant error
 Rotational temperatures (Kelvin)      0.02294     0.01211     0.00914
 Rotational constants (GHZ):           0.47798     0.25235     0.19045
 Zero-point vibrational energy     823206.5 (Joules/Mol)
                                  196.75108 (Kcal/Mol)
 Warning -- explicit consideration of  31 degrees of freedom as
           vibrations may cause significant error
 Vibrational temperatures:     14.45    60.27    64.70    87.60   102.58
          (Kelvin)            112.00   168.84   229.92   253.10   262.36
                              282.73   340.48   396.53   414.91   453.07
                              473.38   551.17   554.71   574.21   592.88
                              610.85   641.94   650.97   677.07   704.83
                              726.63   742.07   778.26   815.83   819.14
                              865.41   894.79   940.80   947.18  1019.57
                             1067.65  1114.03  1157.62  1168.31  1184.76
                             1209.72  1247.59  1300.59  1310.19  1332.29
                             1365.82  1378.71  1406.42  1433.71  1468.88
                             1475.58  1485.15  1525.63  1540.92  1591.27
                             1618.53  1628.40  1648.17  1655.13  1689.81
                             1706.97  1740.38  1764.83  1791.49  1830.03
                             1863.15  1892.98  1935.56  1953.05  1971.42
                             1973.16  1973.89  1993.67  2013.31  2016.64
                             2040.21  2049.89  2071.77  2146.02  2149.98
                             2165.20  2171.29  2172.73  2177.56  2184.79
                             2214.96  2366.51  2374.25  2404.20  2557.63
                             4370.73  4388.51  4405.56  4420.81  4421.22
                             4462.71  4478.26  4495.82  4505.34  4564.82
                             4574.87  4595.90  4619.96  4648.72  4974.78
                             5106.19  5156.41  5329.72

 Zero-point correction=                           0.313543 (Hartree/Particle)
 Thermal correction to Energy=                    0.332225
 Thermal correction to Enthalpy=                  0.333169
 Thermal correction to Gibbs Free Energy=         0.264925
 Sum of electronic and zero-point Energies=          -1310.684320
 Sum of electronic and thermal Energies=             -1310.665638
 Sum of electronic and thermal Enthalpies=           -1310.664693
 Sum of electronic and thermal Free Energies=        -1310.732938

                     E (Thermal)             CV                S
                      KCal/Mol        Cal/Mol-Kelvin    Cal/Mol-Kelvin
 Total                  208.474             72.704            143.633
 Electronic               0.000              0.000              0.000
 Translational            0.889              2.981             42.974
 Rotational               0.889              2.981             33.903
 Vibrational            206.697             66.742             66.756
 Vibration     1          0.593              1.987              8.003
 Vibration     2          0.595              1.980              5.168
 Vibration     3          0.595              1.979              5.027
 Vibration     4          0.597              1.973              4.428
 Vibration     5          0.598              1.968              4.117
 Vibration     6          0.599              1.964              3.944
 Vibration     7          0.608              1.935              3.144
 Vibration     8          0.622              1.892              2.552
 Vibration     9          0.628              1.872              2.371
 Vibration    10          0.630              1.864              2.304
 Vibration    11          0.636              1.845              2.166
 Vibration    12          0.656              1.785              1.828
 Vibration    13          0.677              1.718              1.561
 Vibration    14          0.685              1.695              1.483
 Vibration    15          0.702              1.645              1.336
 Vibration    16          0.712              1.618              1.265
 Vibration    17          0.752              1.506              1.027
 Vibration    18          0.754              1.501              1.017
 Vibration    19          0.765              1.472              0.966
 Vibration    20          0.776              1.444              0.919
 Vibration    21          0.787              1.417              0.877
 Vibration    22          0.805              1.369              0.807
 Vibration    23          0.811              1.355              0.788
 Vibration    24          0.828              1.315              0.736
 Vibration    25          0.846              1.272              0.684
 Vibration    26          0.860              1.239              0.646
 Vibration    27          0.871              1.215              0.620
 Vibration    28          0.896              1.160              0.563
 Vibration    29          0.923              1.103              0.510
 Vibration    30          0.925              1.098              0.506
 Vibration    31          0.960              1.029              0.447

                           ! Non-Optimized Parameters !
 Normal termination of Gaussian 16 at Sun Dec 13 17:00:54 2020.

 ----------------------------------------------------------------------
 # B3LYP/6-311++G(d,p) empiricaldispersion=gd3bj scf=xqc pop=npa geom=c
 heck
 ----------------------------------------------------------------------

 ---------------------------------------
 CID_61252338_JID_10000_Energie_neutraal
 ---------------------------------------
 Structure from the checkpoint file:  "JID_10000.chk"
 Charge =  0 Multiplicity = 1

 SCF Done:  E(RB3LYP) =  -1311.29318004     A.U. after   16 cycles
 Normal termination of Gaussian 16 at Sun Dec 13 17:09:35 2020.

 ----------------------------------------------------------------------
 # B3LYP/6-311++G(d,p) empiricaldispersion=gd3bj scf=xqc pop=npa geom=c
 heck
 ----------------------------------------------------------------------

 -------------------------------------
 CID_61252338_JID_10000_Energie_kation
 -------------------------------------
 Structure from the checkpoint file:  "JID_10000.chk"
 Charge =  1 Multiplicity = 2

 SCF Done:  E(UB3LYP) =  -1311.00447180     A.U. after   29 cycles
 Normal termination of Gaussian 16 at Sun Dec 13 17:29:53 2020.
 Gaussian 16:  ES64L-G16RevA.03 25-Dec-2016

 ----------------------------------------------------------------------
 # B3LYP/6-311++G(d,p) empiricaldispersion=gd3bj scf=xqc pop=npa geom=c
 heck
 ----------------------------------------------------------------------

 ------------------------------------
 CID_61252338_JID_10000_Energie_anion
 ------------------------------------
 Structure from the checkpoint file:  "JID_10000.chk"
 Charge = -1 Multiplicity = 2

                         Standard orientation:
 ---------------------------------------------------------------------
 Center     Atomic      Atomic             Coordinates (Angstroms)
 Number     Number       Type             X           Y           Z
 ---------------------------------------------------------------------
      1          6           0        2.166156    2.161216   -1.068605
      2          6           0        1.017274    1.439966   -0.357607
      3          7           0        1.497329    0.231052    0.347851
      4          6           0        2.660992    0.475719    1.223614
      5          6           0        3.776063    1.222793    0.478648
      6          7           0        3.312266    2.438562   -0.195384
      7         16           0        1.526958   -1.196406   -0.520294
      8          8           0        0.508673   -1.083030   -1.566452
      9          8           0        2.872784   -1.643002   -0.892682
     10          7           0        1.086324   -2.238516    0.734340
     11          6           0       -0.122336   -1.972666    1.542473
     12          6           0       -1.343154   -1.488206    0.791411
     13          6           0       -1.695774   -0.143868    0.865541
     14          6           0       -2.761224    0.367719    0.120416
     15          6           0       -3.491953   -0.492214   -0.707569
     16          6           0       -3.158308   -1.845364   -0.773004
     17          6           0       -2.090579   -2.340468   -0.028107
     18          6           0       -3.019616    1.840321    0.222556
     19          8           0       -2.162530    2.626281    0.614339
     20          7           0       -4.261449    2.267525   -0.177948
     21          1           0        2.521409    1.541332   -1.901933
     22          1           0        1.807721    3.106477   -1.491634
     23          1           0        0.225955    1.144316   -1.045558
     24          1           0        0.561473    2.084988    0.402718
     25          1           0        2.292291    1.079300    2.064220
     26          1           0        3.007140   -0.480751    1.622914
     27          1           0        4.198252    0.553298   -0.278748
     28          1           0        4.578963    1.488465    1.176157
     29          1           0        3.029673    3.121818    0.508357
     30          1           0        1.176601   -3.193737    0.398091
     31          1           0       -0.330272   -2.913025    2.064125
     32          1           0        0.149930   -1.232239    2.298538
     33          1           0       -1.124132    0.539361    1.482724
     34          1           0       -4.291457   -0.107161   -1.333683
     35          1           0       -3.720366   -2.509285   -1.423034
     36          1           0       -1.820356   -3.391086   -0.104005
     37          1           0       -5.042586    1.628220   -0.181072
     38          1           0       -4.469517    3.240174    0.004284
 ---------------------------------------------------------------------

 SCF Done:  E(UB3LYP) =  -1311.29650532     A.U. after   33 cycles
 SCF Done:  E(UB3LYP) =  -1311.29650532     a.u. after    1 cycles

 The electronic state is 2-A.
 Alpha  occ. eigenvalues --  -88.97070 -19.01178 -19.00761 -18.94980 -14.24610
 Alpha  occ. eigenvalues --  -14.23280 -14.21556 -14.20786 -10.12921 -10.11818
 Alpha  occ. eigenvalues --  -10.10758 -10.10262 -10.09987 -10.09861 -10.04367
 Alpha  occ. eigenvalues --  -10.04357 -10.03748 -10.03691 -10.03365 -10.02929
 Alpha  occ. eigenvalues --   -8.02991  -5.99257  -5.99224  -5.99183  -1.02126
 Alpha  occ. eigenvalues --   -0.90268  -0.90211  -0.85901  -0.81963  -0.80121
 Alpha  occ. eigenvalues --   -0.77974  -0.72474  -0.67893  -0.64722  -0.62093
 Alpha  occ. eigenvalues --   -0.61794  -0.57114  -0.55916  -0.53698  -0.51081
 Alpha  occ. eigenvalues --   -0.48335  -0.46805  -0.44968  -0.43223  -0.41814
 Alpha  occ. eigenvalues --   -0.41692  -0.38691  -0.38553  -0.38033  -0.36947
 Alpha  occ. eigenvalues --   -0.36412  -0.35633  -0.34932  -0.33819  -0.33354
 Alpha  occ. eigenvalues --   -0.32455  -0.31617  -0.30689  -0.29461  -0.28932
 Alpha  occ. eigenvalues --   -0.28321  -0.27565  -0.27315  -0.26637  -0.26285
 Alpha  occ. eigenvalues --   -0.24829  -0.24221  -0.23009  -0.22274  -0.21873
 Alpha  occ. eigenvalues --   -0.21605  -0.20145  -0.18287  -0.15720  -0.15634
 Alpha  occ. eigenvalues --   -0.13260  -0.12901  -0.12439  -0.12130   0.04450
 Alpha virt. eigenvalues --    0.06470   0.07081   0.07566   0.08746   0.09006
 Alpha virt. eigenvalues --    0.09501   0.10046   0.10529   0.11140   0.11391
 Alpha virt. eigenvalues --    0.11826   0.12257   0.12656   0.13143   0.13466

  Beta  occ. eigenvalues --  -88.97070 -19.01176 -19.00759 -18.94759 -14.24604
  Beta  occ. eigenvalues --  -14.23253 -14.21554 -14.20752 -10.12737 -10.11814
  Beta  occ. eigenvalues --  -10.10755 -10.10262 -10.09986 -10.09847 -10.04448
  Beta  occ. eigenvalues --  -10.04317 -10.03734 -10.03488 -10.03182 -10.02614
  Beta  occ. eigenvalues --   -8.02991  -5.99257  -5.99224  -5.99183  -1.02121
  Beta  occ. eigenvalues --   -0.90208  -0.89867  -0.85894  -0.81926  -0.80097
  Beta  occ. eigenvalues --   -0.77802  -0.72170  -0.67887  -0.64492  -0.61729
  Beta  occ. eigenvalues --   -0.61691  -0.56943  -0.55907  -0.53659  -0.50505
  Beta  occ. eigenvalues --   -0.48278  -0.46697  -0.44757  -0.43150  -0.41782
  Beta  occ. eigenvalues --   -0.41603  -0.38668  -0.38506  -0.37961  -0.36904
  Beta  occ. eigenvalues --   -0.36400  -0.35541  -0.34736  -0.33753  -0.33323
  Beta  occ. eigenvalues --   -0.32273  -0.31440  -0.30668  -0.29363  -0.28331
  Beta  occ. eigenvalues --   -0.27977  -0.27452  -0.27024  -0.26612  -0.26269
  Beta  occ. eigenvalues --   -0.24660  -0.24112  -0.22908  -0.22101  -0.21545
  Beta  occ. eigenvalues --   -0.21339  -0.20103  -0.18271  -0.15596  -0.14990
  Beta  occ. eigenvalues --   -0.13001  -0.12705  -0.11694  -0.10838
  Beta virt. eigenvalues --    0.06443   0.07371   0.07791   0.08671   0.08921
  Beta virt. eigenvalues --    0.09421   0.09686   0.10109   0.10814   0.11197
  Beta virt. eigenvalues --    0.11563   0.11811   0.12222   0.12778   0.13069

 Mulliken charges and spin densities:
               1          2
     1  C   -0.732075  -0.018290
     2  C   -0.229776   0.018951
     3  N   -0.289052   0.008459
     4  C   -0.094814  -0.002406
     5  C   -0.434970  -0.162623
     6  N   -0.104633   0.009738
     7  S    0.553464  -0.164015
     8  O   -0.127905  -0.000993
     9  O   -0.041447   0.000360
    10  N   -0.307923  -0.109772
    11  C   -0.039914  -0.682896
    12  C    0.593545   0.190845
    13  C    0.134890  -0.353389
    14  C    0.447308   0.072758
    15  C   -0.423949   0.258465
    16  C   -0.488285  -0.096505
    17  C   -0.577522   0.517976
    18  C   -0.312476   0.089981
    19  O   -0.397895   0.078822
    20  N   -0.359774   0.003924
    21  H    0.213579   0.001634
    22  H    0.180845   0.012673
    23  H    0.235204  -0.006245
    24  H    0.234816   0.005520
    25  H    0.124747   0.041964
    26  H    0.140021   0.058097
    27  H    0.211439  -0.001895
    28  H    0.095577   0.074889
    29  H    0.202093   0.014446
    30  H    0.156681   0.182908
    31  H   -0.499466   0.707026
    32  H    0.165219   0.013334
    33  H    0.207620  -0.014437
    34  H    0.120388  -0.019161
    35  H    0.129290  -0.006426
    36  H   -0.107413   0.215409
    37  H    0.155683   0.051141
    38  H    0.266881   0.009733
 Sum of Mulliken charges =  -1.00000   1.00000

 Dipole moment (field-independent basis, Debye):
    X=              2.2199    Y=              3.2624    Z=              0.7097  Tot=              4.0094
 Quadrupole moment (field-independent basis, Debye-Ang):
   XX=           -167.4868   YY=           -168.1170   ZZ=           -146.1764
   XY=              1.2954   XZ=             10.2021   YZ=              4.1204

 Summary of Natural Population Analysis:

                                       Natural Population
                Natural  -----------------------------------------------
    Atom  No    Charge         Core      Valence    Rydberg      Total
 -----------------------------------------------------------------------
      C    1   -0.09884      0.99963     2.08922    0.01000     3.09884
      C    2   -0.10338      0.99961     2.09313    0.01064     3.10338
      N    3   -0.37540      0.99974     2.85948    0.01618     3.87540
      C    4   -0.09815      0.99961     2.08805    0.01048     3.09815
      C    5   -0.10094      0.99963     2.09094    0.01038     3.10094
      N    6   -0.33809      0.99977     2.82578    0.01254     3.83809
      S    7    1.16703      4.99924     1.72787    0.10586     6.83297
      O    8   -0.45059      0.99990     3.44494    0.00575     4.45059
      O    9   -0.46883      0.99990     3.46345    0.00548     4.46883
      N   10   -0.43248      0.99975     2.92042    0.01231     3.93248
      C   11   -0.09346      0.99957     2.07934    0.01454     3.09346
      C   12   -0.03576      0.99949     2.02609    0.01019     3.03576
      C   13   -0.07605      0.99948     2.06688    0.00969     3.07605
      C   14   -0.04639      0.99945     2.03723    0.00971     3.04639
      C   15   -0.05851      0.99954     2.04979    0.00918     3.05851
      C   16   -0.11978      0.99957     2.11094    0.00927     3.11978
      C   17   -0.03219      0.99951     2.02248    0.01019     3.03219
      C   18    0.35554      0.99966     1.62223    0.02257     2.64446
      O   19   -0.31725      0.99988     3.31140    0.00598     4.31725
      N   20   -0.41054      0.99971     2.90319    0.00763     3.91054
      H   21    0.09421      0.00000     0.40465    0.00115     0.40579
      H   22    0.09644      0.00000     0.40263    0.00094     0.40356
      H   23    0.12506      0.00000     0.37324    0.00170     0.37494
      H   24    0.10637      0.00000     0.39156    0.00207     0.39363
      H   25    0.09284      0.00000     0.40566    0.00150     0.40716
      H   26    0.11123      0.00000     0.38732    0.00145     0.38877
      H   27    0.10248      0.00000     0.39618    0.00134     0.39752
      H   28    0.09221      0.00000     0.40654    0.00125     0.40779
      H   29    0.16674      0.00000     0.33120    0.00206     0.33326
      H   30    0.19577      0.00000     0.30193    0.00231     0.30423
      H   31    0.10524      0.00000     0.39222    0.00254     0.39476
      H   32    0.09502      0.00000     0.40344    0.00154     0.40498
      H   33    0.10438      0.00000     0.39424    0.00138     0.39562
      H   34    0.09068      0.00000     0.40838    0.00094     0.40932
      H   35    0.09159      0.00000     0.40718    0.00123     0.40841
      H   36    0.09005      0.00000     0.40885    0.00109     0.40995
      H   37    0.18826      0.00000     0.30951    0.00223     0.31174
      H   38    0.18550      0.00000     0.31170    0.00280     0.31450
 =======================================================================
   * Total *    0.00000     23.99265    54.66927    0.33809    79.00000

 Normal termination of Gaussian 16 at Sun Dec 13 17:53:25 2020.
