 Gaussian 16, Revision A.03,

 -----------------------------------------------------------
 # opt freq B3LYP/6-31G(d) empiricaldispersion=gd3bj scf=xqc
 -----------------------------------------------------------

 -------------------------------
 CID_129349550_JID_2912_neutraal
 -------------------------------
 Symbolic Z-matrix:
 Charge =  0 Multiplicity = 1

 SCF Done:  E(RB3LYP) =  -558.392202465     A.U. after   13 cycles
 SCF Done:  E(RB3LYP) =  -558.395211480     A.U. after   11 cycles
 SCF Done:  E(RB3LYP) =  -558.395527108     A.U. after   11 cycles
 SCF Done:  E(RB3LYP) =  -558.395657261     A.U. after   10 cycles
 SCF Done:  E(RB3LYP) =  -558.395732743     A.U. after    9 cycles
 SCF Done:  E(RB3LYP) =  -558.395852318     A.U. after   10 cycles
 SCF Done:  E(RB3LYP) =  -558.395912597     A.U. after   10 cycles
 SCF Done:  E(RB3LYP) =  -558.395975050     A.U. after   10 cycles
 SCF Done:  E(RB3LYP) =  -558.396071626     A.U. after   11 cycles
 SCF Done:  E(RB3LYP) =  -558.396088835     A.U. after   11 cycles
 SCF Done:  E(RB3LYP) =  -558.396107329     A.U. after    9 cycles
 SCF Done:  E(RB3LYP) =  -558.396112528     A.U. after    9 cycles
 SCF Done:  E(RB3LYP) =  -558.396114131     A.U. after    7 cycles
 SCF Done:  E(RB3LYP) =  -558.396114685     A.U. after    7 cycles
 SCF Done:  E(RB3LYP) =  -558.396114873     A.U. after    7 cycles
 Optimization completed.
    -- Stationary point found.
 Normal termination of Gaussian 16 at Wed Dec  9 18:14:41 2020.

 --------------------------------------------------------------------
 #N Geom=AllCheck Guess=TCheck SCRF=Check GenChk RB3LYP/6-31G(d) Freq
 --------------------------------------------------------------------

 Structure from the checkpoint file:  "JID_2912.chk"
 -------------------------------
 CID_129349550_JID_2912_neutraal
 -------------------------------
 Charge =  0 Multiplicity = 1

 SCF Done:  E(RB3LYP) =  -558.396114873     A.U. after    1 cycles

  Exact polarizability: 123.124  -0.260  91.680  -2.367  -2.437  93.128
 Approx polarizability: 149.183  -0.648 136.188  -0.759  -2.366 141.138

                      1                      2                      3
                      A                      A                      A
 Frequencies --     33.0856                65.0314                75.0678
 Red. masses --      4.1549                 3.9746                 2.2010
 Frc consts  --      0.0027                 0.0099                 0.0073
 IR Inten    --      0.4689                 2.3167                 1.5198

                      4                      5                      6
                      A                      A                      A
 Frequencies --    132.3507               153.3207               185.3733
 Red. masses --      3.6076                 4.1697                 2.6257
 Frc consts  --      0.0372                 0.0578                 0.0532
 IR Inten    --     11.9953                 3.7330                12.4373

                      7                      8                      9
                      A                      A                      A
 Frequencies --    238.9441               247.7934               259.1074
 Red. masses --      2.0379                 2.8479                 1.5834
 Frc consts  --      0.0686                 0.1030                 0.0626
 IR Inten    --      4.5177                 6.4633                35.9925

                     10                     11                     12
                      A                      A                      A
 Frequencies --    338.8374               343.9193               369.5638
 Red. masses --      1.4755                 2.9019                 2.0759
 Frc consts  --      0.0998                 0.2022                 0.1670
 IR Inten    --     71.1190                 2.2016                 3.5668

                     13                     14                     15
                      A                      A                      A
 Frequencies --    396.7608               436.5453               523.7559
 Red. masses --      2.1059                 2.3093                 2.8272
 Frc consts  --      0.1953                 0.2593                 0.4570
 IR Inten    --      0.3662                 2.6668                 7.0809

                     16                     17                     18
                      A                      A                      A
 Frequencies --    613.2751               684.0845               701.3497
 Red. masses --      2.5070                 3.5132                 3.1388
 Frc consts  --      0.5555                 0.9687                 0.9097
 IR Inten    --      2.7719                 2.7468                 2.9054

                     19                     20                     21
                      A                      A                      A
 Frequencies --    774.2007               828.2290               857.2083
 Red. masses --      2.2217                 3.5225                 1.6080
 Frc consts  --      0.7846                 1.4237                 0.6961
 IR Inten    --      1.1730                 3.9912                 3.2326

                     22                     23                     24
                      A                      A                      A
 Frequencies --    868.1378               904.3935               917.5676
 Red. masses --      2.3734                 1.8396                 2.6341
 Frc consts  --      1.0539                 0.8865                 1.3066
 IR Inten    --     10.8093                 0.2228                 7.9322

                     25                     26                     27
                      A                      A                      A
 Frequencies --    930.2144               956.8915               975.7364
 Red. masses --      2.1799                 2.4952                 1.9651
 Frc consts  --      1.1114                 1.3461                 1.1023
 IR Inten    --     16.7927                10.3909                 8.5874

                     28                     29                     30
                      A                      A                      A
 Frequencies --    987.6019              1004.0733              1031.7373
 Red. masses --      1.8763                 2.2774                 1.4639
 Frc consts  --      1.0782                 1.3527                 0.9181
 IR Inten    --      5.3864                11.8288                 2.2277

                     31                     32                     33
                      A                      A                      A
 Frequencies --   1056.0327              1066.6307              1084.0013
 Red. masses --      2.0160                 1.6786                 3.2549
 Frc consts  --      1.3247                 1.1252                 2.2535
 IR Inten    --     21.7245                 2.0770                78.7848

                     34                     35                     36
                      A                      A                      A
 Frequencies --   1105.0212              1143.5315              1168.9019
 Red. masses --      5.0735                 2.8167                 1.6422
 Frc consts  --      3.6501                 2.1701                 1.3220
 IR Inten    --     70.6704                23.9785                37.6880

                     37                     38                     39
                      A                      A                      A
 Frequencies --   1182.6022              1197.9991              1211.3104
 Red. masses --      1.7417                 1.5579                 1.2689
 Frc consts  --      1.4352                 1.3174                 1.0969
 IR Inten    --     12.5713                 2.1088                 0.3778

                     40                     41                     42
                      A                      A                      A
 Frequencies --   1218.0355              1235.6318              1237.2326
 Red. masses --      1.9117                 1.2306                 1.3965
 Frc consts  --      1.6711                 1.1070                 1.2594
 IR Inten    --      4.5844                 0.4250                 3.7890

                     43                     44                     45
                      A                      A                      A
 Frequencies --   1249.9067              1274.1125              1292.2896
 Red. masses --      1.5024                 1.5219                 1.6292
 Frc consts  --      1.3829                 1.4556                 1.6031
 IR Inten    --     15.7249                10.5983                20.8990

                     46                     47                     48
                      A                      A                      A
 Frequencies --   1320.5161              1325.4553              1336.4783
 Red. masses --      1.3519                 1.6161                 1.3415
 Frc consts  --      1.3890                 1.6728                 1.4118
 IR Inten    --     14.6595                11.0370                 1.5690

                     49                     50                     51
                      A                      A                      A
 Frequencies --   1353.9782              1382.3618              1397.7332
 Red. masses --      1.5342                 1.3749                 1.3710
 Frc consts  --      1.6571                 1.5480                 1.5781
 IR Inten    --      7.6107                 0.9984                 2.1846

                     52                     53                     54
                      A                      A                      A
 Frequencies --   1404.4537              1413.3972              1419.1032
 Red. masses --      1.3915                 1.3272                 1.4123
 Frc consts  --      1.6171                 1.5621                 1.6758
 IR Inten    --     27.0285                23.3025                 3.6566

                     55                     56                     57
                      A                      A                      A
 Frequencies --   1426.1035              1434.5532              1502.6569
 Red. masses --      1.4250                 1.3273                 1.0961
 Frc consts  --      1.7075                 1.6094                 1.4583
 IR Inten    --      1.6617                21.5444                 3.8924

                     58                     59                     60
                      A                      A                      A
 Frequencies --   1519.4514              1521.9105              1530.8667
 Red. masses --      1.0958                 1.0933                 1.0875
 Frc consts  --      1.4905                 1.4919                 1.5015
 IR Inten    --      2.5162                 3.2718                 1.1759

                     61                     62                     63
                      A                      A                      A
 Frequencies --   1547.4001              1560.6401              1564.4548
 Red. masses --      1.0869                 1.0851                 1.0941
 Frc consts  --      1.5333                 1.5571                 1.5777
 IR Inten    --      4.0394                 2.0331                 0.6871

                     64                     65                     66
                      A                      A                      A
 Frequencies --   1573.3409              2903.0311              2980.2357
 Red. masses --      1.0930                 1.0747                 1.0696
 Frc consts  --      1.5941                 5.3362                 5.5974
 IR Inten    --      2.9819                84.1683                66.9233

                     67                     68                     69
                      A                      A                      A
 Frequencies --   2998.5889              3006.2289              3018.1991
 Red. masses --      1.0675                 1.0705                 1.0697
 Frc consts  --      5.6554                 5.7000                 5.7412
 IR Inten    --     61.4082                56.8848                63.4317

                     70                     71                     72
                      A                      A                      A
 Frequencies --   3040.8966              3043.5119              3051.9129
 Red. masses --      1.0602                 1.0933                 1.0813
 Frc consts  --      5.7760                 5.9670                 5.9341
 IR Inten    --     80.9422                29.6811                34.1404

                     73                     74                     75
                      A                      A                      A
 Frequencies --   3058.3547              3064.8999              3069.7819
 Red. masses --      1.0711                 1.0933                 1.0671
 Frc consts  --      5.9029                 6.0512                 5.9248
 IR Inten    --     32.0136                33.3809                43.8069

                     76                     77                     78
                      A                      A                      A
 Frequencies --   3076.1311              3085.4399              3099.2453
 Red. masses --      1.1014                 1.0930                 1.0974
 Frc consts  --      6.1407                 6.1307                 6.2106
 IR Inten    --     44.1098                24.8629                60.1991

                     79                     80                     81
                      A                      A                      A
 Frequencies --   3114.7498              3123.0079              3768.7482
 Red. masses --      1.1028                 1.1032                 1.0660
 Frc consts  --      6.3034                 6.3394                 8.9210
 IR Inten    --     34.0985                22.3977                18.2189

 - Thermochemistry -
 -------------------
 Temperature   298.150 Kelvin.  Pressure   1.00000 Atm.
 Atom     1 has atomic number  6 and mass  12.00000

 Molecular mass:   171.12593 amu.
 Principal axes and moments of inertia in atomic units:
                           1         2         3
     Eigenvalues --   975.231443082.650893393.00677
           X            0.99993  -0.00409  -0.01068
           Y            0.00389   0.99981  -0.01909
           Z            0.01075   0.01905   0.99976
 This molecule is an asymmetric top.
 Rotational symmetry number  1.
 Warning -- assumption of classical behavior for rotation
           may cause significant error
 Rotational temperatures (Kelvin)      0.08881     0.02810     0.02553
 Rotational constants (GHZ):           1.85058     0.58545     0.53190
 Zero-point vibrational energy     685431.6 (Joules/Mol)
                                  163.82209 (Kcal/Mol)
 Warning -- explicit consideration of  16 degrees of freedom as
           vibrations may cause significant error
 Vibrational temperatures:     47.60    93.57   108.01   190.42   220.59
          (Kelvin)            266.71   343.79   356.52   372.80   487.51
                              494.82   531.72   570.85   628.09   753.57
                              882.37   984.24  1009.09  1113.90  1191.64
                             1233.33  1249.06  1301.22  1320.18  1338.37
                             1376.75  1403.87  1420.94  1444.64  1484.44
                             1519.40  1534.64  1559.64  1589.88  1645.29
                             1681.79  1701.50  1723.65  1742.81  1752.48
                             1777.80  1780.10  1798.34  1833.16  1859.32
                             1899.93  1907.03  1922.89  1948.07  1988.91
                             2011.03  2020.70  2033.56  2041.77  2051.84
                             2064.00  2161.99  2186.15  2189.69  2202.58
                             2226.36  2245.41  2250.90  2263.69  4176.81
                             4287.89  4314.30  4325.29  4342.52  4375.17
                             4378.93  4391.02  4400.29  4409.71  4416.73
                             4425.87  4439.26  4459.12  4481.43  4493.31
                             5422.39

 Zero-point correction=                           0.261067 (Hartree/Particle)
 Thermal correction to Energy=                    0.273010
 Thermal correction to Enthalpy=                  0.273954
 Thermal correction to Gibbs Free Energy=         0.222361
 Sum of electronic and zero-point Energies=           -558.135048
 Sum of electronic and thermal Energies=              -558.123105
 Sum of electronic and thermal Enthalpies=            -558.122161
 Sum of electronic and thermal Free Energies=         -558.173754

                     E (Thermal)             CV                S
                      KCal/Mol        Cal/Mol-Kelvin    Cal/Mol-Kelvin
 Total                  171.316             45.211            108.587
 Electronic               0.000              0.000              0.000
 Translational            0.889              2.981             41.319
 Rotational               0.889              2.981             30.701
 Vibrational            169.539             39.249             36.566
 Vibration     1          0.594              1.983              5.635
 Vibration     2          0.597              1.971              4.298
 Vibration     3          0.599              1.966              4.016
 Vibration     4          0.612              1.921              2.912
 Vibration     5          0.619              1.899              2.631
 Vibration     6          0.631              1.860              2.274
 Vibration     7          0.657              1.781              1.811
 Vibration     8          0.661              1.766              1.746
 Vibration     9          0.668              1.747              1.668
 Vibration    10          0.719              1.598              1.218
 Vibration    11          0.723              1.588              1.194
 Vibration    12          0.742              1.535              1.082
 Vibration    13          0.763              1.477              0.975
 Vibration    14          0.797              1.391              0.838
 Vibration    15          0.879              1.197              0.601
 Vibration    16          0.973              1.004              0.427

                           ! Non-Optimized Parameters !
 Normal termination of Gaussian 16 at Wed Dec  9 18:22:23 2020.

 ----------------------------------------------------------------------
 # B3LYP/6-311++G(d,p) empiricaldispersion=gd3bj scf=xqc pop=npa geom=c
 heck
 ----------------------------------------------------------------------

 ---------------------------------------
 CID_129349550_JID_2912_Energie_neutraal
 ---------------------------------------
 Structure from the checkpoint file:  "JID_2912.chk"
 Charge =  0 Multiplicity = 1

 SCF Done:  E(RB3LYP) =  -558.563259522     A.U. after   13 cycles
 Normal termination of Gaussian 16 at Wed Dec  9 18:25:21 2020.

 ----------------------------------------------------------------------
 # B3LYP/6-311++G(d,p) empiricaldispersion=gd3bj scf=xqc pop=npa geom=c
 heck
 ----------------------------------------------------------------------

 -------------------------------------
 CID_129349550_JID_2912_Energie_kation
 -------------------------------------
 Structure from the checkpoint file:  "JID_2912.chk"
 Charge =  1 Multiplicity = 2

 SCF Done:  E(UB3LYP) =  -558.280750298     A.U. after   22 cycles
 Normal termination of Gaussian 16 at Wed Dec  9 18:31:00 2020.
 Gaussian 16:  ES64L-G16RevA.03 25-Dec-2016

 ----------------------------------------------------------------------
 # B3LYP/6-311++G(d,p) empiricaldispersion=gd3bj scf=xqc pop=npa geom=c
 heck
 ----------------------------------------------------------------------

 ------------------------------------
 CID_129349550_JID_2912_Energie_anion
 ------------------------------------
 Structure from the checkpoint file:  "JID_2912.chk"
 Charge = -1 Multiplicity = 2

                         Standard orientation:
 ---------------------------------------------------------------------
 Center     Atomic      Atomic             Coordinates (Angstroms)
 Number     Number       Type             X           Y           Z
 ---------------------------------------------------------------------
      1          6           0        0.704776   -1.245444    0.923810
      2          6           0       -0.802072   -1.100700    1.135161
      3          7           0       -1.311903   -1.019279   -0.225304
      4          6           0       -0.301727   -0.429834   -1.115699
      5          6           0        0.969181   -0.286582   -0.257406
      6          6           0        2.300944   -0.526670   -0.984723
      7          6           0        3.321730    0.228834   -0.114545
      8          8           0        2.575549    1.159492    0.686721
      9          6           0        1.220880    1.140254    0.261180
     10          6           0       -2.702409   -0.662128   -0.430067
     11          6           0       -3.166492    0.649032    0.222619
     12          8           0       -2.396482    1.780264   -0.176215
     13          1           0        1.294288   -0.988432    1.808770
     14          1           0        0.942610   -2.274835    0.632638
     15          1           0       -1.009427   -0.199648    1.747531
     16          1           0       -1.248760   -1.949824    1.668320
     17          1           0       -0.121061   -1.096065   -1.972937
     18          1           0       -0.614193    0.540103   -1.525223
     19          1           0        2.536033   -1.590199   -1.090690
     20          1           0        2.256641   -0.092683   -1.990672
     21          1           0        4.061390    0.770638   -0.717585
     22          1           0        3.861666   -0.440616    0.565618
     23          1           0        1.044293    1.877223   -0.540777
     24          1           0        0.602270    1.414373    1.124967
     25          1           0       -2.873885   -0.602741   -1.510779
     26          1           0       -3.344161   -1.472359   -0.049373
     27          1           0       -4.197340    0.857495   -0.083635
     28          1           0       -3.170891    0.549799    1.318696
     29          1           0       -1.537553    1.714096    0.266235
 ---------------------------------------------------------------------

 SCF Done:  E(UB3LYP) =  -558.548185757     A.U. after   29 cycles

 The electronic state is 2-A.
 Alpha  occ. eigenvalues --  -19.02598 -19.02158 -14.19684 -10.11461 -10.11429
 Alpha  occ. eigenvalues --  -10.11409 -10.09321 -10.08996 -10.08864 -10.08501
 Alpha  occ. eigenvalues --  -10.07023 -10.06337  -0.93868  -0.92671  -0.82953
 Alpha  occ. eigenvalues --   -0.71441  -0.65796  -0.63671  -0.62565  -0.57004
 Alpha  occ. eigenvalues --   -0.52901  -0.50034  -0.47167  -0.45744  -0.41633
 Alpha  occ. eigenvalues --   -0.40320  -0.39445  -0.37917  -0.37170  -0.34709
 Alpha  occ. eigenvalues --   -0.34327  -0.32793  -0.31383  -0.30887  -0.30398
 Alpha  occ. eigenvalues --   -0.28799  -0.26881  -0.26581  -0.25900  -0.24333
 Alpha  occ. eigenvalues --   -0.23694  -0.23096  -0.21958  -0.20833  -0.18821
 Alpha  occ. eigenvalues --   -0.15631  -0.10109   0.04583
 Alpha virt. eigenvalues --    0.06561   0.07751   0.07887   0.08572   0.09107
 Alpha virt. eigenvalues --    0.09660   0.10476   0.10550   0.11411   0.11734
 Alpha virt. eigenvalues --    0.12074   0.12883   0.13515   0.14354   0.14699

  Beta  occ. eigenvalues --  -19.02582 -19.02159 -14.19687 -10.11433 -10.11406
  Beta  occ. eigenvalues --  -10.11388 -10.09307 -10.08981 -10.08827 -10.08503
  Beta  occ. eigenvalues --  -10.06995 -10.06314  -0.93861  -0.92636  -0.82938
  Beta  occ. eigenvalues --   -0.71421  -0.65755  -0.63625  -0.62520  -0.56957
  Beta  occ. eigenvalues --   -0.52837  -0.49970  -0.47112  -0.45693  -0.41586
  Beta  occ. eigenvalues --   -0.40277  -0.39408  -0.37883  -0.37126  -0.34674
  Beta  occ. eigenvalues --   -0.34287  -0.32768  -0.31351  -0.30846  -0.30369
  Beta  occ. eigenvalues --   -0.28768  -0.26847  -0.26557  -0.25850  -0.24293
  Beta  occ. eigenvalues --   -0.23671  -0.23068  -0.21921  -0.20807  -0.18792
  Beta  occ. eigenvalues --   -0.15618  -0.10094
  Beta virt. eigenvalues --    0.06846   0.07500   0.08381   0.08641   0.09067
  Beta virt. eigenvalues --    0.09807   0.10153   0.10899   0.11026   0.11821
  Beta virt. eigenvalues --    0.12044   0.12496   0.13311   0.14048   0.14709

 Mulliken charges and spin densities:
               1          2
     1  C    0.926771  -1.178405
     2  C    0.551644  -0.947038
     3  N    0.001769   0.102251
     4  C   -1.290826   0.479965
     5  C   -1.124753   1.794082
     6  C    1.337121  -1.666610
     7  C    0.597254  -0.953435
     8  O   -0.149362   0.042196
     9  C    0.666145  -1.293728
    10  C   -0.691255   0.539387
    11  C    1.035910  -1.431447
    12  O   -0.259826   0.020149
    13  H   -0.136319   0.317826
    14  H   -0.095074   0.291399
    15  H    0.135538  -0.019613
    16  H   -0.683806   0.870849
    17  H   -0.338672   0.539396
    18  H    0.154994   0.032203
    19  H   -0.337164   0.489558
    20  H   -0.175014   0.330642
    21  H   -0.195537   0.351979
    22  H   -0.182565   0.338686
    23  H   -0.040913   0.213591
    24  H   -0.111188   0.281520
    25  H   -0.036231   0.176676
    26  H   -0.214519   0.356302
    27  H   -0.148610   0.304510
    28  H   -0.298174   0.457539
    29  H    0.102661   0.159570
 Sum of Mulliken charges =  -1.00000   1.00000

 Dipole moment (field-independent basis, Debye):
    X=             -0.3545    Y=              1.5708    Z=             -0.9889  Tot=              1.8897
 Quadrupole moment (field-independent basis, Debye-Ang):
   XX=           -138.2154   YY=           -119.4651   ZZ=           -112.9947
   XY=              1.2820   XZ=              6.2310   YZ=              1.4264

 Summary of Natural Population Analysis:

                                       Natural Population
                Natural  -----------------------------------------------
    Atom  No    Charge         Core      Valence    Rydberg      Total
 -----------------------------------------------------------------------
      C    1   -0.19051      0.99958     2.18059    0.01033     3.19051
      C    2   -0.08211      0.99962     2.07000    0.01250     3.08211
      N    3   -0.28984      0.99972     2.77620    0.01391     3.78984
      C    4   -0.07753      0.99956     2.06583    0.01215     3.07753
      C    5   -0.05867      0.99955     2.04471    0.01440     3.05867
      C    6   -0.20083      0.99959     2.19121    0.01003     3.20083
      C    7   -0.00896      0.99960     1.99696    0.01240     3.00896
      O    8   -0.30471      0.99990     3.29572    0.00910     4.30471
      C    9   -0.00577      0.99951     1.99377    0.01249     3.00577
      C   10   -0.09098      0.99961     2.07954    0.01183     3.09098
      C   11   -0.01932      0.99960     2.00725    0.01246     3.01932
      O   12   -0.37009      0.99990     3.36319    0.00700     4.37009
      H   13    0.10585      0.00000     0.39259    0.00156     0.39415
      H   14    0.10197      0.00000     0.39647    0.00156     0.39803
      H   15    0.07569      0.00000     0.42188    0.00243     0.42431
      H   16    0.09901      0.00000     0.39920    0.00179     0.40099
      H   17    0.09249      0.00000     0.40574    0.00177     0.40751
      H   18    0.09498      0.00000     0.40349    0.00153     0.40502
      H   19    0.10834      0.00000     0.38989    0.00177     0.39166
      H   20    0.10047      0.00000     0.39792    0.00161     0.39953
      H   21    0.08367      0.00000     0.41490    0.00142     0.41633
      H   22    0.08483      0.00000     0.41362    0.00155     0.41517
      H   23    0.07957      0.00000     0.41880    0.00163     0.42043
      H   24    0.08989      0.00000     0.40797    0.00213     0.41011
      H   25    0.09463      0.00000     0.40433    0.00104     0.40537
      H   26    0.09551      0.00000     0.40304    0.00145     0.40449
      H   27    0.08488      0.00000     0.41377    0.00135     0.41512
      H   28    0.07851      0.00000     0.41974    0.00176     0.42149
      H   29    0.22903      0.00000     0.26719    0.00377     0.27097
 =======================================================================
   * Total *   -0.00000     11.99575    34.83552    0.16873    47.00000

 Normal termination of Gaussian 16 at Wed Dec  9 18:38:44 2020.
