 Gaussian 16, Revision A.03,

 -----------------------------------------------------------
 # opt freq B3LYP/6-31G(d) empiricaldispersion=gd3bj scf=xqc
 -----------------------------------------------------------

 ------------------------------
 CID_45095775_JID_7522_neutraal
 ------------------------------
 Symbolic Z-matrix:
 Charge =  0 Multiplicity = 1

 SCF Done:  E(RB3LYP) =  -729.150783469     A.U. after   15 cycles
 SCF Done:  E(RB3LYP) =  -729.153935918     A.U. after   12 cycles
 SCF Done:  E(RB3LYP) =  -729.154244471     A.U. after   11 cycles
 SCF Done:  E(RB3LYP) =  -729.154284513     A.U. after   11 cycles
 SCF Done:  E(RB3LYP) =  -729.154352879     A.U. after   10 cycles
 SCF Done:  E(RB3LYP) =  -729.154390811     A.U. after   10 cycles
 SCF Done:  E(RB3LYP) =  -729.154410520     A.U. after   10 cycles
 SCF Done:  E(RB3LYP) =  -729.154420983     A.U. after    9 cycles
 SCF Done:  E(RB3LYP) =  -729.154430475     A.U. after   10 cycles
 SCF Done:  E(RB3LYP) =  -729.154434100     A.U. after   10 cycles
 SCF Done:  E(RB3LYP) =  -729.154439875     A.U. after   10 cycles
 SCF Done:  E(RB3LYP) =  -729.154440670     A.U. after   10 cycles
 SCF Done:  E(RB3LYP) =  -729.154441079     A.U. after   10 cycles
 SCF Done:  E(RB3LYP) =  -729.154441199     A.U. after    9 cycles
 SCF Done:  E(RB3LYP) =  -729.154441249     A.U. after    8 cycles
 Optimization completed.
    -- Stationary point found.
 Normal termination of Gaussian 16 at Sun Dec 13 16:11:53 2020.

 --------------------------------------------------------------------
 #N Geom=AllCheck Guess=TCheck SCRF=Check GenChk RB3LYP/6-31G(d) Freq
 --------------------------------------------------------------------

 Structure from the checkpoint file:  "JID_7522.chk"
 ------------------------------
 CID_45095775_JID_7522_neutraal
 ------------------------------
 Charge =  0 Multiplicity = 1

 SCF Done:  E(RB3LYP) =  -729.154441249     A.U. after    1 cycles

  Exact polarizability: 221.043  12.961 165.572  24.300  -4.118  95.614
 Approx polarizability: 300.958  29.997 284.470  46.909  -6.324 148.675

                      1                      2                      3
                      A                      A                      A
 Frequencies --      6.7195                29.2919                36.4542
 Red. masses --      5.4959                 4.5615                 2.8872
 Frc consts  --      0.0001                 0.0023                 0.0023
 IR Inten    --      2.1201                 1.5396                 0.5731

                      4                      5                      6
                      A                      A                      A
 Frequencies --     60.1034                77.4244                95.1945
 Red. masses --      3.9292                 4.3434                 3.4308
 Frc consts  --      0.0084                 0.0153                 0.0183
 IR Inten    --      1.4622                 0.8309                 1.3444

                      7                      8                      9
                      A                      A                      A
 Frequencies --    114.8441               152.0123               183.4523
 Red. masses --      3.9050                 1.0275                 4.0283
 Frc consts  --      0.0303                 0.0140                 0.0799
 IR Inten    --      3.0528                 0.1099                 4.2715

                     10                     11                     12
                      A                      A                      A
 Frequencies --    203.9579               223.5031               243.4777
 Red. masses --      1.7633                 3.5332                 1.6171
 Frc consts  --      0.0432                 0.1040                 0.0565
 IR Inten    --      2.6705                 3.7198                 0.4364

                     13                     14                     15
                      A                      A                      A
 Frequencies --    294.4542               335.7021               356.2691
 Red. masses --      3.3606                 2.2879                 1.8586
 Frc consts  --      0.1717                 0.1519                 0.1390
 IR Inten    --      6.1583                 7.3467                18.7520

                     16                     17                     18
                      A                      A                      A
 Frequencies --    377.6646               405.9804               435.7500
 Red. masses --      2.2990                 2.5777                 3.1152
 Frc consts  --      0.1932                 0.2503                 0.3485
 IR Inten    --     37.4378                21.0827                 0.7853

                     19                     20                     21
                      A                      A                      A
 Frequencies --    467.8078               476.8234               493.7763
 Red. masses --      2.7511                 2.6237                 3.4859
 Frc consts  --      0.3547                 0.3515                 0.5008
 IR Inten    --      0.1812                 6.0108                 8.5724

                     22                     23                     24
                      A                      A                      A
 Frequencies --    518.6577               546.5990               563.2952
 Red. masses --      3.2257                 3.0312                 2.7979
 Frc consts  --      0.5113                 0.5336                 0.5231
 IR Inten    --      5.3892                18.7486                 6.7842

                     25                     26                     27
                      A                      A                      A
 Frequencies --    590.5558               622.1543               677.0066
 Red. masses --      3.0840                 2.6268                 2.7235
 Frc consts  --      0.6337                 0.5991                 0.7355
 IR Inten    --     10.3189                 3.5655                36.3547

                     28                     29                     30
                      A                      A                      A
 Frequencies --    681.7655               706.4927               771.2338
 Red. masses --      3.6382                 1.6112                 4.8352
 Frc consts  --      0.9963                 0.4738                 1.6945
 IR Inten    --      1.2718               108.3053                 1.4053

                     31                     32                     33
                      A                      A                      A
 Frequencies --    778.6763               788.7991               796.6313
 Red. masses --      3.6752                 1.8742                 1.2960
 Frc consts  --      1.3130                 0.6871                 0.4846
 IR Inten    --      3.0659                 4.7485                 0.6998

                     34                     35                     36
                      A                      A                      A
 Frequencies --    803.6268               817.0719               827.4690
 Red. masses --      2.2236                 1.5267                 3.0804
 Frc consts  --      0.8461                 0.6005                 1.2427
 IR Inten    --     14.7294                12.9135                 8.4820

                     37                     38                     39
                      A                      A                      A
 Frequencies --    890.9444               907.5521               927.9895
 Red. masses --      1.4798                 2.3617                 3.6585
 Frc consts  --      0.6921                 1.1461                 1.8563
 IR Inten    --      7.1776                10.1171                 9.3502

                     40                     41                     42
                      A                      A                      A
 Frequencies --    932.6297               945.6981               993.4363
 Red. masses --      1.2828                 2.0780                 2.2467
 Frc consts  --      0.6574                 1.0950                 1.3064
 IR Inten    --      0.5213                14.8615                 0.3188

                     43                     44                     45
                      A                      A                      A
 Frequencies --   1016.1352              1045.1913              1065.1265
 Red. masses --      1.8237                 1.8277                 1.7526
 Frc consts  --      1.1095                 1.1764                 1.1714
 IR Inten    --     24.7221                 2.9896                 4.8453

                     46                     47                     48
                      A                      A                      A
 Frequencies --   1083.2476              1097.7405              1100.2673
 Red. masses --      1.7963                 1.8415                 1.8584
 Frc consts  --      1.2419                 1.3074                 1.3255
 IR Inten    --     12.7229                 1.7839                 1.8271

                     49                     50                     51
                      A                      A                      A
 Frequencies --   1120.4581              1145.6146              1172.3865
 Red. masses --      1.4888                 3.0275                 1.2980
 Frc consts  --      1.1012                 2.3410                 1.0511
 IR Inten    --     31.8830                 6.8736                 0.7326

                     52                     53                     54
                      A                      A                      A
 Frequencies --   1201.5969              1234.5600              1259.5697
 Red. masses --      1.4905                 1.9150                 2.2451
 Frc consts  --      1.2680                 1.7197                 2.0986
 IR Inten    --      0.7315                 6.3377                14.4691

                     55                     56                     57
                      A                      A                      A
 Frequencies --   1276.1634              1285.7792              1296.9948
 Red. masses --      1.4317                 1.3211                 1.5068
 Frc consts  --      1.3738                 1.2868                 1.4934
 IR Inten    --     31.6742                 4.2787                11.9752

                     58                     59                     60
                      A                      A                      A
 Frequencies --   1337.0047              1354.8236              1372.6739
 Red. masses --      2.2504                 1.8182                 1.5806
 Frc consts  --      2.3702                 1.9663                 1.7547
 IR Inten    --      7.0355               151.7982                 6.6963

                     61                     62                     63
                      A                      A                      A
 Frequencies --   1373.8510              1382.6277              1398.8147
 Red. masses --      1.8308                 1.5517                 3.0765
 Frc consts  --      2.0359                 1.7477                 3.5467
 IR Inten    --      3.4427                 2.2059                22.6495

                     64                     65                     66
                      A                      A                      A
 Frequencies --   1412.6071              1433.7658              1434.9837
 Red. masses --      1.4447                 1.6939                 1.2246
 Frc consts  --      1.6985                 2.0516                 1.4857
 IR Inten    --     14.5180               101.4915                 1.5710

                     67                     68                     69
                      A                      A                      A
 Frequencies --   1467.0462              1498.0937              1499.1715
 Red. masses --      2.8324                 1.1011                 1.4988
 Frc consts  --      3.5917                 1.4559                 1.9847
 IR Inten    --     18.9259                 7.8540                81.8276

                     70                     71                     72
                      A                      A                      A
 Frequencies --   1502.5120              1509.1659              1518.0364
 Red. masses --      2.3129                 1.1213                 1.0834
 Frc consts  --      3.0764                 1.5047                 1.4710
 IR Inten    --      4.6866                 4.1779                 1.7257

                     73                     74                     75
                      A                      A                      A
 Frequencies --   1518.2848              1525.6788              1527.5531
 Red. masses --      1.0807                 1.0440                 1.3008
 Frc consts  --      1.4678                 1.4318                 1.7884
 IR Inten    --     18.8706                 7.1056                12.4319

                     76                     77                     78
                      A                      A                      A
 Frequencies --   1528.7197              1539.8568              1606.4108
 Red. masses --      2.2248                 1.2187                 5.6223
 Frc consts  --      3.0634                 1.7026                 8.5482
 IR Inten    --      4.9756                 5.7380                 6.4873

                     79                     80                     81
                      A                      A                      A
 Frequencies --   1638.7200              1684.3228              1792.7902
 Red. masses --      5.4306                 6.4249                 7.7440
 Frc consts  --      8.5923                10.7391                14.6647
 IR Inten    --      4.1027                 0.5133               329.8753

                     82                     83                     84
                      A                      A                      A
 Frequencies --   3040.2057              3041.9987              3046.5839
 Red. masses --      1.0608                 1.0599                 1.0346
 Frc consts  --      5.7768                 5.7788                 5.6578
 IR Inten    --     38.4755                28.8578                40.0443

                     85                     86                     87
                      A                      A                      A
 Frequencies --   3059.3659              3070.3542              3075.3929
 Red. masses --      1.0396                 1.0742                 1.1027
 Frc consts  --      5.7329                 5.9666                 6.1450
 IR Inten    --      5.3870                10.1517                11.1982

                     88                     89                     90
                      A                      A                      A
 Frequencies --   3087.0542              3115.7176              3119.6652
 Red. masses --      1.0905                 1.1026                 1.1003
 Frc consts  --      6.1228                 6.3063                 6.3092
 IR Inten    --     41.5770                54.8035                14.5753

                     91                     92                     93
                      A                      A                      A
 Frequencies --   3121.2719              3125.9581              3172.1972
 Red. masses --      1.1034                 1.1036                 1.0895
 Frc consts  --      6.3333                 6.3536                 6.4593
 IR Inten    --     34.1919                39.5886                17.6323

                     94                     95                     96
                      A                      A                      A
 Frequencies --   3177.0978              3178.4860              3196.6528
 Red. masses --      1.0868                 1.1005                 1.0946
 Frc consts  --      6.4633                 6.5506                 6.5902
 IR Inten    --      9.9360                 9.4097                24.2773

                     97                     98                     99
                      A                      A                      A
 Frequencies --   3266.5161              3574.7462              3673.4262
 Red. masses --      1.0971                 1.0748                 1.0801
 Frc consts  --      6.8968                 8.0924                 8.5873
 IR Inten    --      0.3822                14.8828                66.3330

 - Thermochemistry -
 -------------------
 Temperature   298.150 Kelvin.  Pressure   1.00000 Atm.
 Atom     1 has atomic number  6 and mass  12.00000

 Molecular mass:   230.14191 amu.
 Principal axes and moments of inertia in atomic units:
                           1         2         3
     Eigenvalues --  1764.328928222.681709345.43322
           X            0.99998   0.00015   0.00609
           Y           -0.00007   0.99993  -0.01170
           Z           -0.00609   0.01170   0.99991
 This molecule is an asymmetric top.
 Rotational symmetry number  1.
 Warning -- assumption of classical behavior for rotation
           may cause significant error
 Rotational temperatures (Kelvin)      0.04909     0.01053     0.00927
 Rotational constants (GHZ):           1.02291     0.21948     0.19311
 Zero-point vibrational energy     786903.5 (Joules/Mol)
                                  188.07444 (Kcal/Mol)
 Warning -- explicit consideration of  25 degrees of freedom as
           vibrations may cause significant error
 Vibrational temperatures:      9.67    42.14    52.45    86.48   111.40
          (Kelvin)            136.96   165.24   218.71   263.95   293.45
                              321.57   350.31   423.65   483.00   512.59
                              543.38   584.12   626.95   673.07   686.04
                              710.43   746.23   786.43   810.46   849.68
                              895.14   974.06   980.91  1016.49  1109.63
                             1120.34  1134.91  1146.17  1156.24  1175.58
                             1190.54  1281.87  1305.77  1335.17  1341.85
                             1360.65  1429.33  1461.99  1503.80  1532.48
                             1558.55  1579.40  1583.04  1612.09  1648.28
                             1686.80  1728.83  1776.26  1812.24  1836.11
                             1849.95  1866.09  1923.65  1949.29  1974.97
                             1976.67  1989.29  2012.58  2032.43  2062.87
                             2064.62  2110.75  2155.42  2156.97  2161.78
                             2171.35  2184.12  2184.47  2195.11  2197.81
                             2199.49  2215.51  2311.27  2357.75  2423.36
                             2579.43  4374.18  4376.76  4383.35  4401.75
                             4417.55  4424.80  4441.58  4482.82  4488.50
                             4490.81  4497.56  4564.08  4571.14  4573.13
                             4599.27  4699.79  5143.26  5285.24

 Zero-point correction=                           0.299716 (Hartree/Particle)
 Thermal correction to Energy=                    0.316392
 Thermal correction to Enthalpy=                  0.317337
 Thermal correction to Gibbs Free Energy=         0.252197
 Sum of electronic and zero-point Energies=           -728.854726
 Sum of electronic and thermal Energies=              -728.838049
 Sum of electronic and thermal Enthalpies=            -728.837105
 Sum of electronic and thermal Free Energies=         -728.902244

                     E (Thermal)             CV                S
                      KCal/Mol        Cal/Mol-Kelvin    Cal/Mol-Kelvin
 Total                  198.539             62.972            137.098
 Electronic               0.000              0.000              0.000
 Translational            0.889              2.981             42.203
 Rotational               0.889              2.981             33.272
 Vibrational            196.762             57.010             61.624
 Vibration     1          0.593              1.987              8.801
 Vibration     2          0.593              1.984              5.877
 Vibration     3          0.594              1.982              5.443
 Vibration     4          0.597              1.973              4.454
 Vibration     5          0.599              1.964              3.955
 Vibration     6          0.603              1.953              3.550
 Vibration     7          0.608              1.937              3.185
 Vibration     8          0.619              1.900              2.647
 Vibration     9          0.631              1.862              2.293
 Vibration    10          0.640              1.834              2.097
 Vibration    11          0.649              1.805              1.931
 Vibration    12          0.659              1.774              1.777
 Vibration    13          0.689              1.684              1.448
 Vibration    14          0.717              1.604              1.233
 Vibration    15          0.732              1.562              1.138
 Vibration    16          0.748              1.518              1.049
 Vibration    17          0.771              1.457              0.941
 Vibration    18          0.796              1.392              0.840
 Vibration    19          0.825              1.321              0.744
 Vibration    20          0.833              1.301              0.719
 Vibration    21          0.849              1.264              0.674
 Vibration    22          0.874              1.209              0.613
 Vibration    23          0.902              1.147              0.551
 Vibration    24          0.919              1.111              0.517
 Vibration    25          0.948              1.052              0.466

                           ! Non-Optimized Parameters !
 Normal termination of Gaussian 16 at Sun Dec 13 16:23:43 2020.

 ----------------------------------------------------------------------
 # B3LYP/6-311++G(d,p) empiricaldispersion=gd3bj scf=xqc pop=npa geom=c
 heck
 ----------------------------------------------------------------------

 --------------------------------------
 CID_45095775_JID_7522_Energie_neutraal
 --------------------------------------
 Structure from the checkpoint file:  "JID_7522.chk"
 Charge =  0 Multiplicity = 1

 SCF Done:  E(RB3LYP) =  -729.356746549     A.U. after   15 cycles
 Normal termination of Gaussian 16 at Sun Dec 13 16:30:02 2020.

 ----------------------------------------------------------------------
 # B3LYP/6-311++G(d,p) empiricaldispersion=gd3bj scf=xqc pop=npa geom=c
 heck
 ----------------------------------------------------------------------

 ------------------------------------
 CID_45095775_JID_7522_Energie_kation
 ------------------------------------
 Structure from the checkpoint file:  "JID_7522.chk"
 Charge =  1 Multiplicity = 2

 SCF Done:  E(UB3LYP) =  -729.082028628     A.U. after   25 cycles
 Normal termination of Gaussian 16 at Sun Dec 13 16:45:25 2020.
 Gaussian 16:  ES64L-G16RevA.03 25-Dec-2016

 ----------------------------------------------------------------------
 # B3LYP/6-311++G(d,p) empiricaldispersion=gd3bj scf=xqc pop=npa geom=c
 heck
 ----------------------------------------------------------------------

 -----------------------------------
 CID_45095775_JID_7522_Energie_anion
 -----------------------------------
 Structure from the checkpoint file:  "JID_7522.chk"
 Charge = -1 Multiplicity = 2

                         Standard orientation:
 ---------------------------------------------------------------------
 Center     Atomic      Atomic             Coordinates (Angstroms)
 Number     Number       Type             X           Y           Z
 ---------------------------------------------------------------------
      1          6           0       -5.105340   -1.595701    0.521467
      2          6           0       -4.146174   -1.435942   -0.669159
      3          6           0       -3.088056   -0.383369   -0.421833
      4          6           0       -1.817895   -0.739437    0.021368
      5          6           0       -0.864586    0.255315    0.293482
      6          6           0       -1.219258    1.619002    0.105314
      7          6           0       -2.489608    1.995836   -0.338695
      8          6           0       -3.405579    0.984506   -0.596265
      9          7           0       -0.110700    2.376161    0.429397
     10          6           0        0.919597    1.536933    0.814444
     11          6           0        0.502517    0.228111    0.753213
     12          6           0        1.333464   -0.991663    1.010405
     13          6           0        2.023046   -1.506684   -0.273457
     14          7           0        2.887559   -0.508359   -0.885313
     15          6           0        4.154071   -0.178003   -0.462344
     16          8           0        4.653265    0.905101   -0.741554
     17          6           0        4.911820   -1.238466    0.322101
     18          1           0       -4.556200   -1.887730    1.423457
     19          1           0       -5.865897   -2.358787    0.319317
     20          1           0       -5.618188   -0.651930    0.738255
     21          1           0       -3.663932   -2.398794   -0.877863
     22          1           0       -4.724470   -1.176937   -1.565636
     23          1           0       -1.567998   -1.789762    0.156241
     24          1           0       -2.751938    3.040123   -0.485076
     25          1           0       -4.400343    1.248563   -0.946916
     26          1           0       -0.059790    3.381973    0.399841
     27          1           0        1.883289    1.939334    1.095542
     28          1           0        2.105442   -0.772068    1.758210
     29          1           0        0.711991   -1.796275    1.424497
     30          1           0        2.610268   -2.403204   -0.056895
     31          1           0        1.263115   -1.788513   -1.009951
     32          1           0        2.405890    0.288276   -1.288215
     33          1           0        4.445724   -1.423417    1.296876
     34          1           0        4.942225   -2.191402   -0.217307
     35          1           0        5.928556   -0.877507    0.479225
 ---------------------------------------------------------------------

 SCF Done:  E(UB3LYP) =  -729.346252185     A.U. after   33 cycles
 SCF Done:  E(UB3LYP) =  -729.346252185     a.u. after    1 cycles

 The electronic state is 2-A.
 Alpha  occ. eigenvalues --  -18.99804 -14.26090 -14.24108 -10.18397 -10.11953
 Alpha  occ. eigenvalues --  -10.11167 -10.10880 -10.08675 -10.08567 -10.08488
 Alpha  occ. eigenvalues --  -10.08261 -10.08232 -10.07823 -10.07803 -10.07746
 Alpha  occ. eigenvalues --  -10.07690 -10.07545  -0.94765  -0.88656  -0.83309
 Alpha  occ. eigenvalues --   -0.75766  -0.71373  -0.69252  -0.66174  -0.64919
 Alpha  occ. eigenvalues --   -0.63092  -0.62467  -0.56141  -0.55109  -0.52022
 Alpha  occ. eigenvalues --   -0.49477  -0.48684  -0.46048  -0.44635  -0.40698
 Alpha  occ. eigenvalues --   -0.39541  -0.39393  -0.37858  -0.36849  -0.36155
 Alpha  occ. eigenvalues --   -0.35244  -0.34340  -0.33763  -0.32896  -0.32606
 Alpha  occ. eigenvalues --   -0.31784  -0.31244  -0.31222  -0.30671  -0.29214
 Alpha  occ. eigenvalues --   -0.28035  -0.27978  -0.27085  -0.26047  -0.24905
 Alpha  occ. eigenvalues --   -0.23997  -0.23676  -0.18839  -0.17288  -0.16233
 Alpha  occ. eigenvalues --   -0.13120  -0.11577   0.03872
 Alpha virt. eigenvalues --    0.05337   0.05670   0.06646   0.07431   0.07535
 Alpha virt. eigenvalues --    0.07903   0.08257   0.09283   0.09457   0.10204
 Alpha virt. eigenvalues --    0.10380   0.10583   0.10722   0.11374   0.11570

  Beta  occ. eigenvalues --  -18.99801 -14.26045 -14.24105 -10.18396 -10.11933
  Beta  occ. eigenvalues --  -10.11171 -10.10854 -10.08655 -10.08558 -10.08451
  Beta  occ. eigenvalues --  -10.08263 -10.08209 -10.07817 -10.07791 -10.07736
  Beta  occ. eigenvalues --  -10.07676 -10.07549  -0.94759  -0.88602  -0.83299
  Beta  occ. eigenvalues --   -0.75743  -0.71340  -0.69229  -0.66137  -0.64872
  Beta  occ. eigenvalues --   -0.63059  -0.62427  -0.56089  -0.55075  -0.51971
  Beta  occ. eigenvalues --   -0.49433  -0.48655  -0.46015  -0.44575  -0.40670
  Beta  occ. eigenvalues --   -0.39503  -0.39353  -0.37825  -0.36822  -0.36124
  Beta  occ. eigenvalues --   -0.35206  -0.34295  -0.33734  -0.32864  -0.32586
  Beta  occ. eigenvalues --   -0.31748  -0.31218  -0.31189  -0.30644  -0.29186
  Beta  occ. eigenvalues --   -0.28006  -0.27951  -0.27061  -0.26031  -0.24884
  Beta  occ. eigenvalues --   -0.23972  -0.23624  -0.18809  -0.17275  -0.16219
  Beta  occ. eigenvalues --   -0.13074  -0.11517
  Beta virt. eigenvalues --    0.05709   0.06281   0.06744   0.06927   0.07763
  Beta virt. eigenvalues --    0.07892   0.08276   0.08490   0.09671   0.09782
  Beta virt. eigenvalues --    0.10311   0.10412   0.10829   0.10837   0.11630

 Mulliken charges and spin densities:
               1          2
     1  C   -0.003891  -0.632114
     2  C    0.303748  -0.561335
     3  C    0.110255   0.292221
     4  C   -0.678913  -0.180345
     5  C    0.755224  -0.127937
     6  C    0.596604  -0.855726
     7  C    0.510248  -0.941761
     8  C   -0.551720   0.130484
     9  N   -0.141541   0.043306
    10  C   -0.391228   0.292365
    11  C    1.052088  -0.412189
    12  C   -0.470079   0.172514
    13  C   -0.035687  -0.586680
    14  N   -0.124446   0.041562
    15  C   -0.387145   0.382993
    16  O   -0.351737   0.012100
    17  C    0.681792  -1.113190
    18  H    0.023192   0.117669
    19  H    0.006828   0.108527
    20  H    0.013879   0.122351
    21  H   -0.071651   0.212962
    22  H   -0.001374   0.139854
    23  H    0.034899   0.113059
    24  H   -0.729595   0.887902
    25  H    0.029073   0.130507
    26  H   -0.259735   0.581265
    27  H   -0.209540   0.414023
    28  H    0.084794   0.084833
    29  H   -0.340349   0.506538
    30  H   -0.385837   0.546256
    31  H    0.026539   0.168560
    32  H    0.218684   0.089031
    33  H   -0.256220   0.423469
    34  H   -0.150639   0.319306
    35  H    0.093481   0.077618
 Sum of Mulliken charges =  -1.00000   1.00000

 Dipole moment (field-independent basis, Debye):
    X=             -2.6010    Y=             -2.2468    Z=             -0.7187  Tot=              3.5114
 Quadrupole moment (field-independent basis, Debye-Ang):
   XX=           -191.8236   YY=           -164.3005   ZZ=           -132.7500
   XY=              4.4872   XZ=              1.3849   YZ=              4.3000

 Summary of Natural Population Analysis:

                                       Natural Population
                Natural  -----------------------------------------------
    Atom  No    Charge         Core      Valence    Rydberg      Total
 -----------------------------------------------------------------------
      C    1   -0.28005      0.99966     2.27649    0.00390     3.28005
      C    2   -0.19371      0.99961     2.18625    0.00785     3.19371
      C    3   -0.02778      0.99952     2.01862    0.00964     3.02778
      C    4   -0.09604      0.99948     2.08871    0.00785     3.09604
      C    5   -0.04086      0.99946     2.03244    0.00896     3.04086
      C    6    0.07584      0.99947     1.91243    0.01226     2.92416
      C    7   -0.10856      0.99952     2.09924    0.00980     3.10856
      C    8   -0.10530      0.99953     2.09549    0.01028     3.10530
      N    9   -0.26840      0.99966     2.75880    0.00994     3.76840
      C   10    0.00630      0.99949     1.98193    0.01228     2.99370
      C   11   -0.06271      0.99949     2.05210    0.01112     3.06271
      C   12   -0.20229      0.99959     2.19338    0.00932     3.20229
      C   13   -0.08637      0.99961     2.07544    0.01133     3.08637
      N   14   -0.32294      0.99968     2.81380    0.00946     3.82294
      C   15    0.34252      0.99970     1.63589    0.02189     2.65748
      O   16   -0.32283      0.99988     3.31683    0.00612     4.32283
      C   17   -0.33630      0.99962     2.33166    0.00502     3.33630
      H   18    0.09818      0.00000     0.40058    0.00124     0.40182
      H   19    0.09384      0.00000     0.40504    0.00112     0.40616
      H   20    0.09672      0.00000     0.40211    0.00117     0.40328
      H   21    0.09764      0.00000     0.40102    0.00134     0.40236
      H   22    0.09660      0.00000     0.40215    0.00126     0.40340
      H   23    0.09902      0.00000     0.39922    0.00176     0.40098
      H   24    0.10468      0.00000     0.39376    0.00156     0.39532
      H   25    0.09770      0.00000     0.40135    0.00095     0.40230
      H   26    0.20502      0.00000     0.28682    0.00815     0.29498
      H   27    0.10513      0.00000     0.39381    0.00106     0.39487
      H   28    0.10242      0.00000     0.39616    0.00142     0.39758
      H   29    0.10624      0.00000     0.39222    0.00154     0.39376
      H   30    0.10093      0.00000     0.39712    0.00195     0.39907
      H   31    0.09797      0.00000     0.40075    0.00128     0.40203
      H   32    0.19535      0.00000     0.30198    0.00267     0.30465
      H   33    0.11065      0.00000     0.38790    0.00145     0.38935
      H   34    0.10954      0.00000     0.38934    0.00112     0.39046
      H   35    0.11187      0.00000     0.38730    0.00082     0.38813
 =======================================================================
   * Total *    0.00000     16.99298    44.80815    0.19888    62.00000

 Normal termination of Gaussian 16 at Sun Dec 13 17:05:04 2020.
