 Gaussian 16, Revision A.03,

 -----------------------------------------------------------
 # opt freq B3LYP/6-31G(d) empiricaldispersion=gd3bj scf=xqc
 -----------------------------------------------------------

 -------------------------------
 CID_115691855_JID_4231_neutraal
 -------------------------------
 Symbolic Z-matrix:
 Charge =  0 Multiplicity = 1

 SCF Done:  E(RB3LYP) =  -1297.84320138     A.U. after   15 cycles
 SCF Done:  E(RB3LYP) =  -1297.84875071     A.U. after   12 cycles
 SCF Done:  E(RB3LYP) =  -1297.84950814     A.U. after   12 cycles
 SCF Done:  E(RB3LYP) =  -1297.84909208     A.U. after   12 cycles
 SCF Done:  E(RB3LYP) =  -1297.84979770     A.U. after   12 cycles
 SCF Done:  E(RB3LYP) =  -1297.84985269     A.U. after   12 cycles
 SCF Done:  E(RB3LYP) =  -1297.85001890     A.U. after   11 cycles
 SCF Done:  E(RB3LYP) =  -1297.85019815     A.U. after   11 cycles
 SCF Done:  E(RB3LYP) =  -1297.85024281     A.U. after   11 cycles
 SCF Done:  E(RB3LYP) =  -1297.85032642     A.U. after   11 cycles
 SCF Done:  E(RB3LYP) =  -1297.85721686     A.U. after    9 cycles
 SCF Done:  E(RB3LYP) =  -1297.85721938     A.U. after    9 cycles
 SCF Done:  E(RB3LYP) =  -1297.85721969     A.U. after    8 cycles
 SCF Done:  E(RB3LYP) =  -1297.85721974     A.U. after    7 cycles
 SCF Done:  E(RB3LYP) =  -1297.85721977     A.U. after    7 cycles
 Optimization completed.
    -- Stationary point found.
 Normal termination of Gaussian 16 at Thu Dec 10 09:43:31 2020.

 --------------------------------------------------------------------
 #N Geom=AllCheck Guess=TCheck SCRF=Check GenChk RB3LYP/6-31G(d) Freq
 --------------------------------------------------------------------

 Structure from the checkpoint file:  "JID_4231.chk"
 -------------------------------
 CID_115691855_JID_4231_neutraal
 -------------------------------
 Charge =  0 Multiplicity = 1

 SCF Done:  E(RB3LYP) =  -1297.85721977     A.U. after    1 cycles

  Exact polarizability: 183.761  -2.516 153.105  18.492   3.567 116.611
 Approx polarizability: 255.670   3.991 238.684  37.286   9.548 183.561

                      1                      2                      3
                      A                      A                      A
 Frequencies --     23.6403                34.0905                49.3211
 Red. masses --      4.4906                 3.8026                 4.6226
 Frc consts  --      0.0015                 0.0026                 0.0066
 IR Inten    --      0.0642                 0.5799                 0.3387

                      4                      5                      6
                      A                      A                      A
 Frequencies --     75.7476                85.2386               108.3482
 Red. masses --      2.9178                 4.2700                 1.0465
 Frc consts  --      0.0099                 0.0183                 0.0072
 IR Inten    --      1.3205                 2.6269                 0.4371

                      7                      8                      9
                      A                      A                      A
 Frequencies --    128.5168               142.8796               153.6322
 Red. masses --      3.0565                 1.1229                 3.0944
 Frc consts  --      0.0297                 0.0135                 0.0430
 IR Inten    --      1.2738                 0.7346                 0.7185

                     10                     11                     12
                      A                      A                      A
 Frequencies --    184.4522               195.4357               209.5710
 Red. masses --      1.3190                 2.9251                 3.4802
 Frc consts  --      0.0264                 0.0658                 0.0901
 IR Inten    --      0.0175                 2.4815                 5.6669

                     13                     14                     15
                      A                      A                      A
 Frequencies --    224.5152               288.5285               302.6615
 Red. masses --      2.7477                 2.6501                 2.5879
 Frc consts  --      0.0816                 0.1300                 0.1397
 IR Inten    --      1.6604                 1.4889                 2.7964

                     16                     17                     18
                      A                      A                      A
 Frequencies --    307.9244               330.5795               341.0633
 Red. masses --      2.7690                 2.9620                 2.1791
 Frc consts  --      0.1547                 0.1907                 0.1493
 IR Inten    --      0.5989                 0.7602                18.1403

                     19                     20                     21
                      A                      A                      A
 Frequencies --    394.8693               423.6546               446.1902
 Red. masses --      2.8472                 1.6708                 2.4444
 Frc consts  --      0.2616                 0.1767                 0.2867
 IR Inten    --      4.7955               108.6556                 2.7909

                     22                     23                     24
                      A                      A                      A
 Frequencies --    512.2652               538.7928               586.9742
 Red. masses --      4.1776                 3.1748                 4.5631
 Frc consts  --      0.6459                 0.5430                 0.9263
 IR Inten    --      6.0262                22.2160                 1.0073

                     25                     26                     27
                      A                      A                      A
 Frequencies --    597.2742               638.5740               650.5193
 Red. masses --      4.2673                 6.7573                 3.8096
 Frc consts  --      0.8969                 1.6235                 0.9498
 IR Inten    --      7.9346                 4.2178                 0.6672

                     28                     29                     30
                      A                      A                      A
 Frequencies --    683.0142               715.9572               752.6960
 Red. masses --      5.0301                 4.1804                 2.4504
 Frc consts  --      1.3826                 1.2625                 0.8180
 IR Inten    --      1.5545                 2.8562                11.1602

                     31                     32                     33
                      A                      A                      A
 Frequencies --    773.5945               819.1392               897.4048
 Red. masses --      2.1893                 2.5270                 2.5672
 Frc consts  --      0.7719                 0.9990                 1.2181
 IR Inten    --      9.0216                 6.7295                 1.9465

                     34                     35                     36
                      A                      A                      A
 Frequencies --    899.4888               962.6664               983.5007
 Red. masses --      1.8780                 1.7637                 1.7497
 Frc consts  --      0.8952                 0.9630                 0.9971
 IR Inten    --      2.2873                 3.0463                11.6837

                     37                     38                     39
                      A                      A                      A
 Frequencies --    991.1794              1014.4551              1029.2389
 Red. masses --      1.1999                 1.4847                 1.6975
 Frc consts  --      0.6946                 0.9003                 1.0595
 IR Inten    --      7.0137                 1.6552                 6.8169

                     40                     41                     42
                      A                      A                      A
 Frequencies --   1070.3268              1079.1209              1083.8777
 Red. masses --      1.3844                 1.4735                 2.6814
 Frc consts  --      0.9344                 1.0110                 1.8560
 IR Inten    --      1.4426                 0.5055                 1.9116

                     43                     44                     45
                      A                      A                      A
 Frequencies --   1099.3760              1120.1194              1124.0279
 Red. masses --      1.7806                 2.5055                 2.0562
 Frc consts  --      1.2680                 1.8521                 1.5306
 IR Inten    --      7.6499                 0.4996                12.2165

                     46                     47                     48
                      A                      A                      A
 Frequencies --   1198.9935              1201.5846              1218.5814
 Red. masses --      1.1923                 2.7863                 1.7307
 Frc consts  --      1.0099                 2.3702                 1.5142
 IR Inten    --      2.9295                 6.3531                16.3827

                     49                     50                     51
                      A                      A                      A
 Frequencies --   1253.3086              1298.1448              1326.7248
 Red. masses --      2.1735                 1.2880                 1.2458
 Frc consts  --      2.0115                 1.2788                 1.2920
 IR Inten    --    141.7299                62.2185                 7.4903

                     52                     53                     54
                      A                      A                      A
 Frequencies --   1344.6337              1356.7432              1392.2985
 Red. masses --      3.5931                 1.2606                 1.2033
 Frc consts  --      3.8276                 1.3671                 1.3743
 IR Inten    --     40.3359                25.0008                 2.2938

                     55                     56                     57
                      A                      A                      A
 Frequencies --   1396.3039              1413.4072              1423.4809
 Red. masses --      1.3117                 1.4125                 1.3748
 Frc consts  --      1.5067                 1.6625                 1.6413
 IR Inten    --      9.1075                11.0662                11.3664

                     58                     59                     60
                      A                      A                      A
 Frequencies --   1437.6829              1453.9108              1497.9340
 Red. masses --      1.3437                 1.2422                 1.0593
 Frc consts  --      1.6363                 1.5471                 1.4004
 IR Inten    --      8.5840                 0.8667                 4.6286

                     61                     62                     63
                      A                      A                      A
 Frequencies --   1502.2299              1505.6427              1509.4623
 Red. masses --      1.0750                 1.0496                 1.0432
 Frc consts  --      1.4294                 1.4019                 1.4004
 IR Inten    --      0.5519                 0.4742                11.2145

                     64                     65                     66
                      A                      A                      A
 Frequencies --   1512.0333              1517.7119              1517.7857
 Red. masses --      1.0881                 1.1013                 1.0690
 Frc consts  --      1.4656                 1.4946                 1.4510
 IR Inten    --      3.5674                29.9469                 0.4352

                     67                     68                     69
                      A                      A                      A
 Frequencies --   1519.2260              1524.3194              1525.7593
 Red. masses --      1.0650                 1.0980                 1.0956
 Frc consts  --      1.4483                 1.5031                 1.5027
 IR Inten    --      9.2589                11.8635                14.5832

                     70                     71                     72
                      A                      A                      A
 Frequencies --   1550.5130              1617.6818              1651.7253
 Red. masses --      1.4813                 7.5970                 5.6618
 Frc consts  --      2.0982                11.7132                 9.1008
 IR Inten    --     65.4895               337.1657                30.6769

                     73                     74                     75
                      A                      A                      A
 Frequencies --   3027.5337              3035.9592              3038.3991
 Red. masses --      1.0659                 1.0650                 1.0387
 Frc consts  --      5.7562                 5.7836                 5.6498
 IR Inten    --     22.4069                32.0531                57.5429

                     76                     77                     78
                      A                      A                      A
 Frequencies --   3050.8058              3059.5998              3061.0344
 Red. masses --      1.0389                 1.0713                 1.0320
 Frc consts  --      5.6971                 5.9087                 5.6971
 IR Inten    --     24.8329                46.6567                30.2311

                     79                     80                     81
                      A                      A                      A
 Frequencies --   3073.3241              3075.7647              3082.7660
 Red. masses --      1.0817                 1.0758                 1.0971
 Frc consts  --      6.0196                 5.9966                 6.1430
 IR Inten    --     30.3847                 9.8161                56.0188

                     82                     83                     84
                      A                      A                      A
 Frequencies --   3083.4387              3101.1525              3130.2945
 Red. masses --      1.1019                 1.1008                 1.1045
 Frc consts  --      6.1727                 6.2376                 6.3763
 IR Inten    --     20.2057                18.0020                 7.8022

                     85                     86                     87
                      A                      A                      A
 Frequencies --   3134.3239              3141.3711              3149.6068
 Red. masses --      1.0980                 1.1071                 1.0977
 Frc consts  --      6.3555                 6.4369                 6.4158
 IR Inten    --     13.4144                15.6309                25.6913

                     88                     89                     90
                      A                      A                      A
 Frequencies --   3151.7810              3162.3572              3612.1105
 Red. masses --      1.1041                 1.0926                 1.0763
 Frc consts  --      6.4619                 6.4375                 8.2738
 IR Inten    --     12.9248                 4.2967                27.6526

 - Thermochemistry -
 -------------------
 Temperature   298.150 Kelvin.  Pressure   1.00000 Atm.
 Atom     1 has atomic number  6 and mass  12.00000

 Molecular mass:   230.09114 amu.
 Principal axes and moments of inertia in atomic units:
                           1         2         3
     Eigenvalues --  2074.323395989.609427073.27848
           X            0.99942  -0.03186   0.01172
           Y            0.03166   0.99936   0.01645
           Z           -0.01223  -0.01607   0.99980
 This molecule is an asymmetric top.
 Rotational symmetry number  1.
 Warning -- assumption of classical behavior for rotation
           may cause significant error
 Rotational temperatures (Kelvin)      0.04176     0.01446     0.01225
 Rotational constants (GHZ):           0.87004     0.30131     0.25515
 Zero-point vibrational energy     717244.3 (Joules/Mol)
                                  171.42551 (Kcal/Mol)
 Warning -- explicit consideration of  25 degrees of freedom as
           vibrations may cause significant error
 Vibrational temperatures:     34.01    49.05    70.96   108.98   122.64
          (Kelvin)            155.89   184.91   205.57   221.04   265.39
                              281.19   301.53   323.03   415.13   435.46
                              443.03   475.63   490.71   568.13   609.54
                              641.97   737.04   775.20   844.52   859.34
                              918.77   935.95   982.71  1030.10  1082.96
                             1113.03  1178.56  1291.17  1294.16  1385.06
                             1415.04  1426.09  1459.57  1480.85  1539.96
                             1552.61  1559.46  1581.76  1611.60  1617.23
                             1725.08  1728.81  1753.27  1803.23  1867.74
                             1908.86  1934.63  1952.05  2003.21  2008.97
                             2033.58  2048.07  2068.50  2091.85  2155.19
                             2161.37  2166.28  2171.78  2175.48  2183.65
                             2183.76  2185.83  2193.16  2195.23  2230.84
                             2327.48  2376.46  4355.95  4368.07  4371.58
                             4389.43  4402.08  4404.15  4421.83  4425.34
                             4435.41  4436.38  4461.87  4503.80  4509.59
                             4519.73  4531.58  4534.71  4549.93  5197.02

 Zero-point correction=                           0.273184 (Hartree/Particle)
 Thermal correction to Energy=                    0.290101
 Thermal correction to Enthalpy=                  0.291045
 Thermal correction to Gibbs Free Energy=         0.226998
 Sum of electronic and zero-point Energies=          -1297.584036
 Sum of electronic and thermal Energies=             -1297.567119
 Sum of electronic and thermal Enthalpies=           -1297.566175
 Sum of electronic and thermal Free Energies=        -1297.630222

                     E (Thermal)             CV                S
                      KCal/Mol        Cal/Mol-Kelvin    Cal/Mol-Kelvin
 Total                  182.041             60.811            134.799
 Electronic               0.000              0.000              0.000
 Translational            0.889              2.981             42.202
 Rotational               0.889              2.981             32.841
 Vibrational            180.264             54.849             59.756
 Vibration     1          0.593              1.985              6.302
 Vibration     2          0.594              1.983              5.576
 Vibration     3          0.595              1.978              4.844
 Vibration     4          0.599              1.965              3.998
 Vibration     5          0.601              1.959              3.766
 Vibration     6          0.606              1.943              3.298
 Vibration     7          0.611              1.925              2.968
 Vibration     8          0.616              1.910              2.765
 Vibration     9          0.619              1.899              2.627
 Vibration    10          0.631              1.861              2.283
 Vibration    11          0.636              1.846              2.176
 Vibration    12          0.642              1.826              2.047
 Vibration    13          0.649              1.804              1.922
 Vibration    14          0.685              1.695              1.483
 Vibration    15          0.694              1.669              1.402
 Vibration    16          0.698              1.659              1.373
 Vibration    17          0.713              1.614              1.257
 Vibration    18          0.721              1.593              1.207
 Vibration    19          0.762              1.481              0.982
 Vibration    20          0.786              1.419              0.880
 Vibration    21          0.805              1.369              0.807
 Vibration    22          0.867              1.223              0.628
 Vibration    23          0.894              1.164              0.568
 Vibration    24          0.944              1.060              0.473
 Vibration    25          0.955              1.038              0.454

 Optimization completed.
    -- Stationary point found.
 Normal termination of Gaussian 16 at Thu Dec 10 09:52:42 2020.

 ----------------------------------------------------------------------
 # B3LYP/6-311++G(d,p) empiricaldispersion=gd3bj scf=xqc pop=npa geom=c
 heck
 ----------------------------------------------------------------------

 ---------------------------------------
 CID_115691855_JID_4231_Energie_neutraal
 ---------------------------------------
 Structure from the checkpoint file:  "JID_4231.chk"
 Charge =  0 Multiplicity = 1

 SCF Done:  E(RB3LYP) =  -1298.04976710     A.U. after   15 cycles
 Normal termination of Gaussian 16 at Thu Dec 10 09:57:40 2020.

 ----------------------------------------------------------------------
 # B3LYP/6-311++G(d,p) empiricaldispersion=gd3bj scf=xqc pop=npa geom=c
 heck
 ----------------------------------------------------------------------

 -------------------------------------
 CID_115691855_JID_4231_Energie_kation
 -------------------------------------
 Structure from the checkpoint file:  "JID_4231.chk"
 Charge =  1 Multiplicity = 2

 SCF Done:  E(UB3LYP) =  -1297.78621316     A.U. after   24 cycles
 Normal termination of Gaussian 16 at Thu Dec 10 10:08:50 2020.
 Gaussian 16:  ES64L-G16RevA.03 25-Dec-2016

 ----------------------------------------------------------------------
 # B3LYP/6-311++G(d,p) empiricaldispersion=gd3bj scf=xqc pop=npa geom=c
 heck
 ----------------------------------------------------------------------

 ------------------------------------
 CID_115691855_JID_4231_Energie_anion
 ------------------------------------
 Structure from the checkpoint file:  "JID_4231.chk"
 Charge = -1 Multiplicity = 2

                         Standard orientation:
 ---------------------------------------------------------------------
 Center     Atomic      Atomic             Coordinates (Angstroms)
 Number     Number       Type             X           Y           Z
 ---------------------------------------------------------------------
      1          6           0       -1.794264    2.596017    0.576147
      2          6           0       -1.946944    1.121437    0.352317
      3          6           0       -3.035812    0.484660   -0.166635
      4         16           0       -2.712002   -1.255912   -0.236785
      5          6           0       -1.110117   -0.939110    0.449793
      6          7           0       -0.866389    0.316394    0.697976
      7          7           0       -0.253598   -1.969832    0.716900
      8          6           0        1.153935   -1.724937    1.020485
      9          6           0        2.087262   -1.861618   -0.191332
     10          6           0        1.787213   -0.922449   -1.364085
     11          6           0        1.929203    0.575786   -1.073882
     12         16           0        3.607267    1.126278   -0.557016
     13          6           0        3.451391    1.103541    1.264566
     14          6           0       -4.349138    1.019833   -0.642303
     15          1           0       -1.583920    2.801958    1.632123
     16          1           0       -0.947918    2.984776   -0.003014
     17          1           0       -2.689227    3.152726    0.289267
     18          1           0       -0.475781   -2.858941    0.290623
     19          1           0        1.203522   -0.724354    1.450953
     20          1           0        1.462433   -2.432751    1.799287
     21          1           0        3.118819   -1.701449    0.147344
     22          1           0        2.044362   -2.899425   -0.551426
     23          1           0        2.452382   -1.187950   -2.194536
     24          1           0        0.761244   -1.094909   -1.718932
     25          1           0        1.708904    1.138557   -1.986763
     26          1           0        1.208673    0.897452   -0.316629
     27          1           0        2.545572    1.629805    1.579060
     28          1           0        3.443463    0.088098    1.669389
     29          1           0        4.321616    1.631327    1.663686
     30          1           0       -5.191245    0.603580   -0.075000
     31          1           0       -4.379024    2.106666   -0.527313
     32          1           0       -4.524580    0.794088   -1.701860
 ---------------------------------------------------------------------

 SCF Done:  E(UB3LYP) =  -1298.03713847     A.U. after   33 cycles
 SCF Done:  E(UB3LYP) =  -1298.03713847     a.u. after    1 cycles

 The electronic state is 2-A.
 Alpha  occ. eigenvalues --  -88.77151 -88.74405 -14.23891 -14.19600 -10.16889
 Alpha  occ. eigenvalues --  -10.10605 -10.10523 -10.10349 -10.09790 -10.09604
 Alpha  occ. eigenvalues --  -10.08256 -10.07396 -10.07344 -10.07147  -7.85817
 Alpha  occ. eigenvalues --   -7.83002  -5.82123  -5.81778  -5.81334  -5.79406
 Alpha  occ. eigenvalues --   -5.79032  -5.78366  -0.88290  -0.81859  -0.72079
 Alpha  occ. eigenvalues --   -0.70675  -0.68386  -0.66579  -0.63049  -0.62030
 Alpha  occ. eigenvalues --   -0.57715  -0.55275  -0.52135  -0.49260  -0.46992
 Alpha  occ. eigenvalues --   -0.43349  -0.41486  -0.38362  -0.37386  -0.36018
 Alpha  occ. eigenvalues --   -0.34641  -0.34431  -0.34234  -0.33107  -0.32480
 Alpha  occ. eigenvalues --   -0.31900  -0.31168  -0.30801  -0.29705  -0.29412
 Alpha  occ. eigenvalues --   -0.28706  -0.27907  -0.25943  -0.24772  -0.24319
 Alpha  occ. eigenvalues --   -0.23720  -0.21304  -0.19386  -0.17602  -0.17101
 Alpha  occ. eigenvalues --   -0.13150  -0.10199   0.04221
 Alpha virt. eigenvalues --    0.05606   0.06383   0.07678   0.07963   0.08420
 Alpha virt. eigenvalues --    0.08627   0.08959   0.09442   0.10223   0.10510
 Alpha virt. eigenvalues --    0.11159   0.11337   0.11412   0.12036   0.12434

  Beta  occ. eigenvalues --  -88.77144 -88.74403 -14.23850 -14.19592 -10.16888
  Beta  occ. eigenvalues --  -10.10588 -10.10521 -10.10335 -10.09781 -10.09600
  Beta  occ. eigenvalues --  -10.08222 -10.07385 -10.07322 -10.07120  -7.85808
  Beta  occ. eigenvalues --   -7.83000  -5.82114  -5.81771  -5.81328  -5.79403
  Beta  occ. eigenvalues --   -5.79029  -5.78365  -0.88261  -0.81816  -0.72057
  Beta  occ. eigenvalues --   -0.70646  -0.68360  -0.66550  -0.63012  -0.61987
  Beta  occ. eigenvalues --   -0.57678  -0.55225  -0.52089  -0.49203  -0.46958
  Beta  occ. eigenvalues --   -0.43304  -0.41441  -0.38325  -0.37332  -0.35975
  Beta  occ. eigenvalues --   -0.34614  -0.34402  -0.34208  -0.33087  -0.32449
  Beta  occ. eigenvalues --   -0.31872  -0.31133  -0.30767  -0.29677  -0.29387
  Beta  occ. eigenvalues --   -0.28678  -0.27876  -0.25920  -0.24740  -0.24276
  Beta  occ. eigenvalues --   -0.23689  -0.21288  -0.19350  -0.17571  -0.17087
  Beta  occ. eigenvalues --   -0.13139  -0.10170
  Beta virt. eigenvalues --    0.06163   0.06615   0.07192   0.07966   0.08306
  Beta virt. eigenvalues --    0.08642   0.08960   0.09356   0.09786   0.10500
  Beta virt. eigenvalues --    0.10717   0.11278   0.11568   0.11707   0.12163

 Mulliken charges and spin densities:
               1          2
     1  C    1.211077  -2.107453
     2  C   -2.109131   0.206972
     3  C   -0.234564   2.050822
     4  S    0.460569  -0.878690
     5  C   -0.679412   0.647486
     6  N    0.166604  -0.012198
     7  N   -0.111441   0.145105
     8  C    0.339324  -0.597896
     9  C    0.203769  -0.866671
    10  C   -0.415557   0.343588
    11  C    0.113844  -0.103007
    12  S   -0.017689   0.043594
    13  C   -0.383345  -0.282902
    14  C    1.872513  -1.854855
    15  H    0.026791   0.137575
    16  H   -0.009358   0.166816
    17  H   -0.212754   0.321213
    18  H   -0.411100   0.685631
    19  H    0.417587  -0.211021
    20  H   -0.646859   0.850183
    21  H    0.139405  -0.019376
    22  H   -0.389271   0.567319
    23  H    0.009176   0.161132
    24  H   -0.194746   0.328593
    25  H    0.134728   0.104658
    26  H    0.187465  -0.293271
    27  H    0.118099   0.078360
    28  H   -0.010395   0.180439
    29  H    0.014355   0.157985
    30  H   -0.102596   0.246663
    31  H   -0.261038   0.426911
    32  H   -0.226052   0.376298
 Sum of Mulliken charges =  -1.00000   1.00000

 Dipole moment (field-independent basis, Debye):
    X=              1.7890    Y=              2.7947    Z=              0.5008  Tot=              3.3559
 Quadrupole moment (field-independent basis, Debye-Ang):
   XX=           -173.1494   YY=           -166.1441   ZZ=           -132.1340
   XY=             12.5891   XZ=             -2.5593   YZ=              3.4594

 Summary of Natural Population Analysis:

                                       Natural Population
                Natural  -----------------------------------------------
    Atom  No    Charge         Core      Valence    Rydberg      Total
 -----------------------------------------------------------------------
      C    1   -0.29270      0.99962     2.28696    0.00611     3.29270
      C    2    0.06519      0.99941     1.92156    0.01384     2.93481
      C    3   -0.11578      0.99942     2.10400    0.01236     3.11578
      S    4    0.15718      4.99943     2.82630    0.01709     7.84282
      C    5    0.15204      0.99958     1.82762    0.02076     2.84796
      N    6   -0.29508      0.99961     2.78447    0.01100     3.79508
      N    7   -0.31505      0.99965     2.80129    0.01412     3.81505
      C    8   -0.09130      0.99960     2.07886    0.01284     3.09130
      C    9   -0.19896      0.99961     2.18888    0.01047     3.19896
      C   10   -0.19784      0.99961     2.18734    0.01090     3.19784
      C   11   -0.25594      0.99957     2.24743    0.00894     3.25594
      S   12    0.07390      4.99964     2.90826    0.01819     7.92610
      C   13   -0.34930      0.99962     2.34434    0.00534     3.34930
      C   14   -0.29756      0.99961     2.29130    0.00664     3.29756
      H   15    0.10490      0.00000     0.39395    0.00115     0.39510
      H   16    0.10506      0.00000     0.39366    0.00127     0.39494
      H   17    0.10282      0.00000     0.39618    0.00100     0.39718
      H   18    0.19689      0.00000     0.29453    0.00858     0.30311
      H   19    0.10542      0.00000     0.39167    0.00291     0.39458
      H   20    0.09816      0.00000     0.40021    0.00163     0.40184
      H   21    0.10068      0.00000     0.39781    0.00151     0.39932
      H   22    0.10186      0.00000     0.39563    0.00252     0.39814
      H   23    0.09831      0.00000     0.40030    0.00139     0.40169
      H   24    0.10228      0.00000     0.39623    0.00149     0.39772
      H   25    0.10345      0.00000     0.39526    0.00129     0.39655
      H   26    0.11792      0.00000     0.37989    0.00218     0.38208
      H   27    0.10429      0.00000     0.39409    0.00162     0.39571
      H   28    0.09925      0.00000     0.39912    0.00163     0.40075
      H   29    0.10353      0.00000     0.39538    0.00109     0.39647
      H   30    0.10248      0.00000     0.39638    0.00114     0.39752
      H   31    0.10975      0.00000     0.38885    0.00140     0.39025
      H   32    0.10414      0.00000     0.39456    0.00131     0.39586
 =======================================================================
   * Total *    0.00000     21.99399    39.80232    0.20369    62.00000

 Normal termination of Gaussian 16 at Thu Dec 10 10:24:18 2020.
