 Gaussian 16, Revision A.03,

 -----------------------------------------------------------
 # opt freq B3LYP/6-31G(d) empiricaldispersion=gd3bj scf=xqc
 -----------------------------------------------------------

 -------------------------------
 CID_133656238_JID_7690_neutraal
 -------------------------------
 Symbolic Z-matrix:
 Charge =  0 Multiplicity = 1

 SCF Done:  E(RB3LYP) =  -746.325802602     A.U. after   15 cycles
 SCF Done:  E(RB3LYP) =  -746.335365205     A.U. after   13 cycles
 SCF Done:  E(RB3LYP) =  -746.338567268     A.U. after   13 cycles
 SCF Done:  E(RB3LYP) =  -746.340489611     A.U. after   13 cycles
 SCF Done:  E(RB3LYP) =  -746.342972682     A.U. after   13 cycles
 SCF Done:  E(RB3LYP) =  -746.344346840     A.U. after   13 cycles
 SCF Done:  E(RB3LYP) =  -746.346237829     A.U. after   12 cycles
 SCF Done:  E(RB3LYP) =  -746.347197504     A.U. after   12 cycles
 SCF Done:  E(RB3LYP) =  -746.347676758     A.U. after   11 cycles
 SCF Done:  E(RB3LYP) =  -746.347752656     A.U. after   11 cycles
 SCF Done:  E(RB3LYP) =  -746.348329576     A.U. after    7 cycles
 SCF Done:  E(RB3LYP) =  -746.348329647     A.U. after    7 cycles
 SCF Done:  E(RB3LYP) =  -746.348329706     A.U. after    7 cycles
 SCF Done:  E(RB3LYP) =  -746.348329772     A.U. after    7 cycles
 SCF Done:  E(RB3LYP) =  -746.348329828     A.U. after    7 cycles
 Optimization completed.
    -- Stationary point found.
 Normal termination of Gaussian 16 at Fri Dec 11 13:28:18 2020.

 --------------------------------------------------------------------
 #N Geom=AllCheck Guess=TCheck SCRF=Check GenChk RB3LYP/6-31G(d) Freq
 --------------------------------------------------------------------

 Structure from the checkpoint file:  "JID_7690.chk"
 -------------------------------
 CID_133656238_JID_7690_neutraal
 -------------------------------
 Charge =  0 Multiplicity = 1

 SCF Done:  E(RB3LYP) =  -746.348329827     A.U. after    1 cycles

  Exact polarizability: 190.630 -17.701 132.527  11.083  13.372 133.460
 Approx polarizability: 264.152 -38.850 208.124  20.565  26.378 216.517

                      1                      2                      3
                      A                      A                      A
 Frequencies --     27.5263                35.9952                52.6400
 Red. masses --      4.4674                 6.1451                 4.2378
 Frc consts  --      0.0020                 0.0047                 0.0069
 IR Inten    --      0.0647                 0.5278                 0.5583

                      4                      5                      6
                      A                      A                      A
 Frequencies --     63.8917                86.9771               135.9346
 Red. masses --      3.4610                 3.3694                 1.1073
 Frc consts  --      0.0083                 0.0150                 0.0121
 IR Inten    --      0.3716                 0.3195                 0.0512

                      7                      8                      9
                      A                      A                      A
 Frequencies --    143.5747               167.8823               174.3076
 Red. masses --      2.7776                 2.2573                 1.2595
 Frc consts  --      0.0337                 0.0375                 0.0225
 IR Inten    --      2.5888                 0.5780                 0.2353

                     10                     11                     12
                      A                      A                      A
 Frequencies --    229.2967               237.7342               250.1680
 Red. masses --      3.2465                 2.0368                 1.3480
 Frc consts  --      0.1006                 0.0678                 0.0497
 IR Inten    --      2.3713                 2.5225                 0.8585

                     13                     14                     15
                      A                      A                      A
 Frequencies --    296.5031               303.5760               321.0697
 Red. masses --      2.9645                 2.6025                 3.4125
 Frc consts  --      0.1536                 0.1413                 0.2073
 IR Inten    --      3.6652                 0.1524                 0.0849

                     16                     17                     18
                      A                      A                      A
 Frequencies --    330.2739               343.2956               408.9256
 Red. masses --      3.1902                 3.9116                 3.3477
 Frc consts  --      0.2050                 0.2716                 0.3298
 IR Inten    --      4.7732                 4.3074                 0.9335

                     19                     20                     21
                      A                      A                      A
 Frequencies --    440.1244               464.0037               476.9634
 Red. masses --      6.6791                 2.7704                 2.9728
 Frc consts  --      0.7623                 0.3514                 0.3985
 IR Inten    --      0.8100                 3.6537                 7.4285

                     22                     23                     24
                      A                      A                      A
 Frequencies --    484.8336               509.2615               545.8573
 Red. masses --      3.5146                 1.2590                 4.1712
 Frc consts  --      0.4868                 0.1924                 0.7323
 IR Inten    --      6.8672                68.4685                 3.2807

                     25                     26                     27
                      A                      A                      A
 Frequencies --    572.8995               599.7415               641.8973
 Red. masses --      3.3209                 3.3307                 5.1328
 Frc consts  --      0.6422                 0.7058                 1.2460
 IR Inten    --      3.2362                55.2923                 1.7849

                     28                     29                     30
                      A                      A                      A
 Frequencies --    687.4574               721.0109               742.2420
 Red. masses --      3.4673                 3.3971                 5.4669
 Frc consts  --      0.9655                 1.0405                 1.7745
 IR Inten    --     14.8651                 9.9478                 6.5956

                     31                     32                     33
                      A                      A                      A
 Frequencies --    766.7967               767.2491               815.5268
 Red. masses --      3.3825                 2.8229                 2.2048
 Frc consts  --      1.1718                 0.9791                 0.8640
 IR Inten    --      2.1669                 1.1150                28.7757

                     34                     35                     36
                      A                      A                      A
 Frequencies --    836.0149               855.4187               917.5379
 Red. masses --      2.9916                 1.5920                 2.0265
 Frc consts  --      1.2319                 0.6863                 1.0052
 IR Inten    --     22.1035                 5.1951                15.5415

                     37                     38                     39
                      A                      A                      A
 Frequencies --    923.3360               934.6838               961.6049
 Red. masses --      1.3680                 3.5789                 1.3868
 Frc consts  --      0.6872                 1.8422                 0.7556
 IR Inten    --      1.4258                13.3098                 0.5437

                     40                     41                     42
                      A                      A                      A
 Frequencies --    973.5310               980.7141              1004.2284
 Red. masses --      1.6785                 2.3401                 2.0518
 Frc consts  --      0.9373                 1.3261                 1.2191
 IR Inten    --      6.9484                13.7947                 1.9508

                     43                     44                     45
                      A                      A                      A
 Frequencies --   1029.1486              1032.1648              1042.7294
 Red. masses --      1.7619                 1.9304                 1.6966
 Frc consts  --      1.0995                 1.2117                 1.0868
 IR Inten    --      5.1559                 7.6676                14.1321

                     46                     47                     48
                      A                      A                      A
 Frequencies --   1061.4803              1072.0376              1086.1006
 Red. masses --      1.4378                 2.7684                 1.6035
 Frc consts  --      0.9545                 1.8746                 1.1144
 IR Inten    --      6.9893                 6.2322                 0.0204

                     49                     50                     51
                      A                      A                      A
 Frequencies --   1117.6595              1130.3145              1142.5298
 Red. masses --      2.1826                 1.6697                 1.9116
 Frc consts  --      1.6064                 1.2569                 1.4702
 IR Inten    --      3.9809                42.2893                12.2237

                     52                     53                     54
                      A                      A                      A
 Frequencies --   1154.8741              1172.1744              1195.7932
 Red. masses --      1.7251                 2.0161                 1.7263
 Frc consts  --      1.3556                 1.6321                 1.4544
 IR Inten    --      2.6964                 8.5951                 2.5484

                     55                     56                     57
                      A                      A                      A
 Frequencies --   1237.5850              1254.6425              1293.3480
 Red. masses --      2.0091                 1.3275                 3.1928
 Frc consts  --      1.8130                 1.2312                 3.1467
 IR Inten    --      5.2726                28.0505                11.7260

                     58                     59                     60
                      A                      A                      A
 Frequencies --   1303.0150              1314.6266              1324.1407
 Red. masses --      1.2930                 1.4299                 1.4197
 Frc consts  --      1.2935                 1.4560                 1.4666
 IR Inten    --      2.3403                 7.9871                28.2087

                     61                     62                     63
                      A                      A                      A
 Frequencies --   1343.0563              1354.2925              1366.8338
 Red. masses --      6.2822                 1.2714                 2.2326
 Frc consts  --      6.6766                 1.3739                 2.4575
 IR Inten    --      1.9062                10.1604               110.1238

                     64                     65                     66
                      A                      A                      A
 Frequencies --   1382.8944              1396.3069              1435.1649
 Red. masses --      1.4932                 1.3206                 1.3312
 Frc consts  --      1.6824                 1.5170                 1.6154
 IR Inten    --    111.5405                 3.2947                 9.5056

                     67                     68                     69
                      A                      A                      A
 Frequencies --   1438.8726              1442.7030              1446.6294
 Red. masses --      1.3524                 1.2745                 2.1024
 Frc consts  --      1.6496                 1.5630                 2.5922
 IR Inten    --      0.4431                 5.7384                 7.2216

                     70                     71                     72
                      A                      A                      A
 Frequencies --   1451.8935              1462.6241              1506.3178
 Red. masses --      1.2388                 2.2294                 1.0466
 Frc consts  --      1.5385                 2.8100                 1.3991
 IR Inten    --      1.6261                33.2462                 0.1848

                     73                     74                     75
                      A                      A                      A
 Frequencies --   1508.3360              1519.3996              1521.7127
 Red. masses --      1.1470                 1.1427                 1.1102
 Frc consts  --      1.5375                 1.5543                 1.5146
 IR Inten    --      3.6883                 6.7009                13.5927

                     76                     77                     78
                      A                      A                      A
 Frequencies --   1522.2322              1523.5379              1523.6942
 Red. masses --      1.0453                 1.1456                 1.0865
 Frc consts  --      1.4271                 1.5667                 1.4862
 IR Inten    --     17.3272                 1.1958                 9.9137

                     79                     80                     81
                      A                      A                      A
 Frequencies --   1527.4742              1553.4392              1627.2940
 Red. masses --      1.0498                 2.4842                 6.0720
 Frc consts  --      1.4431                 3.5320                 9.4735
 IR Inten    --      5.8132                58.4954                 7.0111

                     82                     83                     84
                      A                      A                      A
 Frequencies --   1670.4250              1772.0027              3003.2557
 Red. masses --      6.0703                 7.9643                 1.0806
 Frc consts  --      9.9796                14.7342                 5.7427
 IR Inten    --     16.3762               378.4855                52.9499

                     85                     86                     87
                      A                      A                      A
 Frequencies --   3042.8202              3043.7940              3050.3856
 Red. masses --      1.0387                 1.0381                 1.0360
 Frc consts  --      5.6661                 5.6663                 5.6799
 IR Inten    --     12.5200                38.9760                27.8859

                     88                     89                     90
                      A                      A                      A
 Frequencies --   3091.5243              3093.7111              3095.1504
 Red. masses --      1.1003                 1.1003                 1.0718
 Frc consts  --      6.1957                 6.2047                 6.0497
 IR Inten    --     29.5835                 2.3402                24.3225

                     91                     92                     93
                      A                      A                      A
 Frequencies --   3112.5169              3117.8088              3132.6603
 Red. masses --      1.0865                 1.0966                 1.1004
 Frc consts  --      6.2014                 6.2804                 6.3625
 IR Inten    --      9.1045                32.8890                25.3484

                     94                     95                     96
                      A                      A                      A
 Frequencies --   3134.7655              3134.9490              3171.8449
 Red. masses --      1.1001                 1.1032                 1.0983
 Frc consts  --      6.3695                 6.3881                 6.5102
 IR Inten    --      6.5907                20.8822                18.9268

                     97                     98                     99
                      A                      A                      A
 Frequencies --   3185.7829              3196.6126              3212.7133
 Red. masses --      1.0886                 1.0909                 1.0939
 Frc consts  --      6.5098                 6.5678                 6.6522
 IR Inten    --     15.9928                 6.2020                 8.1147

                    100                    101                    102
                      A                      A                      A
 Frequencies --   3356.6315              3508.5946              3565.2672
 Red. masses --      1.0730                 1.0756                 1.0747
 Frc consts  --      7.1231                 7.8011                 8.0484
 IR Inten    --      6.4068                 1.2144                26.1407

 - Thermochemistry -
 -------------------
 Temperature   298.150 Kelvin.  Pressure   1.00000 Atm.
 Atom     1 has atomic number  6 and mass  12.00000

 Molecular mass:   233.15281 amu.
 Principal axes and moments of inertia in atomic units:
                           1         2         3
     Eigenvalues --  2285.266175624.159426170.66892
           X            0.99988   0.00943   0.01213
           Y           -0.01042   0.99636   0.08463
           Z           -0.01129  -0.08474   0.99634
 This molecule is an asymmetric top.
 Rotational symmetry number  1.
 Warning -- assumption of classical behavior for rotation
           may cause significant error
 Rotational temperatures (Kelvin)      0.03790     0.01540     0.01404
 Rotational constants (GHZ):           0.78973     0.32089     0.29247
 Zero-point vibrational energy     817915.5 (Joules/Mol)
                                  195.48650 (Kcal/Mol)
 Warning -- explicit consideration of  26 degrees of freedom as
           vibrations may cause significant error
 Vibrational temperatures:     39.60    51.79    75.74    91.93   125.14
          (Kelvin)            195.58   206.57   241.55   250.79   329.91
                              342.05   359.94   426.60   436.78   461.95
                              475.19   493.93   588.35   633.24   667.60
                              686.24   697.57   732.71   785.37   824.27
                              862.89   923.55   989.10  1037.37  1067.92
                             1103.25  1103.90  1173.36  1202.84  1230.76
                             1320.13  1328.47  1344.80  1383.53  1400.69
                             1411.03  1444.86  1480.72  1485.05  1500.26
                             1527.23  1542.42  1562.66  1608.06  1626.27
                             1643.85  1661.61  1686.50  1720.48  1780.61
                             1805.15  1860.84  1874.75  1891.45  1905.14
                             1932.36  1948.52  1966.57  1989.68  2008.97
                             2064.88  2070.22  2075.73  2081.38  2088.95
                             2104.39  2167.26  2170.16  2186.08  2189.41
                             2190.15  2192.03  2192.26  2197.69  2235.05
                             2341.31  2403.37  2549.52  4321.02  4377.94
                             4379.34  4388.82  4448.01  4451.16  4453.23
                             4478.22  4485.83  4507.20  4510.23  4510.49
                             4563.58  4583.63  4599.21  4622.38  4829.44
                             5048.09  5129.62

 Zero-point correction=                           0.311528 (Hartree/Particle)
 Thermal correction to Energy=                    0.328229
 Thermal correction to Enthalpy=                  0.329173
 Thermal correction to Gibbs Free Energy=         0.266428
 Sum of electronic and zero-point Energies=           -746.036802
 Sum of electronic and thermal Energies=              -746.020101
 Sum of electronic and thermal Enthalpies=            -746.019157
 Sum of electronic and thermal Free Energies=         -746.081902

                     E (Thermal)             CV                S
                      KCal/Mol        Cal/Mol-Kelvin    Cal/Mol-Kelvin
 Total                  205.967             63.895            132.058
 Electronic               0.000              0.000              0.000
 Translational            0.889              2.981             42.241
 Rotational               0.889              2.981             32.739
 Vibrational            204.189             57.933             57.078
 Vibration     1          0.593              1.984              6.000
 Vibration     2          0.594              1.982              5.468
 Vibration     3          0.596              1.977              4.716
 Vibration     4          0.597              1.972              4.333
 Vibration     5          0.601              1.958              3.727
 Vibration     6          0.614              1.917              2.860
 Vibration     7          0.616              1.910              2.756
 Vibration     8          0.625              1.882              2.459
 Vibration     9          0.627              1.874              2.389
 Vibration    10          0.652              1.796              1.884
 Vibration    11          0.656              1.783              1.820
 Vibration    12          0.663              1.762              1.729
 Vibration    13          0.690              1.680              1.437
 Vibration    14          0.695              1.667              1.397
 Vibration    15          0.707              1.633              1.305
 Vibration    16          0.713              1.615              1.259
 Vibration    17          0.722              1.589              1.197
 Vibration    18          0.773              1.451              0.930
 Vibration    19          0.800              1.383              0.826
 Vibration    20          0.822              1.330              0.755
 Vibration    21          0.834              1.301              0.718
 Vibration    22          0.841              1.284              0.697
 Vibration    23          0.864              1.229              0.635
 Vibration    24          0.901              1.149              0.553
 Vibration    25          0.929              1.090              0.499
 Vibration    26          0.958              1.032              0.450

 Optimization completed.
    -- Stationary point found.
 Normal termination of Gaussian 16 at Fri Dec 11 13:42:43 2020.

 ----------------------------------------------------------------------
 # B3LYP/6-311++G(d,p) empiricaldispersion=gd3bj scf=xqc pop=npa geom=c
 heck
 ----------------------------------------------------------------------

 ---------------------------------------
 CID_133656238_JID_7690_Energie_neutraal
 ---------------------------------------
 Structure from the checkpoint file:  "JID_7690.chk"
 Charge =  0 Multiplicity = 1

 SCF Done:  E(RB3LYP) =  -746.560708484     A.U. after   16 cycles
 Normal termination of Gaussian 16 at Fri Dec 11 13:49:11 2020.

 ----------------------------------------------------------------------
 # B3LYP/6-311++G(d,p) empiricaldispersion=gd3bj scf=xqc pop=npa geom=c
 heck
 ----------------------------------------------------------------------

 -------------------------------------
 CID_133656238_JID_7690_Energie_kation
 -------------------------------------
 Structure from the checkpoint file:  "JID_7690.chk"
 Charge =  1 Multiplicity = 2

 SCF Done:  E(UB3LYP) =  -746.266886528     A.U. after   29 cycles
 Normal termination of Gaussian 16 at Fri Dec 11 14:04:54 2020.
 Gaussian 16:  ES64L-G16RevA.03 25-Dec-2016

 ----------------------------------------------------------------------
 # B3LYP/6-311++G(d,p) empiricaldispersion=gd3bj scf=xqc pop=npa geom=c
 heck
 ----------------------------------------------------------------------

 ------------------------------------
 CID_133656238_JID_7690_Energie_anion
 ------------------------------------
 Structure from the checkpoint file:  "JID_7690.chk"
 Charge = -1 Multiplicity = 2

                         Standard orientation:
 ---------------------------------------------------------------------
 Center     Atomic      Atomic             Coordinates (Angstroms)
 Number     Number       Type             X           Y           Z
 ---------------------------------------------------------------------
      1          6           0       -3.646750   -1.435679   -0.781112
      2          6           0       -2.255522   -1.070293   -0.284718
      3          6           0       -2.231325    0.170500    0.654092
      4          6           0       -1.224830   -0.261291    1.772162
      5          7           0       -0.592033   -1.502685    1.313787
      6          7           0       -1.692529   -2.113086    0.599824
      7          6           0       -2.011985    1.481997   -0.090730
      8          8           0       -2.947813    2.250055   -0.278841
      9          7           0       -0.761547    1.817760   -0.579431
     10          6           0        0.455606    1.069632   -0.602372
     11          6           0        1.404590    1.241558    0.409409
     12          6           0        2.593785    0.509890    0.430948
     13          6           0        2.854470   -0.407392   -0.609492
     14          6           0        1.920430   -0.542829   -1.640975
     15          6           0        0.732517    0.187162   -1.648044
     16          6           0        4.120943   -1.224772   -0.613734
     17          6           0        3.578024    0.696487    1.557691
     18          1           0       -4.083384   -0.600935   -1.339667
     19          1           0       -4.296637   -1.668958    0.068251
     20          1           0       -3.616570   -2.310494   -1.441496
     21          1           0       -1.600818   -0.881112   -1.149681
     22          1           0       -3.224208    0.293685    1.091591
     23          1           0       -1.788876   -0.480269    2.682379
     24          1           0       -0.466010    0.484504    2.006336
     25          1           0        0.123944   -1.224998    0.631074
     26          1           0       -1.331136   -2.910518    0.079973
     27          1           0       -0.783257    2.697261   -1.084086
     28          1           0        1.194372    1.953074    1.202765
     29          1           0        2.125931   -1.235878   -2.452662
     30          1           0        0.016298    0.074186   -2.455492
     31          1           0        5.012967   -0.585957   -0.624881
     32          1           0        4.195071   -1.854105    0.281923
     33          1           0        4.165886   -1.879247   -1.488662
     34          1           0        4.561034    1.012385    1.186784
     35          1           0        3.227487    1.451120    2.267065
     36          1           0        3.733460   -0.237932    2.111200
 ---------------------------------------------------------------------

 SCF Done:  E(UB3LYP) =  -746.552098675     A.U. after   33 cycles
 SCF Done:  E(UB3LYP) =  -746.552098675     a.u. after    1 cycles

 The electronic state is 2-A.
 Alpha  occ. eigenvalues --  -19.00175 -14.25086 -14.23590 -14.23502 -10.18951
 Alpha  occ. eigenvalues --  -10.12338 -10.11901 -10.10984 -10.09773 -10.09618
 Alpha  occ. eigenvalues --  -10.09330 -10.08704 -10.08683 -10.08389 -10.07874
 Alpha  occ. eigenvalues --  -10.07676 -10.07168  -0.95392  -0.89709  -0.84151
 Alpha  occ. eigenvalues --   -0.76997  -0.72318  -0.69917  -0.68768  -0.67641
 Alpha  occ. eigenvalues --   -0.61735  -0.61132  -0.58891  -0.54721  -0.52257
 Alpha  occ. eigenvalues --   -0.51301  -0.50735  -0.47870  -0.44770  -0.43250
 Alpha  occ. eigenvalues --   -0.40062  -0.39359  -0.38075  -0.37528  -0.36641
 Alpha  occ. eigenvalues --   -0.34740  -0.34459  -0.34329  -0.32736  -0.32268
 Alpha  occ. eigenvalues --   -0.31933  -0.30824  -0.30777  -0.29985  -0.29586
 Alpha  occ. eigenvalues --   -0.29165  -0.28926  -0.27074  -0.26402  -0.25497
 Alpha  occ. eigenvalues --   -0.25371  -0.24929  -0.19087  -0.17607  -0.17409
 Alpha  occ. eigenvalues --   -0.16519  -0.15549  -0.13230   0.03944
 Alpha virt. eigenvalues --    0.05877   0.06230   0.06836   0.07065   0.07722
 Alpha virt. eigenvalues --    0.08354   0.08611   0.09052   0.09401   0.09634
 Alpha virt. eigenvalues --    0.09892   0.10604   0.11376   0.11467   0.11838

  Beta  occ. eigenvalues --  -19.00173 -14.25082 -14.23578 -14.23495 -10.18949
  Beta  occ. eigenvalues --  -10.12292 -10.11897 -10.10981 -10.09772 -10.09613
  Beta  occ. eigenvalues --  -10.09299 -10.08695 -10.08663 -10.08370 -10.07865
  Beta  occ. eigenvalues --  -10.07639 -10.07127  -0.95386  -0.89698  -0.84109
  Beta  occ. eigenvalues --   -0.76954  -0.72304  -0.69901  -0.68716  -0.67584
  Beta  occ. eigenvalues --   -0.61710  -0.61069  -0.58817  -0.54704  -0.52210
  Beta  occ. eigenvalues --   -0.51256  -0.50681  -0.47827  -0.44734  -0.43203
  Beta  occ. eigenvalues --   -0.40034  -0.39335  -0.38005  -0.37511  -0.36620
  Beta  occ. eigenvalues --   -0.34693  -0.34390  -0.34310  -0.32706  -0.32231
  Beta  occ. eigenvalues --   -0.31916  -0.30786  -0.30740  -0.29948  -0.29543
  Beta  occ. eigenvalues --   -0.29148  -0.28915  -0.26985  -0.26352  -0.25453
  Beta  occ. eigenvalues --   -0.25339  -0.24917  -0.19074  -0.17599  -0.17364
  Beta  occ. eigenvalues --   -0.16455  -0.15405  -0.13202
  Beta virt. eigenvalues --    0.06190   0.06427   0.06799   0.07115   0.07501
  Beta virt. eigenvalues --    0.08055   0.08587   0.08984   0.09488   0.09550
  Beta virt. eigenvalues --    0.10012   0.10353   0.10928   0.11380   0.11725

 Mulliken charges and spin densities:
               1          2
     1  C   -0.424842  -0.217750
     2  C   -0.123769   0.040675
     3  C    0.691183  -0.106255
     4  C   -0.484252  -0.145392
     5  N   -0.140548   0.009263
     6  N   -0.117679  -0.002555
     7  C   -0.586719   0.063917
     8  O   -0.319990   0.011453
     9  N   -0.229807   0.114376
    10  C    0.542609  -1.463580
    11  C   -0.190665   0.227722
    12  C   -2.572783   2.914632
    13  C   -2.585943   2.931584
    14  C    0.431371  -0.966951
    15  C    1.462841  -1.222977
    16  C    3.200239  -3.787331
    17  C    1.776259  -2.320856
    18  H    0.139002   0.028774
    19  H    0.138340   0.012527
    20  H   -0.091854   0.226855
    21  H    0.326426  -0.142677
    22  H    0.274259   0.005153
    23  H    0.097841   0.081117
    24  H    0.218465  -0.082808
    25  H    0.486358  -0.221611
    26  H    0.034121   0.206603
    27  H    0.103973   0.219006
    28  H   -0.138046   0.326469
    29  H   -0.942938   1.129038
    30  H   -0.510767   0.707638
    31  H   -0.195730   0.357608
    32  H   -0.124861   0.284858
    33  H   -0.508215   0.670149
    34  H   -0.182495   0.346432
    35  H   -0.377042   0.524486
    36  H   -0.074342   0.240409
 Sum of Mulliken charges =  -1.00000   1.00000

 Dipole moment (field-independent basis, Debye):
    X=             -5.5820    Y=              1.0927    Z=              2.7350  Tot=              6.3114
 Quadrupole moment (field-independent basis, Debye-Ang):
   XX=           -188.4560   YY=           -150.7922   ZZ=           -148.4069
   XY=              9.7731   XZ=              2.8957   YZ=             -2.9598

 Summary of Natural Population Analysis:

                                       Natural Population
                Natural  -----------------------------------------------
    Atom  No    Charge         Core      Valence    Rydberg      Total
 -----------------------------------------------------------------------
      C    1   -0.28773      0.99964     2.28153    0.00656     3.28773
      C    2   -0.01757      0.99959     2.00653    0.01145     3.01757
      C    3   -0.15873      0.99953     2.14945    0.00974     3.15873
      C    4   -0.09139      0.99963     2.08113    0.01063     3.09139
      N    5   -0.24129      0.99977     2.72854    0.01299     3.74129
      N    6   -0.25707      0.99973     2.74412    0.01322     3.75707
      C    7    0.34975      0.99962     1.62676    0.02386     2.65025
      O    8   -0.32373      0.99988     3.31831    0.00555     4.32373
      N    9   -0.32621      0.99964     2.81568    0.01089     3.82621
      C   10    0.05890      0.99944     1.92838    0.01328     2.94110
      C   11   -0.10141      0.99946     2.09214    0.00981     3.10141
      C   12   -0.01157      0.99947     2.00165    0.01045     3.01157
      C   13   -0.00341      0.99947     1.99348    0.01046     3.00341
      C   14   -0.09521      0.99951     2.08474    0.01097     3.09521
      C   15   -0.10419      0.99950     2.09360    0.01108     3.10419
      C   16   -0.29565      0.99964     2.29020    0.00581     3.29565
      C   17   -0.29453      0.99964     2.28888    0.00601     3.29453
      H   18    0.10520      0.00000     0.39405    0.00075     0.39480
      H   19    0.10049      0.00000     0.39847    0.00104     0.39951
      H   20    0.09970      0.00000     0.39953    0.00078     0.40030
      H   21    0.08918      0.00000     0.40813    0.00269     0.41082
      H   22    0.11227      0.00000     0.38632    0.00141     0.38773
      H   23    0.09577      0.00000     0.40311    0.00112     0.40423
      H   24    0.10267      0.00000     0.39620    0.00113     0.39733
      H   25    0.16558      0.00000     0.32921    0.00521     0.33442
      H   26    0.17827      0.00000     0.32003    0.00170     0.32173
      H   27    0.19884      0.00000     0.29872    0.00244     0.30116
      H   28    0.10353      0.00000     0.39535    0.00113     0.39647
      H   29    0.10545      0.00000     0.39234    0.00221     0.39455
      H   30    0.10710      0.00000     0.39117    0.00173     0.39290
      H   31    0.10845      0.00000     0.38957    0.00198     0.39155
      H   32    0.10533      0.00000     0.39344    0.00124     0.39467
      H   33    0.10603      0.00000     0.39238    0.00159     0.39397
      H   34    0.10776      0.00000     0.39102    0.00122     0.39224
      H   35    0.10237      0.00000     0.39660    0.00103     0.39763
      H   36    0.10709      0.00000     0.39156    0.00135     0.39291
 =======================================================================
   * Total *   -0.00000     16.99316    45.79233    0.21451    63.00000

 Normal termination of Gaussian 16 at Fri Dec 11 14:23:12 2020.
