 Gaussian 16, Revision A.03,

 -----------------------------------------------------------
 # opt freq B3LYP/6-31G(d) empiricaldispersion=gd3bj scf=xqc
 -----------------------------------------------------------

 ------------------------------
 CID_91843690_JID_8984_neutraal
 ------------------------------
 Symbolic Z-matrix:
 Charge =  0 Multiplicity = 1

 SCF Done:  E(RB3LYP) =  -802.932642670     A.U. after   15 cycles
 SCF Done:  E(RB3LYP) =  -802.910122165     A.U. after   13 cycles
 SCF Done:  E(RB3LYP) =  -802.938886720     A.U. after   12 cycles
 SCF Done:  E(RB3LYP) =  -802.940919077     A.U. after   14 cycles
 SCF Done:  E(RB3LYP) =  -802.943925185     A.U. after   12 cycles
 SCF Done:  E(RB3LYP) =  -802.945817453     A.U. after   12 cycles
 SCF Done:  E(RB3LYP) =  -802.946412953     A.U. after   12 cycles
 SCF Done:  E(RB3LYP) =  -802.948308502     A.U. after   14 cycles
 SCF Done:  E(RB3LYP) =  -802.949661127     A.U. after   12 cycles
 SCF Done:  E(RB3LYP) =  -802.950881156     A.U. after   13 cycles
 SCF Done:  E(RB3LYP) =  -802.952651350     A.U. after    8 cycles
 SCF Done:  E(RB3LYP) =  -802.952652868     A.U. after    8 cycles
 SCF Done:  E(RB3LYP) =  -802.952653942     A.U. after    8 cycles
 SCF Done:  E(RB3LYP) =  -802.952654539     A.U. after    8 cycles
 SCF Done:  E(RB3LYP) =  -802.952654994     A.U. after    8 cycles
 SCF Done:  E(RB3LYP) =  -802.952655213     A.U. after    7 cycles
 Optimization completed.
    -- Stationary point found.
 Normal termination of Gaussian 16 at Fri Dec 11 23:30:53 2020.

 --------------------------------------------------------------------
 #N Geom=AllCheck Guess=TCheck SCRF=Check GenChk RB3LYP/6-31G(d) Freq
 --------------------------------------------------------------------

 Structure from the checkpoint file:  "JID_8984.chk"
 ------------------------------
 CID_91843690_JID_8984_neutraal
 ------------------------------
 Charge =  0 Multiplicity = 1

 SCF Done:  E(RB3LYP) =  -802.952655213     A.U. after    1 cycles

  Exact polarizability: 170.049  16.248 139.057   1.850   4.377 151.018
 Approx polarizability: 238.568  32.396 204.518   4.079   9.804 241.378

                      1                      2                      3
                      A                      A                      A
 Frequencies --     32.6226                42.1004                52.7297
 Red. masses --      3.9902                 4.2647                 3.5227
 Frc consts  --      0.0025                 0.0045                 0.0058
 IR Inten    --      1.0217                 2.5721                 0.0286

                      4                      5                      6
                      A                      A                      A
 Frequencies --     70.8133                97.1892               102.8279
 Red. masses --      5.3426                 5.7572                 4.2361
 Frc consts  --      0.0158                 0.0320                 0.0264
 IR Inten    --      1.9715                 2.3927                 2.8195

                      7                      8                      9
                      A                      A                      A
 Frequencies --    128.0767               140.5121               146.0509
 Red. masses --      1.8758                 1.5984                 3.8202
 Frc consts  --      0.0181                 0.0186                 0.0480
 IR Inten    --      0.8596                 0.6142                 2.1620

                     10                     11                     12
                      A                      A                      A
 Frequencies --    180.5993               181.0410               233.9219
 Red. masses --      3.6934                 3.0320                 2.5487
 Frc consts  --      0.0710                 0.0586                 0.0822
 IR Inten    --      1.1600                 6.1225                 1.0769

                     13                     14                     15
                      A                      A                      A
 Frequencies --    257.8932               268.1663               306.7986
 Red. masses --      3.3484                 3.1308                 2.3702
 Frc consts  --      0.1312                 0.1327                 0.1314
 IR Inten    --      2.5076                 4.9878                 0.8847

                     16                     17                     18
                      A                      A                      A
 Frequencies --    334.4181               378.0229               400.2167
 Red. masses --      2.3664                 2.0548                 2.5168
 Frc consts  --      0.1559                 0.1730                 0.2375
 IR Inten    --      5.5962                 1.1707                 0.9866

                     19                     20                     21
                      A                      A                      A
 Frequencies --    418.1000               439.5575               471.9028
 Red. masses --      2.1060                 2.6268                 3.3687
 Frc consts  --      0.2169                 0.2990                 0.4420
 IR Inten    --      3.9764                 1.1565                 2.5509

                     22                     23                     24
                      A                      A                      A
 Frequencies --    494.1323               526.9832               540.8471
 Red. masses --      2.7922                 2.6834                 1.8507
 Frc consts  --      0.4017                 0.4391                 0.3190
 IR Inten    --     23.9048                 5.2272                44.8693

                     25                     26                     27
                      A                      A                      A
 Frequencies --    606.4177               636.0177               640.9971
 Red. masses --      1.6644                 4.0389                 2.1368
 Frc consts  --      0.3606                 0.9626                 0.5173
 IR Inten    --     34.9344                13.5566                37.1018

                     28                     29                     30
                      A                      A                      A
 Frequencies --    649.0922               685.8279               723.1686
 Red. masses --      3.7607                 3.1670                 1.4576
 Frc consts  --      0.9335                 0.8777                 0.4491
 IR Inten    --      0.1149                25.9097                16.1690

                     31                     32                     33
                      A                      A                      A
 Frequencies --    725.3315               736.4525               796.0241
 Red. masses --      3.7290                 3.3489                 2.7329
 Frc consts  --      1.1559                 1.0702                 1.0203
 IR Inten    --      2.6162                21.6536                11.9218

                     34                     35                     36
                      A                      A                      A
 Frequencies --    802.5690               812.8067               829.3156
 Red. masses --      2.0413                 2.7843                 1.5381
 Frc consts  --      0.7747                 1.0838                 0.6233
 IR Inten    --     76.1206                 5.7212                 2.8856

                     37                     38                     39
                      A                      A                      A
 Frequencies --    839.7228               882.8033               909.2427
 Red. masses --      1.2865                 2.3093                 2.0713
 Frc consts  --      0.5345                 1.0604                 1.0089
 IR Inten    --      7.9217                 1.6539                 1.3522

                     40                     41                     42
                      A                      A                      A
 Frequencies --    938.2737               957.9430               983.4602
 Red. masses --      5.2853                 2.4234                 2.0769
 Frc consts  --      2.7414                 1.3103                 1.1835
 IR Inten    --      0.9113                 5.1243                 1.4660

                     43                     44                     45
                      A                      A                      A
 Frequencies --    990.4168               994.7333              1017.1964
 Red. masses --      1.6330                 2.1936                 1.6005
 Frc consts  --      0.9438                 1.2789                 0.9757
 IR Inten    --     12.2217                 0.1303                12.5331

                     46                     47                     48
                      A                      A                      A
 Frequencies --   1038.2306              1058.6612              1074.0896
 Red. masses --      1.4438                 2.2483                 1.7364
 Frc consts  --      0.9169                 1.4846                 1.1802
 IR Inten    --      0.3584                 2.5060                 0.9596

                     49                     50                     51
                      A                      A                      A
 Frequencies --   1079.0073              1082.9161              1106.3287
 Red. masses --      2.1674                 1.4590                 1.6514
 Frc consts  --      1.4867                 1.0081                 1.1909
 IR Inten    --     17.2754                 2.0779                 7.4441

                     52                     53                     54
                      A                      A                      A
 Frequencies --   1110.0810              1135.9909              1156.6356
 Red. masses --      1.7277                 2.4954                 1.6087
 Frc consts  --      1.2544                 1.8973                 1.2680
 IR Inten    --     12.9644                 6.1954                 3.7983

                     55                     56                     57
                      A                      A                      A
 Frequencies --   1163.6770              1174.8542              1191.3658
 Red. masses --      2.6178                 2.5639                 2.3855
 Frc consts  --      2.0886                 2.0851                 1.9949
 IR Inten    --     15.1335                11.6519                 8.1307

                     58                     59                     60
                      A                      A                      A
 Frequencies --   1202.7402              1217.3119              1226.2346
 Red. masses --      1.2362                 1.6635                 1.1797
 Frc consts  --      1.0536                 1.4524                 1.0451
 IR Inten    --      1.8496                21.0530                 3.1173

                     61                     62                     63
                      A                      A                      A
 Frequencies --   1271.9720              1276.7195              1308.0732
 Red. masses --      1.2058                 1.6153                 1.2266
 Frc consts  --      1.1494                 1.5513                 1.2366
 IR Inten    --      1.4989                16.7129                 0.9289

                     64                     65                     66
                      A                      A                      A
 Frequencies --   1313.3818              1332.3745              1339.1214
 Red. masses --      2.4220                 1.2277                 1.6186
 Frc consts  --      2.4615                 1.2841                 1.7101
 IR Inten    --     46.7154                 0.2614                27.6298

                     67                     68                     69
                      A                      A                      A
 Frequencies --   1345.4581              1372.6270              1383.3828
 Red. masses --      1.4309                 1.3232                 1.3545
 Frc consts  --      1.5262                 1.4688                 1.5273
 IR Inten    --      2.1319                16.8144                11.7499

                     70                     71                     72
                      A                      A                      A
 Frequencies --   1394.2932              1397.5799              1404.3938
 Red. masses --      1.5548                 1.3976                 1.4883
 Frc consts  --      1.7809                 1.6084                 1.7295
 IR Inten    --     12.2730                11.4276                 5.9588

                     73                     74                     75
                      A                      A                      A
 Frequencies --   1410.6205              1422.1981              1444.4080
 Red. masses --      2.2533                 1.3550                 1.2684
 Frc consts  --      2.6417                 1.6148                 1.5592
 IR Inten    --     10.1069                 3.3434                 2.9986

                     76                     77                     78
                      A                      A                      A
 Frequencies --   1447.3633              1461.2630              1469.4259
 Red. masses --      2.2295                 1.4568                 2.6678
 Frc consts  --      2.7518                 1.8328                 3.3939
 IR Inten    --     91.7147                 5.4743                80.5781

                     79                     80                     81
                      A                      A                      A
 Frequencies --   1483.5368              1503.0674              1506.9128
 Red. masses --      1.5606                 1.1966                 1.1772
 Frc consts  --      2.0236                 1.5928                 1.5750
 IR Inten    --     41.9872                 7.6202                 9.2079

                     82                     83                     84
                      A                      A                      A
 Frequencies --   1507.4330              1516.0838              1518.3255
 Red. masses --      1.1937                 1.1323                 1.0989
 Frc consts  --      1.5982                 1.5335                 1.4926
 IR Inten    --      3.8493                27.2585                 9.2732

                     85                     86                     87
                      A                      A                      A
 Frequencies --   1520.7333              1524.4488              1538.3011
 Red. masses --      1.4596                 1.3169                 1.1047
 Frc consts  --      1.9888                 1.8031                 1.5402
 IR Inten    --      7.5128                 3.3052                 0.8307

                     88                     89                     90
                      A                      A                      A
 Frequencies --   1547.4286              1550.1850              1557.5085
 Red. masses --      1.1118                 1.8154                 1.1007
 Frc consts  --      1.5686                 2.5703                 1.5731
 IR Inten    --     10.2004                15.9521                 4.6055

                     91                     92                     93
                      A                      A                      A
 Frequencies --   1579.6960              1770.8626              2950.7646
 Red. masses --      4.3422                 7.5770                 1.0728
 Frc consts  --      6.3842                13.9997                 5.5033
 IR Inten    --     21.1757               374.8966                60.8069

                     94                     95                     96
                      A                      A                      A
 Frequencies --   3008.6537              3023.3658              3042.3633
 Red. masses --      1.0691                 1.0812                 1.0653
 Frc consts  --      5.7017                 5.8231                 5.8098
 IR Inten    --     14.3282                15.6623                 2.3410

                     97                     98                     99
                      A                      A                      A
 Frequencies --   3045.1321              3049.2189              3051.1620
 Red. masses --      1.0639                 1.0467                 1.0666
 Frc consts  --      5.8127                 5.7341                 5.8504
 IR Inten    --     54.5419                26.3714                45.3552

                    100                    101                    102
                      A                      A                      A
 Frequencies --   3074.3423              3077.6564              3082.1889
 Red. masses --      1.0883                 1.0943                 1.0614
 Frc consts  --      6.0603                 6.1070                 5.9409
 IR Inten    --     74.9339                28.2667                10.7402

                    103                    104                    105
                      A                      A                      A
 Frequencies --   3086.7479              3089.7349              3092.3747
 Red. masses --      1.1010                 1.0621                 1.1021
 Frc consts  --      6.1808                 5.9736                 6.2096
 IR Inten    --     34.3874                30.5592                63.6926

                    106                    107                    108
                      A                      A                      A
 Frequencies --   3116.9650              3118.5635              3132.3841
 Red. masses --      1.0910                 1.0950                 1.1050
 Frc consts  --      6.2453                 6.2745                 6.3882
 IR Inten    --      3.1181                11.4902                12.8025

                    109                    110                    111
                      A                      A                      A
 Frequencies --   3150.3255              3165.4668              3256.1972
 Red. masses --      1.1026                 1.1015                 1.0910
 Frc consts  --      6.4473                 6.5029                 6.8154
 IR Inten    --     10.4069                 2.8341                 6.0588

                    112                    113                    114
                      A                      A                      A
 Frequencies --   3283.1895              3498.1736              3593.3605
 Red. masses --      1.1043                 1.0745                 1.0751
 Frc consts  --      7.0134                 7.7468                 8.1789
 IR Inten    --      3.6192                 1.3806                22.1070

 - Thermochemistry -
 -------------------
 Temperature   298.150 Kelvin.  Pressure   1.00000 Atm.
 Atom     1 has atomic number  6 and mass  12.00000

 Molecular mass:   250.17936 amu.
 Principal axes and moments of inertia in atomic units:
                           1         2         3
     Eigenvalues --  3086.059725273.065076407.39017
           X            0.99996  -0.00865   0.00096
           Y            0.00866   0.99993  -0.00854
           Z           -0.00089   0.00854   0.99996
 This molecule is an asymmetric top.
 Rotational symmetry number  1.
 Warning -- assumption of classical behavior for rotation
           may cause significant error
 Rotational temperatures (Kelvin)      0.02807     0.01643     0.01352
 Rotational constants (GHZ):           0.58480     0.34226     0.28167
 Zero-point vibrational energy     932064.2 (Joules/Mol)
                                  222.76870 (Kcal/Mol)
 Warning -- explicit consideration of  25 degrees of freedom as
           vibrations may cause significant error
 Vibrational temperatures:     46.94    60.57    75.87   101.88   139.83
          (Kelvin)            147.95   184.27   202.17   210.13   259.84
                              260.48   336.56   371.05   385.83   441.41
                              481.15   543.89   575.82   601.55   632.43
                              678.96   710.95   758.21   778.16   872.50
                              915.09   922.25   933.90   986.75  1040.48
                             1043.59  1059.59  1145.30  1154.72  1169.45
                             1193.20  1208.17  1270.16  1308.20  1349.97
                             1378.27  1414.98  1424.99  1431.20  1463.52
                             1493.78  1523.18  1545.38  1552.45  1558.07
                             1591.76  1597.16  1634.44  1664.14  1674.27
                             1690.35  1714.11  1730.47  1751.44  1764.28
                             1830.08  1836.91  1882.03  1889.66  1916.99
                             1926.70  1935.81  1974.90  1990.38  2006.08
                             2010.81  2020.61  2029.57  2046.23  2078.18
                             2082.43  2102.43  2114.18  2134.48  2162.58
                             2168.11  2168.86  2181.31  2184.53  2188.00
                             2193.34  2213.27  2226.40  2230.37  2240.91
                             2272.83  2547.88  4245.49  4328.78  4349.95
                             4377.28  4381.27  4387.15  4389.94  4423.29
                             4428.06  4434.58  4441.14  4445.44  4449.24
                             4484.62  4486.92  4506.80  4532.62  4554.40
                             4684.94  4723.78  5033.09  5170.04

 Zero-point correction=                           0.355005 (Hartree/Particle)
 Thermal correction to Energy=                    0.372403
 Thermal correction to Enthalpy=                  0.373347
 Thermal correction to Gibbs Free Energy=         0.309126
 Sum of electronic and zero-point Energies=           -802.597651
 Sum of electronic and thermal Energies=              -802.580252
 Sum of electronic and thermal Enthalpies=            -802.579308
 Sum of electronic and thermal Free Energies=         -802.643529

                     E (Thermal)             CV                S
                      KCal/Mol        Cal/Mol-Kelvin    Cal/Mol-Kelvin
 Total                  233.686             66.926            135.165
 Electronic               0.000              0.000              0.000
 Translational            0.889              2.981             42.451
 Rotational               0.889              2.981             33.011
 Vibrational            231.909             60.964             59.703
 Vibration     1          0.594              1.983              5.663
 Vibration     2          0.595              1.980              5.158
 Vibration     3          0.596              1.977              4.712
 Vibration     4          0.598              1.968              4.131
 Vibration     5          0.603              1.951              3.510
 Vibration     6          0.605              1.947              3.400
 Vibration     7          0.611              1.925              2.975
 Vibration     8          0.615              1.913              2.797
 Vibration     9          0.617              1.907              2.723
 Vibration    10          0.630              1.866              2.322
 Vibration    11          0.630              1.865              2.318
 Vibration    12          0.654              1.789              1.849
 Vibration    13          0.667              1.749              1.676
 Vibration    14          0.673              1.732              1.608
 Vibration    15          0.697              1.661              1.380
 Vibration    16          0.716              1.607              1.239
 Vibration    17          0.748              1.517              1.047
 Vibration    18          0.766              1.470              0.962
 Vibration    19          0.781              1.431              0.898
 Vibration    20          0.800              1.384              0.828
 Vibration    21          0.829              1.312              0.732
 Vibration    22          0.850              1.263              0.673
 Vibration    23          0.882              1.190              0.594
 Vibration    24          0.896              1.160              0.563
 Vibration    25          0.965              1.018              0.439

                           ! Non-Optimized Parameters !
 Normal termination of Gaussian 16 at Fri Dec 11 23:51:40 2020.

 ----------------------------------------------------------------------
 # B3LYP/6-311++G(d,p) empiricaldispersion=gd3bj scf=xqc pop=npa geom=c
 heck
 ----------------------------------------------------------------------

 --------------------------------------
 CID_91843690_JID_8984_Energie_neutraal
 --------------------------------------
 Structure from the checkpoint file:  "JID_8984.chk"
 Charge =  0 Multiplicity = 1

 SCF Done:  E(RB3LYP) =  -803.179844484     A.U. after   15 cycles
 Normal termination of Gaussian 16 at Fri Dec 11 23:59:37 2020.

 ----------------------------------------------------------------------
 # B3LYP/6-311++G(d,p) empiricaldispersion=gd3bj scf=xqc pop=npa geom=c
 heck
 ----------------------------------------------------------------------

 ------------------------------------
 CID_91843690_JID_8984_Energie_kation
 ------------------------------------
 Structure from the checkpoint file:  "JID_8984.chk"
 Charge =  1 Multiplicity = 2

 SCF Done:  E(UB3LYP) =  -802.890068406     A.U. after   30 cycles
 Normal termination of Gaussian 16 at Sat Dec 12 00:21:09 2020.
 Gaussian 16:  ES64L-G16RevA.03 25-Dec-2016

 ----------------------------------------------------------------------
 # B3LYP/6-311++G(d,p) empiricaldispersion=gd3bj scf=xqc pop=npa geom=c
 heck
 ----------------------------------------------------------------------

 -----------------------------------
 CID_91843690_JID_8984_Energie_anion
 -----------------------------------
 Structure from the checkpoint file:  "JID_8984.chk"
 Charge = -1 Multiplicity = 2

                         Standard orientation:
 ---------------------------------------------------------------------
 Center     Atomic      Atomic             Coordinates (Angstroms)
 Number     Number       Type             X           Y           Z
 ---------------------------------------------------------------------
      1          6           0        2.049527   -0.897521    2.057850
      2          6           0        1.518188   -1.451241    0.775865
      3          7           0        0.531162   -2.327525    0.676737
      4          6           0        0.391889   -2.593872   -0.669155
      5          6           0        1.303311   -1.872278   -1.394876
      6          7           0        2.029292   -1.145189   -0.465478
      7          6           0        3.018059   -0.127158   -0.794684
      8          6           0        2.365444    1.201710   -1.207809
      9          6           0        1.733695    1.881369    0.003681
     10          8           0        2.452146    2.354722    0.882907
     11          7           0        0.377294    1.927227    0.083034
     12          6           0       -0.598748    1.182954   -0.712911
     13          6           0       -2.032395    1.500069   -0.261041
     14          6           0       -2.330785    1.091455    1.197549
     15          6           0       -2.437888   -0.426075    1.367833
     16          7           0       -3.466513   -0.945001    0.457441
     17          6           0       -3.123983   -0.700560   -0.944465
     18          6           0       -3.051452    0.810492   -1.190117
     19          1           0        3.062891   -1.266323    2.263413
     20          1           0        1.397108   -1.235812    2.865003
     21          1           0        2.090895    0.195770    2.063778
     22          1           0       -0.346960   -3.295952   -1.030732
     23          1           0        1.513470   -1.804955   -2.452087
     24          1           0        3.655378    0.038409    0.076424
     25          1           0        3.645423   -0.509670   -1.605256
     26          1           0        3.149336    1.875680   -1.567478
     27          1           0        1.658406    1.029105   -2.023444
     28          1           0        0.049815    2.349642    0.943343
     29          1           0       -0.501422    1.467951   -1.767823
     30          1           0       -0.402935    0.109353   -0.644979
     31          1           0       -2.159973    2.588085   -0.351320
     32          1           0       -1.574257    1.482335    1.890233
     33          1           0       -3.287455    1.542210    1.487207
     34          1           0       -1.455639   -0.901221    1.213241
     35          1           0       -2.745474   -0.653406    2.394922
     36          1           0       -3.566253   -1.946487    0.608732
     37          1           0       -3.908513   -1.135837   -1.574302
     38          1           0       -2.169355   -1.173788   -1.241727
     39          1           0       -4.043512    1.235032   -0.997567
     40          1           0       -2.805965    1.009455   -2.241297
 ---------------------------------------------------------------------

 SCF Done:  E(UB3LYP) =  -803.170615460     A.U. after   32 cycles

 The electronic state is 2-A.
 Alpha  occ. eigenvalues --  -18.99652 -14.27800 -14.24779 -14.20470 -14.20063
 Alpha  occ. eigenvalues --  -10.18198 -10.13977 -10.13131 -10.11456 -10.10261
 Alpha  occ. eigenvalues --  -10.09634 -10.09510 -10.09206 -10.09124 -10.09093
 Alpha  occ. eigenvalues --  -10.08716 -10.08046 -10.07494  -0.94807  -0.92782
 Alpha  occ. eigenvalues --   -0.83674  -0.81809  -0.79861  -0.71495  -0.69288
 Alpha  occ. eigenvalues --   -0.68184  -0.66249  -0.61474  -0.60732  -0.58219
 Alpha  occ. eigenvalues --   -0.53618  -0.53370  -0.51211  -0.49222  -0.45811
 Alpha  occ. eigenvalues --   -0.45261  -0.42877  -0.42285  -0.41118  -0.40482
 Alpha  occ. eigenvalues --   -0.38927  -0.37465  -0.36060  -0.35798  -0.34941
 Alpha  occ. eigenvalues --   -0.34588  -0.33290  -0.32851  -0.32731  -0.31635
 Alpha  occ. eigenvalues --   -0.31335  -0.30915  -0.30077  -0.30042  -0.29586
 Alpha  occ. eigenvalues --   -0.29173  -0.28128  -0.26572  -0.25968  -0.24392
 Alpha  occ. eigenvalues --   -0.22669  -0.22420  -0.18574  -0.18289  -0.17227
 Alpha  occ. eigenvalues --   -0.16472  -0.13668  -0.13548   0.04015
 Alpha virt. eigenvalues --    0.05949   0.06762   0.07000   0.08066   0.08217
 Alpha virt. eigenvalues --    0.08710   0.08997   0.09139   0.09529   0.10302
 Alpha virt. eigenvalues --    0.10729   0.10865   0.11540   0.11949   0.12120

  Beta  occ. eigenvalues --  -18.99637 -14.27802 -14.24774 -14.20461 -14.20063
  Beta  occ. eigenvalues --  -10.18182 -10.13974 -10.13102 -10.11439 -10.10235
  Beta  occ. eigenvalues --  -10.09620 -10.09506 -10.09199 -10.09098 -10.09088
  Beta  occ. eigenvalues --  -10.08713 -10.08039 -10.07478  -0.94777  -0.92773
  Beta  occ. eigenvalues --   -0.83656  -0.81793  -0.79850  -0.71469  -0.69259
  Beta  occ. eigenvalues --   -0.68155  -0.66226  -0.61442  -0.60703  -0.58170
  Beta  occ. eigenvalues --   -0.53590  -0.53338  -0.51186  -0.49192  -0.45773
  Beta  occ. eigenvalues --   -0.45229  -0.42830  -0.42245  -0.41082  -0.40432
  Beta  occ. eigenvalues --   -0.38897  -0.37436  -0.36022  -0.35776  -0.34915
  Beta  occ. eigenvalues --   -0.34567  -0.33251  -0.32828  -0.32707  -0.31601
  Beta  occ. eigenvalues --   -0.31317  -0.30892  -0.30065  -0.30021  -0.29551
  Beta  occ. eigenvalues --   -0.29135  -0.28096  -0.26524  -0.25946  -0.24368
  Beta  occ. eigenvalues --   -0.22643  -0.22391  -0.18565  -0.18283  -0.17186
  Beta  occ. eigenvalues --   -0.16448  -0.13648  -0.13525
  Beta virt. eigenvalues --    0.06062   0.07046   0.07176   0.07416   0.08344
  Beta virt. eigenvalues --    0.08687   0.09197   0.09333   0.09377   0.09737
  Beta virt. eigenvalues --    0.10472   0.10924   0.11304   0.11760   0.12305

 Mulliken charges and spin densities:
               1          2
     1  C    0.020227  -0.720976
     2  C   -0.245963   0.137064
     3  N   -0.070908   0.025532
     4  C    0.612371  -0.654353
     5  C   -0.162781   0.001506
     6  N    0.149500   0.009900
     7  C    0.027138  -0.425669
     8  C    0.658117  -0.604779
     9  C   -0.206947  -0.071771
    10  O   -0.300919   0.010467
    11  N    0.025375   0.028938
    12  C   -0.626929  -0.125694
    13  C    0.342011   0.033180
    14  C   -0.243439  -0.158584
    15  C   -0.311732  -0.094455
    16  N   -0.161587   0.010189
    17  C   -0.225068  -0.068614
    18  C    0.209230  -0.808985
    19  H    0.091472   0.080410
    20  H    0.175359  -0.006741
    21  H    0.185600   0.008851
    22  H   -0.115284   0.274867
    23  H   -0.962731   1.148205
    24  H    0.171497   0.009069
    25  H   -0.658466   0.883074
    26  H   -0.422993   0.666858
    27  H   -0.159115   0.332243
    28  H    0.240506   0.054275
    29  H   -0.253668   0.449098
    30  H    1.098248  -0.918866
    31  H   -0.080866   0.304345
    32  H    0.044752   0.025237
    33  H    0.051359   0.115217
    34  H    0.213903  -0.085385
    35  H    0.094672   0.076048
    36  H    0.157653   0.082858
    37  H   -0.342603   0.532723
    38  H    0.185898  -0.073159
    39  H    0.108852   0.050351
    40  H   -0.311742   0.467526
 Sum of Mulliken charges =  -1.00000   1.00000

 Dipole moment (field-independent basis, Debye):
    X=             -2.3070    Y=             -0.7282    Z=              6.9011  Tot=              7.3128
 Quadrupole moment (field-independent basis, Debye-Ang):
   XX=           -182.2963   YY=           -157.6256   ZZ=           -165.0459
   XY=             -5.3636   XZ=              9.2746   YZ=             -1.5757

 Summary of Natural Population Analysis:

                                       Natural Population
                Natural  -----------------------------------------------
    Atom  No    Charge         Core      Valence    Rydberg      Total
 -----------------------------------------------------------------------
      C    1   -0.31278      0.99962     2.30887    0.00429     3.31278
      C    2    0.19414      0.99961     1.79014    0.01612     2.80586
      N    3   -0.26790      0.99970     2.75888    0.00932     3.76790
      C    4   -0.03858      0.99957     2.02492    0.01409     3.03858
      C    5   -0.03394      0.99953     2.02129    0.01311     3.03394
      N    6   -0.21546      0.99962     2.70305    0.01279     3.71546
      C    7   -0.07965      0.99960     2.06786    0.01220     3.07965
      C    8   -0.23609      0.99958     2.22699    0.00952     3.23609
      C    9    0.34565      0.99966     1.63172    0.02297     2.65435
      O   10   -0.33391      0.99988     3.32859    0.00544     4.33391
      N   11   -0.31287      0.99965     2.80390    0.00931     3.81287
      C   12   -0.09599      0.99957     2.08447    0.01196     3.09599
      C   13   -0.11224      0.99959     2.10155    0.01110     3.11224
      C   14   -0.19360      0.99961     2.18532    0.00868     3.19360
      C   15   -0.09691      0.99961     2.08728    0.01002     3.09691
      N   16   -0.34297      0.99974     2.83233    0.01090     3.84297
      C   17   -0.09163      0.99962     2.08117    0.01084     3.09163
      C   18   -0.19147      0.99961     2.18215    0.00971     3.19147
      H   19    0.10388      0.00000     0.39521    0.00090     0.39612
      H   20    0.11297      0.00000     0.38624    0.00079     0.38703
      H   21    0.11741      0.00000     0.38154    0.00105     0.38259
      H   22    0.09810      0.00000     0.40076    0.00114     0.40190
      H   23    0.11066      0.00000     0.38674    0.00260     0.38934
      H   24    0.10661      0.00000     0.39195    0.00144     0.39339
      H   25    0.10877      0.00000     0.38822    0.00301     0.39123
      H   26    0.11890      0.00000     0.37954    0.00156     0.38110
      H   27    0.10895      0.00000     0.38847    0.00258     0.39105
      H   28    0.19234      0.00000     0.30529    0.00237     0.30766
      H   29    0.09932      0.00000     0.39872    0.00195     0.40068
      H   30    0.10072      0.00000     0.39486    0.00442     0.39928
      H   31    0.10002      0.00000     0.39828    0.00170     0.39998
      H   32    0.09406      0.00000     0.40495    0.00099     0.40594
      H   33    0.10063      0.00000     0.39812    0.00125     0.39937
      H   34    0.09532      0.00000     0.40242    0.00226     0.40468
      H   35    0.09182      0.00000     0.40729    0.00088     0.40818
      H   36    0.17389      0.00000     0.32385    0.00226     0.32611
      H   37    0.09513      0.00000     0.40366    0.00121     0.40487
      H   38    0.08346      0.00000     0.41447    0.00207     0.41654
      H   39    0.09995      0.00000     0.39870    0.00136     0.40005
      H   40    0.10330      0.00000     0.39534    0.00136     0.39670
 =======================================================================
   * Total *    0.00000     17.99336    49.76511    0.24153    68.00000

 Normal termination of Gaussian 16 at Sat Dec 12 00:44:16 2020.
