 Gaussian 16, Revision A.03,

 -----------------------------------------------------------
 # opt freq B3LYP/6-31G(d) empiricaldispersion=gd3bj scf=xqc
 -----------------------------------------------------------

 -------------------------------
 CID_115786515_JID_7289_neutraal
 -------------------------------
 Symbolic Z-matrix:
 Charge =  0 Multiplicity = 1

 SCF Done:  E(RB3LYP) =  -1059.52311220     A.U. after   14 cycles
 SCF Done:  E(RB3LYP) =  -1059.52941963     A.U. after   12 cycles
 SCF Done:  E(RB3LYP) =  -1059.52936605     A.U. after   12 cycles
 SCF Done:  E(RB3LYP) =  -1059.53088694     A.U. after   12 cycles
 SCF Done:  E(RB3LYP) =  -1059.53105460     A.U. after   12 cycles
 SCF Done:  E(RB3LYP) =  -1059.53133905     A.U. after   12 cycles
 SCF Done:  E(RB3LYP) =  -1059.53151348     A.U. after   11 cycles
 SCF Done:  E(RB3LYP) =  -1059.53163602     A.U. after   11 cycles
 SCF Done:  E(RB3LYP) =  -1059.53168699     A.U. after   11 cycles
 SCF Done:  E(RB3LYP) =  -1059.53178672     A.U. after   11 cycles
 SCF Done:  E(RB3LYP) =  -1059.53232185     A.U. after   10 cycles
 SCF Done:  E(RB3LYP) =  -1059.53231797     A.U. after    9 cycles
 SCF Done:  E(RB3LYP) =  -1059.53232493     A.U. after   10 cycles
 SCF Done:  E(RB3LYP) =  -1059.53232466     A.U. after    9 cycles
 SCF Done:  E(RB3LYP) =  -1059.53232601     A.U. after    8 cycles
 SCF Done:  E(RB3LYP) =  -1059.53232625     A.U. after    8 cycles
 Optimization completed.
    -- Stationary point found.
 Normal termination of Gaussian 16 at Mon Dec 14 13:43:26 2020.

 --------------------------------------------------------------------
 #N Geom=AllCheck Guess=TCheck SCRF=Check GenChk RB3LYP/6-31G(d) Freq
 --------------------------------------------------------------------

 Structure from the checkpoint file:  "JID_7289.chk"
 -------------------------------
 CID_115786515_JID_7289_neutraal
 -------------------------------
 Charge =  0 Multiplicity = 1

 SCF Done:  E(RB3LYP) =  -1059.53232625     A.U. after    1 cycles

  Exact polarizability: 215.822   4.347 172.546  -8.436  -3.214 130.139
 Approx polarizability: 278.803   3.383 274.532 -16.289  -6.240 198.763

                      1                      2                      3
                      A                      A                      A
 Frequencies --     16.2624                26.5819                36.0587
 Red. masses --      3.9525                 3.3769                 2.0378
 Frc consts  --      0.0006                 0.0014                 0.0016
 IR Inten    --      0.1054                 0.0072                 0.0032

                      4                      5                      6
                      A                      A                      A
 Frequencies --     40.3149                54.0472                68.8670
 Red. masses --      3.4691                 2.4549                 4.5982
 Frc consts  --      0.0033                 0.0042                 0.0128
 IR Inten    --      0.2262                 0.0254                 0.4088

                      7                      8                      9
                      A                      A                      A
 Frequencies --     78.7879               115.1575               144.8103
 Red. masses --      2.6835                 3.6230                 3.2713
 Frc consts  --      0.0098                 0.0283                 0.0404
 IR Inten    --      0.1181                 0.5681                 0.1696

                     10                     11                     12
                      A                      A                      A
 Frequencies --    155.4046               185.0665               211.8656
 Red. masses --      3.3416                 3.3852                 1.5212
 Frc consts  --      0.0475                 0.0683                 0.0402
 IR Inten    --      0.3914                 0.6179                 0.2186

                     13                     14                     15
                      A                      A                      A
 Frequencies --    238.5109               264.8794               279.0153
 Red. masses --      2.2718                 1.1893                 2.5041
 Frc consts  --      0.0761                 0.0492                 0.1149
 IR Inten    --      2.3355               141.6960                 1.5243

                     16                     17                     18
                      A                      A                      A
 Frequencies --    295.1383               319.8982               352.4070
 Red. masses --      2.2663                 4.0150                 2.8647
 Frc consts  --      0.1163                 0.2421                 0.2096
 IR Inten    --     16.9634                 6.3768                 0.6339

                     19                     20                     21
                      A                      A                      A
 Frequencies --    373.2068               387.1530               421.3908
 Red. masses --      2.6796                 2.8375                 2.1460
 Frc consts  --      0.2199                 0.2506                 0.2245
 IR Inten    --      1.1808                 0.2020                 0.7420

                     22                     23                     24
                      A                      A                      A
 Frequencies --    429.1244               539.9922               550.4547
 Red. masses --      2.6130                 2.9989                 4.2090
 Frc consts  --      0.2835                 0.5152                 0.7514
 IR Inten    --      2.3985                 0.6591                 2.5574

                     25                     26                     27
                      A                      A                      A
 Frequencies --    557.0820               598.0966               608.0546
 Red. masses --      3.3084                 1.9964                 3.3474
 Frc consts  --      0.6049                 0.4208                 0.7292
 IR Inten    --     11.8455                 2.2211                 1.0853

                     28                     29                     30
                      A                      A                      A
 Frequencies --    630.5666               661.2977               716.0736
 Red. masses --      2.5393                 5.3783                 4.9162
 Frc consts  --      0.5949                 1.3858                 1.4852
 IR Inten    --      0.3322                 2.7811                 6.0481

                     31                     32                     33
                      A                      A                      A
 Frequencies --    753.3323               767.9022               787.3109
 Red. masses --      3.9841                 1.5949                 1.7867
 Frc consts  --      1.3321                 0.5541                 0.6525
 IR Inten    --      2.4367                 0.2264                 2.7744

                     34                     35                     36
                      A                      A                      A
 Frequencies --    801.3528               816.9637               824.7656
 Red. masses --      1.2686                 1.3325                 1.6888
 Frc consts  --      0.4800                 0.5240                 0.6768
 IR Inten    --      1.8554                20.2245                 4.4450

                     37                     38                     39
                      A                      A                      A
 Frequencies --    870.8512               881.9454               887.6614
 Red. masses --      2.3318                 1.7009                 1.7965
 Frc consts  --      1.0419                 0.7795                 0.8340
 IR Inten    --      1.9258                 1.0764                 0.2862

                     40                     41                     42
                      A                      A                      A
 Frequencies --    902.7570               935.7277               950.2369
 Red. masses --      2.5267                 1.9500                 2.0914
 Frc consts  --      1.2132                 1.0060                 1.1127
 IR Inten    --      3.5616                 3.6798                 4.8683

                     43                     44                     45
                      A                      A                      A
 Frequencies --    960.2795               976.9333               985.3709
 Red. masses --      2.1058                 1.7261                 1.7110
 Frc consts  --      1.1441                 0.9706                 0.9788
 IR Inten    --      6.1263                 3.5919                 6.4851

                     46                     47                     48
                      A                      A                      A
 Frequencies --    997.4593              1023.2447              1035.0263
 Red. masses --      1.5125                 2.5645                 1.9681
 Frc consts  --      0.8866                 1.5820                 1.2422
 IR Inten    --      5.5354                34.7310                30.9415

                     49                     50                     51
                      A                      A                      A
 Frequencies --   1054.2391              1065.8842              1086.2285
 Red. masses --      1.9010                 2.0359                 1.6645
 Frc consts  --      1.2448                 1.3628                 1.1571
 IR Inten    --      3.4360                11.9328                 4.8266

                     52                     53                     54
                      A                      A                      A
 Frequencies --   1099.9333              1104.8929              1122.4701
 Red. masses --      1.7905                 1.8024                 2.2132
 Frc consts  --      1.2763                 1.2964                 1.6430
 IR Inten    --      9.2316                 7.9098                14.5348

                     55                     56                     57
                      A                      A                      A
 Frequencies --   1129.9110              1151.3539              1183.0358
 Red. masses --      1.9997                 1.9970                 1.6199
 Frc consts  --      1.5042                 1.5597                 1.3358
 IR Inten    --      2.2148                 3.9666                21.4324

                     58                     59                     60
                      A                      A                      A
 Frequencies --   1194.2040              1220.6506              1224.8831
 Red. masses --      2.8778                 1.4681                 1.5419
 Frc consts  --      2.4181                 1.2888                 1.3630
 IR Inten    --      6.9220                 2.7815                 5.2514

                     61                     62                     63
                      A                      A                      A
 Frequencies --   1240.1761              1258.0492              1260.8583
 Red. masses --      1.3228                 1.3128                 1.3693
 Frc consts  --      1.1987                 1.2242                 1.2826
 IR Inten    --     15.4189                 1.8743                 3.7542

                     64                     65                     66
                      A                      A                      A
 Frequencies --   1269.9826              1292.6580              1300.9823
 Red. masses --      1.2953                 1.2645                 1.1491
 Frc consts  --      1.2309                 1.2449                 1.1459
 IR Inten    --      6.0064                 2.5048                 4.7943

                     67                     68                     69
                      A                      A                      A
 Frequencies --   1312.4067              1318.7840              1330.9359
 Red. masses --      1.2413                 1.2461                 1.2171
 Frc consts  --      1.2596                 1.2769                 1.2702
 IR Inten    --      3.2097                 2.3154                 1.8512

                     70                     71                     72
                      A                      A                      A
 Frequencies --   1344.8394              1351.1943              1357.1802
 Red. masses --      1.2967                 1.4178                 1.2968
 Frc consts  --      1.3817                 1.5251                 1.4073
 IR Inten    --      0.7214                 1.9844                 0.1439

                     73                     74                     75
                      A                      A                      A
 Frequencies --   1366.2446              1367.3822              1385.2463
 Red. masses --      1.4335                 1.4566                 1.4861
 Frc consts  --      1.5765                 1.6046                 1.6801
 IR Inten    --      6.7170                17.4171                 4.5630

                     76                     77                     78
                      A                      A                      A
 Frequencies --   1394.9427              1408.5865              1421.3739
 Red. masses --      2.0563                 1.4495                 1.5157
 Frc consts  --      2.3575                 1.6945                 1.8042
 IR Inten    --      1.6574                 7.4268                 1.8163

                     79                     80                     81
                      A                      A                      A
 Frequencies --   1425.5651              1437.8030              1456.2076
 Red. masses --      1.3712                 1.2262                 1.5272
 Frc consts  --      1.6418                 1.4935                 1.9080
 IR Inten    --      3.5649                 1.6735                23.4961

                     82                     83                     84
                      A                      A                      A
 Frequencies --   1506.8962              1511.1487              1512.6344
 Red. masses --      1.0844                 1.0698                 1.0913
 Frc consts  --      1.4508                 1.4393                 1.4711
 IR Inten    --      1.5167                 4.5588                 6.8857

                     85                     86                     87
                      A                      A                      A
 Frequencies --   1516.6865              1525.1055              1525.8257
 Red. masses --      1.0774                 1.0869                 1.0404
 Frc consts  --      1.4603                 1.4895                 1.4271
 IR Inten    --      0.3140                 0.7387                 6.9344

                     88                     89                     90
                      A                      A                      A
 Frequencies --   1528.2144              1533.3550              1533.6204
 Red. masses --      1.0876                 1.0856                 1.1147
 Frc consts  --      1.4965                 1.5038                 1.5446
 IR Inten    --      5.6673                 3.7995                 2.9105

                     91                     92                     93
                      A                      A                      A
 Frequencies --   1550.9803              1552.3390              1622.5431
 Red. masses --      5.5793                 1.1187                 5.7043
 Frc consts  --      7.9075                 1.5883                 8.8479
 IR Inten    --      5.6244                 0.5856                 1.1649

                     94                     95                     96
                      A                      A                      A
 Frequencies --   2976.1873              2988.7274              3006.7919
 Red. masses --      1.0822                 1.0817                 1.0734
 Frc consts  --      5.6478                 5.6927                 5.7176
 IR Inten    --     54.6752                 9.5850                52.4435

                     97                     98                     99
                      A                      A                      A
 Frequencies --   3020.0693              3028.7124              3036.9052
 Red. masses --      1.0733                 1.0640                 1.0635
 Frc consts  --      5.7677                 5.7503                 5.7792
 IR Inten    --     26.0065                 3.5088                20.2403

                    100                    101                    102
                      A                      A                      A
 Frequencies --   3037.2265              3051.3642              3052.7663
 Red. masses --      1.0665                 1.0644                 1.0348
 Frc consts  --      5.7967                 5.8393                 5.6817
 IR Inten    --     69.3054                32.9168                31.1164

                    103                    104                    105
                      A                      A                      A
 Frequencies --   3065.3886              3066.4852              3070.1146
 Red. masses --      1.0697                 1.0853                 1.0704
 Frc consts  --      5.9220                 6.0126                 5.9441
 IR Inten    --     68.3423                17.5222                27.1892

                    106                    107                    108
                      A                      A                      A
 Frequencies --   3075.3151              3078.2431              3082.3468
 Red. masses --      1.0909                 1.0996                 1.0971
 Frc consts  --      6.0789                 6.1391                 6.1413
 IR Inten    --     47.7042                10.4001                41.0975

                    109                    110                    111
                      A                      A                      A
 Frequencies --   3093.1416              3110.8880              3119.6258
 Red. masses --      1.1002                 1.1046                 1.0997
 Frc consts  --      6.2019                 6.2984                 6.3054
 IR Inten    --     14.0595                81.7170                15.3927

                    112                    113                    114
                      A                      A                      A
 Frequencies --   3122.2682              3129.4896              3152.6796
 Red. masses --      1.1026                 1.1036                 1.0917
 Frc consts  --      6.3330                 6.3679                 6.3932
 IR Inten    --     46.2107                29.4626                 6.2570

                    115                    116                    117
                      A                      A                      A
 Frequencies --   3201.8601              3216.8155              3747.5849
 Red. masses --      1.0888                 1.0968                 1.0660
 Frc consts  --      6.5769                 6.6871                 8.8211
 IR Inten    --     13.5127                11.4379                 7.9254

 - Thermochemistry -
 -------------------
 Temperature   298.150 Kelvin.  Pressure   1.00000 Atm.
 Atom     1 has atomic number  6 and mass  12.00000

 Molecular mass:   252.15479 amu.
 Principal axes and moments of inertia in atomic units:
                           1         2         3
     Eigenvalues --  2349.747939404.08928**********
           X            1.00000   0.00147  -0.00049
           Y           -0.00146   0.99997   0.00736
           Z            0.00050  -0.00736   0.99997
 This molecule is an asymmetric top.
 Rotational symmetry number  1.
 Warning -- assumption of classical behavior for rotation
           may cause significant error
 Rotational temperatures (Kelvin)      0.03686     0.00921     0.00809
 Rotational constants (GHZ):           0.76806     0.19191     0.16853
 Zero-point vibrational energy     959429.7 (Joules/Mol)
                                  229.30920 (Kcal/Mol)
 Warning -- explicit consideration of  27 degrees of freedom as
           vibrations may cause significant error
 Vibrational temperatures:     23.40    38.25    51.88    58.00    77.76
          (Kelvin)             99.08   113.36   165.69   208.35   223.59
                              266.27   304.83   343.16   381.10   401.44
                              424.64   460.26   507.04   536.96   557.03
                              606.29   617.41   776.93   791.98   801.52
                              860.53   874.85   907.24   951.46  1030.27
                             1083.88  1104.84  1132.76  1152.97  1175.43
                             1186.65  1252.96  1268.92  1277.15  1298.87
                             1346.30  1367.18  1381.63  1405.59  1417.73
                             1435.12  1472.22  1489.17  1516.81  1533.57
                             1562.84  1582.56  1589.69  1614.98  1625.69
                             1656.54  1702.12  1718.19  1756.24  1762.33
                             1784.34  1810.05  1814.09  1827.22  1859.85
                             1871.82  1888.26  1897.44  1914.92  1934.92
                             1944.07  1952.68  1965.72  1967.36  1993.06
                             2007.01  2026.64  2045.04  2051.07  2068.68
                             2095.16  2168.09  2174.21  2176.34  2182.17
                             2194.29  2195.32  2198.76  2206.16  2206.54
                             2231.51  2233.47  2334.48  4282.07  4300.11
                             4326.10  4345.21  4357.64  4369.43  4369.89
                             4390.23  4392.25  4410.41  4411.99  4417.21
                             4424.69  4428.91  4434.81  4450.34  4475.87
                             4488.45  4492.25  4502.64  4536.00  4606.76
                             4628.28  5391.94

 Zero-point correction=                           0.365427 (Hartree/Particle)
 Thermal correction to Energy=                    0.383931
 Thermal correction to Enthalpy=                  0.384875
 Thermal correction to Gibbs Free Energy=         0.315520
 Sum of electronic and zero-point Energies=          -1059.166899
 Sum of electronic and thermal Energies=             -1059.148396
 Sum of electronic and thermal Enthalpies=           -1059.147451
 Sum of electronic and thermal Free Energies=        -1059.216806

                     E (Thermal)             CV                S
                      KCal/Mol        Cal/Mol-Kelvin    Cal/Mol-Kelvin
 Total                  240.920             69.149            145.969
 Electronic               0.000              0.000              0.000
 Translational            0.889              2.981             42.475
 Rotational               0.889              2.981             33.825
 Vibrational            239.143             63.187             69.669
 Vibration     1          0.593              1.986              7.045
 Vibration     2          0.593              1.984              6.069
 Vibration     3          0.594              1.982              5.465
 Vibration     4          0.594              1.981              5.244
 Vibration     5          0.596              1.976              4.664
 Vibration     6          0.598              1.969              4.185
 Vibration     7          0.600              1.963              3.921
 Vibration     8          0.608              1.937              3.180
 Vibration     9          0.616              1.908              2.739
 Vibration    10          0.620              1.897              2.605
 Vibration    11          0.631              1.860              2.277
 Vibration    12          0.643              1.823              2.028
 Vibration    13          0.656              1.782              1.814
 Vibration    14          0.671              1.737              1.629
 Vibration    15          0.679              1.712              1.540
 Vibration    16          0.689              1.683              1.444
 Vibration    17          0.706              1.635              1.311
 Vibration    18          0.729              1.570              1.155
 Vibration    19          0.745              1.527              1.067
 Vibration    20          0.756              1.498              1.011
 Vibration    21          0.784              1.424              0.887
 Vibration    22          0.790              1.407              0.862
 Vibration    23          0.895              1.162              0.565
 Vibration    24          0.906              1.139              0.543
 Vibration    25          0.913              1.124              0.530
 Vibration    26          0.956              1.036              0.453
 Vibration    27          0.967              1.015              0.436

                           ! Non-Optimized Parameters !
 Normal termination of Gaussian 16 at Mon Dec 14 14:00:24 2020.

 ----------------------------------------------------------------------
 # B3LYP/6-311++G(d,p) empiricaldispersion=gd3bj scf=xqc pop=npa geom=c
 heck
 ----------------------------------------------------------------------

 ---------------------------------------
 CID_115786515_JID_7289_Energie_neutraal
 ---------------------------------------
 Structure from the checkpoint file:  "JID_7289.chk"
 Charge =  0 Multiplicity = 1

 SCF Done:  E(RB3LYP) =  -1059.74627806     A.U. after   16 cycles
 Normal termination of Gaussian 16 at Mon Dec 14 14:10:11 2020.

 ----------------------------------------------------------------------
 # B3LYP/6-311++G(d,p) empiricaldispersion=gd3bj scf=xqc pop=npa geom=c
 heck
 ----------------------------------------------------------------------

 -------------------------------------
 CID_115786515_JID_7289_Energie_kation
 -------------------------------------
 Structure from the checkpoint file:  "JID_7289.chk"
 Charge =  1 Multiplicity = 2

 SCF Done:  E(UB3LYP) =  -1059.45600547     A.U. after   28 cycles
 Normal termination of Gaussian 16 at Mon Dec 14 14:32:27 2020.
 Gaussian 16:  ES64L-G16RevA.03 25-Dec-2016

 ----------------------------------------------------------------------
 # B3LYP/6-311++G(d,p) empiricaldispersion=gd3bj scf=xqc pop=npa geom=c
 heck
 ----------------------------------------------------------------------

 ------------------------------------
 CID_115786515_JID_7289_Energie_anion
 ------------------------------------
 Structure from the checkpoint file:  "JID_7289.chk"
 Charge = -1 Multiplicity = 2

                         Standard orientation:
 ---------------------------------------------------------------------
 Center     Atomic      Atomic             Coordinates (Angstroms)
 Number     Number       Type             X           Y           Z
 ---------------------------------------------------------------------
      1          6           0       -4.934526   -2.289751   -0.633827
      2          6           0       -4.625014   -1.343939    0.537736
      3          6           0       -3.632194   -0.271190    0.196956
      4          6           0       -3.834899    1.078687    0.096813
      5          6           0       -2.667915    1.808544   -0.287054
      6          6           0       -1.566414    1.019631   -0.483563
      7         16           0       -1.968905   -0.658378   -0.190295
      8          6           0       -0.173606    1.446151   -0.843455
      9          6           0        0.622965    1.982669    0.356799
     10          6           0        0.889407    0.952251    1.461353
     11          6           0        1.535929   -0.393779    1.094290
     12          6           0        2.972688   -0.374161    0.550732
     13          6           0        3.724372   -1.694137    0.816514
     14          6           0        4.938574   -1.682977   -0.142243
     15          6           0        4.596612   -0.628544   -1.236237
     16          6           0        3.135493   -0.220288   -0.972054
     17          8           0        1.819189    2.543597   -0.191352
     18          1           0       -5.320584   -1.728797   -1.491259
     19          1           0       -5.680831   -3.037668   -0.343765
     20          1           0       -4.033050   -2.819270   -0.960516
     21          1           0       -5.547367   -0.849790    0.866050
     22          1           0       -4.268381   -1.932215    1.393973
     23          1           0       -4.799050    1.539017    0.288690
     24          1           0       -2.645911    2.885790   -0.419122
     25          1           0        0.382817    0.628431   -1.310542
     26          1           0       -0.222136    2.252727   -1.583726
     27          1           0        0.023087    2.789141    0.810572
     28          1           0        1.506742    1.443326    2.230614
     29          1           0       -0.073964    0.747247    1.944607
     30          1           0        1.526132   -0.993308    2.014852
     31          1           0        0.896413   -0.940965    0.389313
     32          1           0        3.529681    0.441865    1.039338
     33          1           0        4.007674   -1.811410    1.868680
     34          1           0        3.055255   -2.530674    0.571747
     35          1           0        5.115835   -2.674489   -0.571542
     36          1           0        5.855197   -1.404749    0.389237
     37          1           0        4.745005   -1.012003   -2.250963
     38          1           0        5.249248    0.246557   -1.132385
     39          1           0        2.452315   -0.925369   -1.468801
     40          1           0        2.895663    0.784027   -1.323939
     41          1           0        2.410343    2.752847    0.547877
 ---------------------------------------------------------------------

 SCF Done:  E(UB3LYP) =  -1059.73521509     A.U. after   32 cycles

 The electronic state is 2-A.
 Alpha  occ. eigenvalues --  -88.76989 -19.02288 -10.12556 -10.10133 -10.10097
 Alpha  occ. eigenvalues --  -10.08676 -10.08343 -10.07505 -10.07408 -10.07361
 Alpha  occ. eigenvalues --  -10.07286 -10.07251 -10.07133 -10.07033 -10.06917
 Alpha  occ. eigenvalues --  -10.06895 -10.06223  -7.85636  -5.81917  -5.81560
 Alpha  occ. eigenvalues --   -5.81235  -0.92616  -0.78379  -0.74670  -0.70789
 Alpha  occ. eigenvalues --   -0.68624  -0.66080  -0.63190  -0.61875  -0.61463
 Alpha  occ. eigenvalues --   -0.59235  -0.54731  -0.52827  -0.49020  -0.47491
 Alpha  occ. eigenvalues --   -0.46567  -0.44141  -0.43740  -0.41261  -0.38705
 Alpha  occ. eigenvalues --   -0.38336  -0.37835  -0.37623  -0.35448  -0.34425
 Alpha  occ. eigenvalues --   -0.33520  -0.32589  -0.32421  -0.31284  -0.30230
 Alpha  occ. eigenvalues --   -0.29696  -0.28926  -0.28543  -0.27207  -0.26308
 Alpha  occ. eigenvalues --   -0.26041  -0.25585  -0.25006  -0.24795  -0.24531
 Alpha  occ. eigenvalues --   -0.23808  -0.23521  -0.22714  -0.22195  -0.21986
 Alpha  occ. eigenvalues --   -0.21362  -0.17490  -0.15465  -0.12720   0.04047
 Alpha virt. eigenvalues --    0.05450   0.06612   0.07045   0.07476   0.07831
 Alpha virt. eigenvalues --    0.07948   0.08660   0.09052   0.09198   0.09752
 Alpha virt. eigenvalues --    0.09830   0.10532   0.10666   0.10996   0.11460

  Beta  occ. eigenvalues --  -88.76981 -19.02256 -10.12542 -10.10057 -10.10051
  Beta  occ. eigenvalues --  -10.08658 -10.08347 -10.07498 -10.07408 -10.07350
  Beta  occ. eigenvalues --  -10.07279 -10.07235 -10.07100 -10.07025 -10.06909
  Beta  occ. eigenvalues --  -10.06877 -10.06222  -7.85628  -5.81913  -5.81556
  Beta  occ. eigenvalues --   -5.81213  -0.92538  -0.78306  -0.74651  -0.70723
  Beta  occ. eigenvalues --   -0.68575  -0.66043  -0.63140  -0.61826  -0.61446
  Beta  occ. eigenvalues --   -0.59182  -0.54686  -0.52769  -0.48967  -0.47469
  Beta  occ. eigenvalues --   -0.46524  -0.44061  -0.43686  -0.41208  -0.38674
  Beta  occ. eigenvalues --   -0.38289  -0.37796  -0.37587  -0.35407  -0.34380
  Beta  occ. eigenvalues --   -0.33465  -0.32561  -0.32398  -0.31253  -0.30187
  Beta  occ. eigenvalues --   -0.29619  -0.28889  -0.28502  -0.27165  -0.26205
  Beta  occ. eigenvalues --   -0.26001  -0.25539  -0.24972  -0.24775  -0.24513
  Beta  occ. eigenvalues --   -0.23759  -0.23482  -0.22697  -0.22158  -0.21963
  Beta  occ. eigenvalues --   -0.21331  -0.17454  -0.15349  -0.12441
  Beta virt. eigenvalues --    0.06133   0.06395   0.07068   0.07231   0.07884
  Beta virt. eigenvalues --    0.08028   0.08169   0.08912   0.09408   0.09451
  Beta virt. eigenvalues --    0.09895   0.10097   0.10598   0.10706   0.11242

 Mulliken charges and spin densities:
               1          2
     1  C    0.379385  -0.894683
     2  C   -0.536496   0.069410
     3  C    0.392549   0.164739
     4  C   -0.291320   0.090082
     5  C   -0.045027  -0.171673
     6  C    0.654758   0.108045
     7  S   -0.008581  -0.553232
     8  C   -0.578121  -0.149020
     9  C    0.669694  -0.611662
    10  C   -0.832829   0.025914
    11  C    0.639041  -0.465953
    12  C   -0.211619   0.497764
    13  C    0.000587  -0.587417
    14  C   -0.065530  -0.310460
    15  C   -0.476697  -0.207336
    16  C   -0.047929  -0.184004
    17  O   -0.196251   0.029151
    18  H    0.063966   0.068813
    19  H   -0.465632   0.606844
    20  H    0.049981   0.081843
    21  H   -0.177516   0.328451
    22  H   -0.236002   0.402303
    23  H   -0.077502   0.222247
    24  H    0.087616   0.045271
    25  H    0.112878   0.046888
    26  H    0.209704  -0.018791
    27  H   -0.092690   0.295815
    28  H   -0.507775   0.678308
    29  H    0.079315   0.074837
    30  H   -0.030585   0.210582
    31  H    0.142078  -0.085926
    32  H   -0.073190   0.251652
    33  H   -0.053093   0.195974
    34  H    0.108090   0.035956
    35  H    0.116052   0.004218
    36  H   -0.030556   0.175952
    37  H    0.119742   0.011842
    38  H   -0.070107   0.219354
    39  H    0.115186   0.014247
    40  H    0.301851  -0.107941
    41  H   -0.137428   0.391594
 Sum of Mulliken charges =  -1.00000   1.00000

 Dipole moment (field-independent basis, Debye):
    X=              1.6904    Y=             -0.4177    Z=             -3.9949  Tot=              4.3579
 Quadrupole moment (field-independent basis, Debye-Ang):
   XX=           -222.4786   YY=           -161.0303   ZZ=           -146.9343
   XY=            -27.7987   XZ=             -2.8095   YZ=             -1.4855

 Summary of Natural Population Analysis:

                                       Natural Population
                Natural  -----------------------------------------------
    Atom  No    Charge         Core      Valence    Rydberg      Total
 -----------------------------------------------------------------------
      C    1   -0.28103      0.99966     2.27550    0.00587     3.28103
      C    2   -0.20614      0.99958     2.19625    0.01031     3.20614
      C    3   -0.08716      0.99950     2.07493    0.01273     3.08716
      C    4   -0.12917      0.99946     2.11967    0.01004     3.12917
      C    5   -0.13400      0.99946     2.12441    0.01013     3.13400
      C    6   -0.08287      0.99949     2.07156    0.01182     3.08287
      S    7    0.20133      4.99936     2.78037    0.01895     7.79867
      C    8   -0.21616      0.99955     2.20579    0.01082     3.21616
      C    9    0.07341      0.99954     1.91288    0.01417     2.92659
      C   10   -0.20217      0.99960     2.19267    0.00990     3.20217
      C   11   -0.19106      0.99960     2.18120    0.01026     3.19106
      C   12   -0.11261      0.99959     2.10115    0.01187     3.11261
      C   13   -0.18707      0.99963     2.17896    0.00848     3.18707
      C   14   -0.19487      0.99965     2.18749    0.00774     3.19487
      C   15   -0.19223      0.99965     2.18486    0.00772     3.19223
      C   16   -0.19524      0.99961     2.18750    0.00812     3.19524
      O   17   -0.37719      0.99989     3.37083    0.00647     4.37719
      H   18    0.09691      0.00000     0.40215    0.00094     0.40309
      H   19    0.09968      0.00000     0.39866    0.00166     0.40032
      H   20    0.09765      0.00000     0.40146    0.00089     0.40235
      H   21    0.10387      0.00000     0.39463    0.00150     0.39613
      H   22    0.10477      0.00000     0.39352    0.00171     0.39523
      H   23    0.10383      0.00000     0.39524    0.00092     0.39617
      H   24    0.10400      0.00000     0.39508    0.00092     0.39600
      H   25    0.10721      0.00000     0.39155    0.00124     0.39279
      H   26    0.11036      0.00000     0.38851    0.00114     0.38964
      H   27    0.07733      0.00000     0.42057    0.00210     0.42267
      H   28    0.09864      0.00000     0.39940    0.00196     0.40136
      H   29    0.10795      0.00000     0.39093    0.00112     0.39205
      H   30    0.09992      0.00000     0.39906    0.00103     0.40008
      H   31    0.09668      0.00000     0.40190    0.00141     0.40332
      H   32    0.09434      0.00000     0.40300    0.00266     0.40566
      H   33    0.09995      0.00000     0.39921    0.00084     0.40005
      H   34    0.09211      0.00000     0.40677    0.00112     0.40789
      H   35    0.09364      0.00000     0.40556    0.00080     0.40636
      H   36    0.09671      0.00000     0.40231    0.00098     0.40329
      H   37    0.09453      0.00000     0.40471    0.00077     0.40547
      H   38    0.09651      0.00000     0.40240    0.00109     0.40349
      H   39    0.08807      0.00000     0.41080    0.00113     0.41193
      H   40    0.11584      0.00000     0.38309    0.00107     0.38416
      H   41    0.23374      0.00000     0.26122    0.00504     0.26626
 =======================================================================
   * Total *   -0.00000     20.99282    47.79777    0.20941    69.00000

 Normal termination of Gaussian 16 at Mon Dec 14 14:57:57 2020.
