 Gaussian 16, Revision A.03,

 -----------------------------------------------------------
 # opt freq B3LYP/6-31G(d) empiricaldispersion=gd3bj scf=xqc
 -----------------------------------------------------------

 ------------------------------
 CID_61659772_JID_6292_neutraal
 ------------------------------
 Symbolic Z-matrix:
 Charge =  0 Multiplicity = 1

 SCF Done:  E(RB3LYP) =  -732.932030039     A.U. after   14 cycles
 SCF Done:  E(RB3LYP) =  -732.935124311     A.U. after   12 cycles
 SCF Done:  E(RB3LYP) =  -732.933615469     A.U. after   12 cycles
 SCF Done:  E(RB3LYP) =  -732.937555422     A.U. after   11 cycles
 SCF Done:  E(RB3LYP) =  -732.938754923     A.U. after   12 cycles
 SCF Done:  E(RB3LYP) =  -732.939702991     A.U. after   11 cycles
 SCF Done:  E(RB3LYP) =  -732.937552240     A.U. after   12 cycles
 SCF Done:  E(RB3LYP) =  -732.937929938     A.U. after   12 cycles
 SCF Done:  E(RB3LYP) =  -732.940029471     A.U. after    9 cycles
 SCF Done:  E(RB3LYP) =  -732.940096962     A.U. after   11 cycles
 SCF Done:  E(RB3LYP) =  -732.940445176     A.U. after   10 cycles
 SCF Done:  E(RB3LYP) =  -732.940459393     A.U. after   10 cycles
 SCF Done:  E(RB3LYP) =  -732.940470259     A.U. after    9 cycles
 SCF Done:  E(RB3LYP) =  -732.940474871     A.U. after    9 cycles
 SCF Done:  E(RB3LYP) =  -732.940475701     A.U. after    8 cycles
 SCF Done:  E(RB3LYP) =  -732.940475785     A.U. after    7 cycles
 Optimization completed.
    -- Stationary point found.
 Normal termination of Gaussian 16 at Thu Dec 10 22:11:30 2020.

 --------------------------------------------------------------------
 #N Geom=AllCheck Guess=TCheck SCRF=Check GenChk RB3LYP/6-31G(d) Freq
 --------------------------------------------------------------------

 Structure from the checkpoint file:  "JID_6292.chk"
 ------------------------------
 CID_61659772_JID_6292_neutraal
 ------------------------------
 Charge =  0 Multiplicity = 1

 SCF Done:  E(RB3LYP) =  -732.940475785     A.U. after    1 cycles

  Exact polarizability: 165.578  -0.634 141.144  -2.429  -2.342 131.053
 Approx polarizability: 205.412   1.017 196.359  -5.575 -10.358 196.936

                      1                      2                      3
                      A                      A                      A
 Frequencies --     25.2085                39.8375                46.4846
 Red. masses --      3.1851                 3.4291                 6.8342
 Frc consts  --      0.0012                 0.0032                 0.0087
 IR Inten    --      0.0931                 0.1907                 1.2839

                      4                      5                      6
                      A                      A                      A
 Frequencies --     54.2872                61.6667                89.4182
 Red. masses --      3.3540                 3.3123                 2.9060
 Frc consts  --      0.0058                 0.0074                 0.0137
 IR Inten    --      0.2339                 0.0209                 1.8648

                      7                      8                      9
                      A                      A                      A
 Frequencies --    112.1969               130.7792               185.8181
 Red. masses --      2.7255                 2.8972                 2.0237
 Frc consts  --      0.0202                 0.0292                 0.0412
 IR Inten    --      0.2063                 0.8953                 0.0860

                     10                     11                     12
                      A                      A                      A
 Frequencies --    199.0296               211.4700               239.0413
 Red. masses --      2.4419                 2.5517                 2.6245
 Frc consts  --      0.0570                 0.0672                 0.0884
 IR Inten    --      1.2162                 1.7769                 6.0252

                     13                     14                     15
                      A                      A                      A
 Frequencies --    252.6508               263.0940               271.0220
 Red. masses --      1.4925                 1.9113                 1.1266
 Frc consts  --      0.0561                 0.0779                 0.0488
 IR Inten    --      0.5889                 0.9698                 0.8573

                     16                     17                     18
                      A                      A                      A
 Frequencies --    285.9966               290.3951               297.9441
 Red. masses --      2.8277                 1.6327                 1.4245
 Frc consts  --      0.1363                 0.0811                 0.0745
 IR Inten    --      7.0443                 1.7160                 1.0658

                     19                     20                     21
                      A                      A                      A
 Frequencies --    334.8747               353.0431               355.3392
 Red. masses --      1.6845                 1.1665                 1.8591
 Frc consts  --      0.1113                 0.0857                 0.1383
 IR Inten    --      0.5722                 0.2429                 1.4487

                     22                     23                     24
                      A                      A                      A
 Frequencies --    367.5334               373.1972               398.3067
 Red. masses --      2.1019                 2.0333                 2.4867
 Frc consts  --      0.1673                 0.1669                 0.2324
 IR Inten    --      4.1611                 1.6844                 3.6867

                     25                     26                     27
                      A                      A                      A
 Frequencies --    424.0322               457.1965               477.4408
 Red. masses --      2.3476                 3.0850                 2.3217
 Frc consts  --      0.2487                 0.3799                 0.3118
 IR Inten    --      2.5669                 5.6914                 5.2420

                     28                     29                     30
                      A                      A                      A
 Frequencies --    492.3813               527.3115               567.1612
 Red. masses --      2.6069                 2.6899                 2.4487
 Frc consts  --      0.3724                 0.4407                 0.4641
 IR Inten    --      3.3478                 2.8764                26.8062

                     31                     32                     33
                      A                      A                      A
 Frequencies --    601.0186               637.6690               680.1049
 Red. masses --      3.2431                 2.2307                 3.2854
 Frc consts  --      0.6902                 0.5344                 0.8954
 IR Inten    --     15.6070                44.9695                 9.0461

                     34                     35                     36
                      A                      A                      A
 Frequencies --    714.1808               752.4350               822.7027
 Red. masses --      2.2021                 1.2610                 2.1324
 Frc consts  --      0.6618                 0.4206                 0.8504
 IR Inten    --     46.2508                 4.5899                 2.2479

                     37                     38                     39
                      A                      A                      A
 Frequencies --    851.3456               863.7828               885.0891
 Red. masses --      2.7070                 1.8216                 1.9665
 Frc consts  --      1.1560                 0.8008                 0.9077
 IR Inten    --     13.0539                13.5952                 6.7397

                     40                     41                     42
                      A                      A                      A
 Frequencies --    934.8507               947.7760               969.7794
 Red. masses --      3.0522                 1.5156                 1.9690
 Frc consts  --      1.5716                 0.8021                 1.0910
 IR Inten    --     23.7706                 3.9272                 3.1461

                     43                     44                     45
                      A                      A                      A
 Frequencies --    985.4753               994.6418              1002.6121
 Red. masses --      1.8486                 1.5923                 2.1122
 Frc consts  --      1.0578                 0.9281                 1.2510
 IR Inten    --      4.9359                 5.2102                24.3145

                     46                     47                     48
                      A                      A                      A
 Frequencies --   1029.4236              1031.6041              1039.6474
 Red. masses --      2.0307                 1.4638                 2.2599
 Frc consts  --      1.2679                 0.9178                 1.4392
 IR Inten    --      2.3477                 7.8820                47.1133

                     49                     50                     51
                      A                      A                      A
 Frequencies --   1074.2010              1100.8639              1104.4501
 Red. masses --      1.6977                 2.1528                 2.2928
 Frc consts  --      1.1542                 1.5372                 1.6478
 IR Inten    --     12.5401                 9.5948                24.4620

                     52                     53                     54
                      A                      A                      A
 Frequencies --   1132.6540              1144.4780              1170.5405
 Red. masses --      1.2450                 1.8855                 2.1409
 Frc consts  --      0.9410                 1.4551                 1.7283
 IR Inten    --      7.1648                 3.1595                 9.2721

                     55                     56                     57
                      A                      A                      A
 Frequencies --   1178.5634              1184.9304              1196.4120
 Red. masses --      3.3589                 2.5173                 1.5232
 Frc consts  --      2.7488                 2.0825                 1.2846
 IR Inten    --    101.1325                 8.6270                 4.0731

                     58                     59                     60
                      A                      A                      A
 Frequencies --   1216.4661              1237.1488              1256.2190
 Red. masses --      2.4266                 1.6216                 2.0872
 Frc consts  --      2.1157                 1.4623                 1.9407
 IR Inten    --      8.4712                35.6275                71.0687

                     61                     62                     63
                      A                      A                      A
 Frequencies --   1266.2343              1280.7808              1284.4485
 Red. masses --      1.1782                 2.7155                 2.0106
 Frc consts  --      1.1130                 2.6245                 1.9544
 IR Inten    --     12.4407                11.5722               196.6788

                     64                     65                     66
                      A                      A                      A
 Frequencies --   1290.7555              1303.9728              1332.5696
 Red. masses --      1.5713                 2.0341                 1.3980
 Frc consts  --      1.5424                 2.0378                 1.4627
 IR Inten    --     95.9493                14.6579                17.3359

                     67                     68                     69
                      A                      A                      A
 Frequencies --   1334.5006              1390.6570              1398.8636
 Red. masses --      1.1193                 1.3646                 1.3021
 Frc consts  --      1.1744                 1.5549                 1.5013
 IR Inten    --      2.2855                 5.2419                 4.9844

                     70                     71                     72
                      A                      A                      A
 Frequencies --   1407.2951              1414.1340              1426.4265
 Red. masses --      1.4711                 1.2647                 1.2747
 Frc consts  --      1.7165                 1.4901                 1.5281
 IR Inten    --      0.2422                 5.6836                 6.1296

                     73                     74                     75
                      A                      A                      A
 Frequencies --   1434.9554              1446.1933              1447.9840
 Red. masses --      1.4282                 1.3066                 1.2231
 Frc consts  --      1.7327                 1.6101                 1.5109
 IR Inten    --      0.2123                 4.7125                11.4814

                     76                     77                     78
                      A                      A                      A
 Frequencies --   1469.3839              1502.0867              1505.3134
 Red. masses --      1.1504                 1.1272                 1.1382
 Frc consts  --      1.4634                 1.4984                 1.5196
 IR Inten    --      1.2538                 0.0434                 7.8064

                     79                     80                     81
                      A                      A                      A
 Frequencies --   1506.9004              1510.3064              1518.5476
 Red. masses --      1.0866                 1.1379                 1.0621
 Frc consts  --      1.4538                 1.5293                 1.4430
 IR Inten    --      2.3147                24.2336                 8.6297

                     82                     83                     84
                      A                      A                      A
 Frequencies --   1520.8579              1523.0131              1525.6986
 Red. masses --      1.0667                 1.0712                 1.1047
 Frc consts  --      1.4537                 1.4639                 1.5151
 IR Inten    --      3.2581                 7.2542                14.1739

                     85                     86                     87
                      A                      A                      A
 Frequencies --   1526.7870              1529.7180              1532.7543
 Red. masses --      1.0569                 1.0534                 1.0646
 Frc consts  --      1.4516                 1.4523                 1.4736
 IR Inten    --     12.7003                 5.3967                 0.9151

                     88                     89                     90
                      A                      A                      A
 Frequencies --   1534.8968              1543.4515              1547.6661
 Red. masses --      1.0800                 1.0529                 1.0538
 Frc consts  --      1.4991                 1.4779                 1.4872
 IR Inten    --     21.1090                 8.6171                12.0302

                     91                     92                     93
                      A                      A                      A
 Frequencies --   1548.3017              1549.3646              1559.3674
 Red. masses --      1.0653                 1.0507                 1.0551
 Frc consts  --      1.5046                 1.4861                 1.5116
 IR Inten    --      9.9265                 3.8431                 3.6804

                     94                     95                     96
                      A                      A                      A
 Frequencies --   1832.1756              2936.1343              2958.3524
 Red. masses --     11.9229                 1.0631                 1.0633
 Frc consts  --     23.5812                 5.3996                 5.4830
 IR Inten    --    250.7822                72.0571                89.1368

                     97                     98                     99
                      A                      A                      A
 Frequencies --   3007.3292              3018.3938              3040.2593
 Red. masses --      1.0677                 1.0676                 1.0617
 Frc consts  --      5.6892                 5.7307                 5.7820
 IR Inten    --     45.7747                36.8580                22.0452

                    100                    101                    102
                      A                      A                      A
 Frequencies --   3047.6179              3050.8299              3051.0378
 Red. masses --      1.0383                 1.0353                 1.0626
 Frc consts  --      5.6819                 5.6773                 5.8280
 IR Inten    --     16.1421                25.1053                21.6377

                    103                    104                    105
                      A                      A                      A
 Frequencies --   3059.2961              3059.7844              3075.2911
 Red. masses --      1.0567                 1.0701                 1.0812
 Frc consts  --      5.8268                 5.9027                 6.0248
 IR Inten    --     28.3062                18.8667                23.2219

                    106                    107                    108
                      A                      A                      A
 Frequencies --   3076.9539              3082.6651              3082.7945
 Red. masses --      1.0960                 1.0808                 1.0906
 Frc consts  --      6.1137                 6.0514                 6.1069
 IR Inten    --     16.5390                19.1636                10.2202

                    109                    110                    111
                      A                      A                      A
 Frequencies --   3086.8731              3090.0971              3113.7462
 Red. masses --      1.0749                 1.0877                 1.1012
 Frc consts  --      6.0347                 6.1195                 6.2906
 IR Inten    --     44.2360                49.1367                65.0251

                    112                    113                    114
                      A                      A                      A
 Frequencies --   3116.6557              3117.9820              3120.4274
 Red. masses --      1.1020                 1.1022                 1.1027
 Frc consts  --      6.3068                 6.3135                 6.3263
 IR Inten    --     19.9664                18.8536                54.2117

                    115                    116                    117
                      A                      A                      A
 Frequencies --   3125.6003              3131.0739              3134.1222
 Red. masses --      1.1016                 1.1072                 1.1026
 Frc consts  --      6.3407                 6.3954                 6.3814
 IR Inten    --     49.6160                26.4088                31.0114

                    118                    119                    120
                      A                      A                      A
 Frequencies --   3153.9786              3209.7626              3578.0814
 Red. masses --      1.0960                 1.0902                 1.0739
 Frc consts  --      6.4236                 6.6174                 8.1002
 IR Inten    --     29.6960                 8.2550                 7.7770

 - Thermochemistry -
 -------------------
 Temperature   298.150 Kelvin.  Pressure   1.00000 Atm.
 Atom     1 has atomic number  6 and mass  12.00000

 Molecular mass:   230.19943 amu.
 Principal axes and moments of inertia in atomic units:
                           1         2         3
     Eigenvalues --  2585.950855714.434376685.50554
           X            0.99979  -0.02016   0.00244
           Y            0.02010   0.99952   0.02343
           Z           -0.00291  -0.02337   0.99972
 This molecule is an asymmetric top.
 Rotational symmetry number  1.
 Warning -- assumption of classical behavior for rotation
           may cause significant error
 Rotational temperatures (Kelvin)      0.03349     0.01516     0.01296
 Rotational constants (GHZ):           0.69790     0.31582     0.26995
 Zero-point vibrational energy    1006039.8 (Joules/Mol)
                                  240.44929 (Kcal/Mol)
 Warning -- explicit consideration of  31 degrees of freedom as
           vibrations may cause significant error
 Vibrational temperatures:     36.27    57.32    66.88    78.11    88.72
          (Kelvin)            128.65   161.43   188.16   267.35   286.36
                              304.26   343.93   363.51   378.53   389.94
                              411.49   417.81   428.68   481.81   507.95
                              511.25   528.80   536.95   573.07   610.09
                              657.80   686.93   708.43   758.68   816.02
                              864.73   917.46   978.52  1027.55  1082.59
                             1183.69  1224.90  1242.79  1273.45  1345.04
                             1363.64  1395.30  1417.88  1431.07  1442.54
                             1481.11  1484.25  1495.82  1545.54  1583.90
                             1589.06  1629.64  1646.65  1684.15  1695.69
                             1704.85  1721.37  1750.22  1779.98  1807.42
                             1821.83  1842.76  1848.03  1857.11  1876.13
                             1917.27  1920.05  2000.85  2012.65  2024.78
                             2034.62  2052.31  2064.58  2080.75  2083.33
                             2114.12  2161.17  2165.81  2168.09  2172.99
                             2184.85  2188.18  2191.28  2195.14  2196.71
                             2200.92  2205.29  2208.37  2220.68  2226.75
                             2227.66  2229.19  2243.58  2636.09  4224.44
                             4256.41  4326.88  4342.80  4374.26  4384.84
                             4389.46  4389.76  4401.64  4402.35  4424.66
                             4427.05  4435.27  4435.45  4441.32  4445.96
                             4479.99  4484.17  4486.08  4489.60  4497.04
                             4504.92  4509.30  4537.87  4618.13  5148.06

 Zero-point correction=                           0.383180 (Hartree/Particle)
 Thermal correction to Energy=                    0.402424
 Thermal correction to Enthalpy=                  0.403368
 Thermal correction to Gibbs Free Energy=         0.335323
 Sum of electronic and zero-point Energies=           -732.557295
 Sum of electronic and thermal Energies=              -732.538052
 Sum of electronic and thermal Enthalpies=            -732.537108
 Sum of electronic and thermal Free Energies=         -732.605153

                     E (Thermal)             CV                S
                      KCal/Mol        Cal/Mol-Kelvin    Cal/Mol-Kelvin
 Total                  252.525             72.160            143.213
 Electronic               0.000              0.000              0.000
 Translational            0.889              2.981             42.203
 Rotational               0.889              2.981             32.957
 Vibrational            250.747             66.198             68.052
 Vibration     1          0.593              1.985              6.175
 Vibration     2          0.594              1.981              5.267
 Vibration     3          0.595              1.979              4.962
 Vibration     4          0.596              1.976              4.655
 Vibration     5          0.597              1.973              4.403
 Vibration     6          0.602              1.957              3.673
 Vibration     7          0.607              1.939              3.231
 Vibration     8          0.612              1.923              2.935
 Vibration     9          0.632              1.859              2.269
 Vibration    10          0.637              1.841              2.142
 Vibration    11          0.643              1.823              2.031
 Vibration    12          0.657              1.781              1.810
 Vibration    13          0.664              1.758              1.712
 Vibration    14          0.670              1.740              1.641
 Vibration    15          0.675              1.727              1.590
 Vibration    16          0.684              1.700              1.498
 Vibration    17          0.686              1.692              1.472
 Vibration    18          0.691              1.678              1.428
 Vibration    19          0.716              1.606              1.236
 Vibration    20          0.729              1.569              1.153
 Vibration    21          0.731              1.564              1.142
 Vibration    22          0.740              1.539              1.090
 Vibration    23          0.745              1.527              1.067
 Vibration    24          0.765              1.474              0.969
 Vibration    25          0.786              1.418              0.878
 Vibration    26          0.815              1.345              0.774
 Vibration    27          0.834              1.300              0.717
 Vibration    28          0.848              1.267              0.677
 Vibration    29          0.882              1.190              0.593
 Vibration    30          0.923              1.102              0.510
 Vibration    31          0.959              1.030              0.448

                           ! Non-Optimized Parameters !
 Normal termination of Gaussian 16 at Thu Dec 10 22:27:34 2020.

 ----------------------------------------------------------------------
 # B3LYP/6-311++G(d,p) empiricaldispersion=gd3bj scf=xqc pop=npa geom=c
 heck
 ----------------------------------------------------------------------

 --------------------------------------
 CID_61659772_JID_6292_Energie_neutraal
 --------------------------------------
 Structure from the checkpoint file:  "JID_6292.chk"
 Charge =  0 Multiplicity = 1

 SCF Done:  E(RB3LYP) =  -733.156116536     A.U. after   14 cycles
 Normal termination of Gaussian 16 at Thu Dec 10 22:35:36 2020.

 ----------------------------------------------------------------------
 # B3LYP/6-311++G(d,p) empiricaldispersion=gd3bj scf=xqc pop=npa geom=c
 heck
 ----------------------------------------------------------------------

 ------------------------------------
 CID_61659772_JID_6292_Energie_kation
 ------------------------------------
 Structure from the checkpoint file:  "JID_6292.chk"
 Charge =  1 Multiplicity = 2

 SCF Done:  E(UB3LYP) =  -732.884375611     A.U. after   20 cycles
 Normal termination of Gaussian 16 at Thu Dec 10 22:53:13 2020.
 Gaussian 16:  ES64L-G16RevA.03 25-Dec-2016

 ----------------------------------------------------------------------
 # B3LYP/6-311++G(d,p) empiricaldispersion=gd3bj scf=xqc pop=npa geom=c
 heck
 ----------------------------------------------------------------------

 -----------------------------------
 CID_61659772_JID_6292_Energie_anion
 -----------------------------------
 Structure from the checkpoint file:  "JID_6292.chk"
 Charge = -1 Multiplicity = 2

                         Standard orientation:
 ---------------------------------------------------------------------
 Center     Atomic      Atomic             Coordinates (Angstroms)
 Number     Number       Type             X           Y           Z
 ---------------------------------------------------------------------
      1          6           0        2.623959   -2.462770   -0.716307
      2          6           0        2.637862   -1.960605    0.729905
      3          6           0        3.571178   -0.764400    0.973295
      4          6           0        3.288357    0.446031    0.097814
      5          8           0        1.909982    0.825983    0.305564
      6          6           0        1.437145    1.823013   -0.478784
      7          8           0        2.116259    2.415411   -1.287198
      8          6           0       -0.045387    2.057460   -0.273069
      9          7           0       -0.566624    1.535400    0.981651
     10          6           0       -1.990511    1.242530    1.002205
     11          6           0       -2.528836   -0.130661    0.490058
     12          6           0       -2.112247   -1.260529    1.454871
     13          6           0       -4.060207    0.004716    0.550590
     14          7           0       -2.075189   -0.378180   -0.914734
     15          6           0       -0.765075   -1.016263   -1.032032
     16          6           0       -3.007356   -1.104026   -1.770774
     17          1           0        2.222472   -1.708967   -1.402184
     18          1           0        1.999185   -3.357177   -0.812874
     19          1           0        3.633753   -2.721544   -1.058235
     20          1           0        1.619064   -1.687178    1.029007
     21          1           0        2.944959   -2.775948    1.396829
     22          1           0        3.511701   -0.464694    2.026967
     23          1           0        4.612562   -1.061724    0.788084
     24          1           0        3.929679    1.294030    0.356280
     25          1           0        3.432071    0.234908   -0.965268
     26          1           0       -0.200095    3.142581   -0.330249
     27          1           0       -0.543483    1.627551   -1.156857
     28          1           0        0.001569    0.774125    1.332695
     29          1           0       -2.339932    1.346263    2.039719
     30          1           0       -2.489042    2.030088    0.425337
     31          1           0       -2.556159   -1.098986    2.442992
     32          1           0       -2.453821   -2.235465    1.089486
     33          1           0       -1.026570   -1.317443    1.586699
     34          1           0       -4.421626    0.755208   -0.160171
     35          1           0       -4.569951   -0.941864    0.349641
     36          1           0       -4.353287    0.329466    1.554201
     37          1           0       -0.781338   -2.097469   -0.801946
     38          1           0       -0.408847   -0.907201   -2.062978
     39          1           0       -0.034137   -0.548627   -0.377721
     40          1           0       -3.216348   -2.137030   -1.430230
     41          1           0       -3.956315   -0.575559   -1.870295
     42          1           0       -2.566578   -1.176002   -2.770906
 ---------------------------------------------------------------------

 SCF Done:  E(UB3LYP) =  -733.144117518     A.U. after   32 cycles

 The electronic state is 2-A.
 Alpha  occ. eigenvalues --  -19.08508 -19.02763 -14.21206 -14.20829 -10.21887
 Alpha  occ. eigenvalues --  -10.14003 -10.11834 -10.11830 -10.10036 -10.09084
 Alpha  occ. eigenvalues --  -10.08879 -10.08270 -10.07444 -10.07035 -10.06590
 Alpha  occ. eigenvalues --  -10.06558  -1.02503  -0.93847  -0.83639  -0.81192
 Alpha  occ. eigenvalues --   -0.71778  -0.70044  -0.65765  -0.62711  -0.61860
 Alpha  occ. eigenvalues --   -0.58997  -0.56983  -0.56225  -0.54357  -0.50804
 Alpha  occ. eigenvalues --   -0.47037  -0.45512  -0.43285  -0.41839  -0.40038
 Alpha  occ. eigenvalues --   -0.39092  -0.38736  -0.37313  -0.36575  -0.36162
 Alpha  occ. eigenvalues --   -0.34986  -0.34410  -0.33034  -0.32445  -0.31810
 Alpha  occ. eigenvalues --   -0.31270  -0.30180  -0.29792  -0.29579  -0.29272
 Alpha  occ. eigenvalues --   -0.28985  -0.28033  -0.27909  -0.27265  -0.26110
 Alpha  occ. eigenvalues --   -0.25406  -0.24673  -0.24460  -0.24081  -0.24060
 Alpha  occ. eigenvalues --   -0.22301  -0.19683  -0.14324  -0.11401   0.04035
 Alpha virt. eigenvalues --    0.05688   0.06777   0.07198   0.07904   0.07957
 Alpha virt. eigenvalues --    0.08284   0.08329   0.09384   0.09870   0.10059
 Alpha virt. eigenvalues --    0.10456   0.10501   0.10987   0.11623   0.12410

  Beta  occ. eigenvalues --  -19.08503 -19.02761 -14.21200 -14.20824 -10.21885
  Beta  occ. eigenvalues --  -10.13993 -10.11832 -10.11826 -10.10028 -10.09056
  Beta  occ. eigenvalues --  -10.08862 -10.08248 -10.07422 -10.07010 -10.06562
  Beta  occ. eigenvalues --  -10.06526  -1.02495  -0.93841  -0.83627  -0.81182
  Beta  occ. eigenvalues --   -0.71745  -0.70022  -0.65738  -0.62682  -0.61820
  Beta  occ. eigenvalues --   -0.58946  -0.56937  -0.56183  -0.54319  -0.50758
  Beta  occ. eigenvalues --   -0.46985  -0.45471  -0.43263  -0.41819  -0.40022
  Beta  occ. eigenvalues --   -0.39068  -0.38711  -0.37291  -0.36548  -0.36130
  Beta  occ. eigenvalues --   -0.34966  -0.34386  -0.33007  -0.32416  -0.31784
  Beta  occ. eigenvalues --   -0.31241  -0.30151  -0.29768  -0.29548  -0.29248
  Beta  occ. eigenvalues --   -0.28956  -0.28007  -0.27880  -0.27238  -0.26081
  Beta  occ. eigenvalues --   -0.25381  -0.24640  -0.24422  -0.24042  -0.24031
  Beta  occ. eigenvalues --   -0.22289  -0.19677  -0.14309  -0.11377
  Beta virt. eigenvalues --    0.06054   0.06581   0.07260   0.07693   0.08132
  Beta virt. eigenvalues --    0.08300   0.08499   0.08799   0.09722   0.10252
  Beta virt. eigenvalues --    0.10298   0.10762   0.10794   0.11340   0.11782

 Mulliken charges and spin densities:
               1          2
     1  C    0.821544  -1.421523
     2  C   -0.860282   0.929393
     3  C    0.928707  -1.497994
     4  C   -0.296895   0.163561
     5  O   -0.008274   0.003126
     6  C   -0.124330  -0.128996
     7  O   -0.236085  -0.000424
     8  C   -0.373310   0.252834
     9  N   -0.053331  -0.005390
    10  C   -0.207665  -0.395691
    11  C   -1.245064   1.063770
    12  C    0.843997  -1.247000
    13  C    0.155923  -0.700570
    14  N    0.207401   0.076849
    15  C   -0.705531   0.260154
    16  C    0.555775  -0.801836
    17  H   -0.157369   0.309641
    18  H   -0.218452   0.363710
    19  H   -0.113479   0.255414
    20  H    0.448463  -0.301173
    21  H   -0.605659   0.800800
    22  H   -0.120840   0.284053
    23  H   -0.280919   0.431863
    24  H    0.015371   0.180837
    25  H    0.168006   0.040816
    26  H    0.078867   0.116950
    27  H    0.128345   0.083228
    28  H    0.302285  -0.001516
    29  H   -0.001566   0.169588
    30  H    0.177444  -0.008346
    31  H   -0.124400   0.284536
    32  H   -0.024198   0.193474
    33  H   -0.603092   0.758701
    34  H   -0.053489   0.205839
    35  H   -0.182887   0.353958
    36  H   -0.072773   0.216091
    37  H    0.021863   0.153959
    38  H    0.082382   0.084611
    39  H    1.179680  -1.394089
    40  H   -0.127683   0.276895
    41  H   -0.232690   0.368401
    42  H   -0.085791   0.221497
 Sum of Mulliken charges =  -1.00000   1.00000

 Dipole moment (field-independent basis, Debye):
    X=             -0.5013    Y=              4.5210    Z=             -0.7442  Tot=              4.6091
 Quadrupole moment (field-independent basis, Debye-Ang):
   XX=           -187.0010   YY=           -160.5176   ZZ=           -145.8914
   XY=              1.9076   XZ=             -3.4041   YZ=              4.8815

 Summary of Natural Population Analysis:

                                       Natural Population
                Natural  -----------------------------------------------
    Atom  No    Charge         Core      Valence    Rydberg      Total
 -----------------------------------------------------------------------
      C    1   -0.28831      0.99967     2.28272    0.00592     3.28831
      C    2   -0.19236      0.99964     2.18428    0.00845     3.19236
      C    3   -0.19847      0.99962     2.18986    0.00898     3.19847
      C    4   -0.01535      0.99956     2.00370    0.01209     3.01535
      O    5   -0.28959      0.99985     3.28124    0.00849     4.28959
      C    6    0.41173      0.99969     1.56535    0.02323     2.58827
      O    7   -0.30744      0.99987     3.30236    0.00521     4.30744
      C    8   -0.13650      0.99957     2.12710    0.00984     3.13650
      N    9   -0.34719      0.99974     2.83620    0.01126     3.84719
      C   10   -0.08455      0.99955     2.07149    0.01350     3.08455
      C   11    0.06466      0.99955     1.92103    0.01476     2.93534
      C   12   -0.30134      0.99961     2.29406    0.00767     3.30134
      C   13   -0.29348      0.99962     2.28664    0.00723     3.29348
      N   14   -0.29220      0.99970     2.77938    0.01312     3.79220
      C   15   -0.18515      0.99963     2.17604    0.00949     3.18515
      C   16   -0.17697      0.99964     2.16861    0.00872     3.17697
      H   17    0.09441      0.00000     0.40428    0.00131     0.40559
      H   18    0.10337      0.00000     0.39552    0.00111     0.39663
      H   19    0.09583      0.00000     0.40313    0.00104     0.40417
      H   20    0.09596      0.00000     0.40165    0.00240     0.40404
      H   21    0.09928      0.00000     0.39901    0.00171     0.40072
      H   22    0.10105      0.00000     0.39767    0.00128     0.39895
      H   23    0.10120      0.00000     0.39752    0.00128     0.39880
      H   24    0.09340      0.00000     0.40563    0.00097     0.40660
      H   25    0.09304      0.00000     0.40581    0.00115     0.40696
      H   26    0.10296      0.00000     0.39584    0.00119     0.39704
      H   27    0.11197      0.00000     0.38624    0.00179     0.38803
      H   28    0.18420      0.00000     0.31178    0.00402     0.31580
      H   29    0.09203      0.00000     0.40689    0.00109     0.40797
      H   30    0.09364      0.00000     0.40510    0.00127     0.40636
      H   31    0.10273      0.00000     0.39616    0.00111     0.39727
      H   32    0.10507      0.00000     0.39370    0.00123     0.39493
      H   33    0.09950      0.00000     0.39874    0.00177     0.40050
      H   34    0.10204      0.00000     0.39704    0.00092     0.39796
      H   35    0.10544      0.00000     0.39345    0.00111     0.39456
      H   36    0.10299      0.00000     0.39607    0.00094     0.39701
      H   37    0.08702      0.00000     0.41155    0.00143     0.41298
      H   38    0.09496      0.00000     0.40391    0.00114     0.40504
      H   39    0.09612      0.00000     0.40103    0.00285     0.40388
      H   40    0.08191      0.00000     0.41665    0.00143     0.41809
      H   41    0.09693      0.00000     0.40186    0.00121     0.40307
      H   42    0.09546      0.00000     0.40358    0.00096     0.40454
 =======================================================================
   * Total *    0.00000     15.99450    47.79985    0.20565    64.00000

 Normal termination of Gaussian 16 at Thu Dec 10 23:17:52 2020.
