 Gaussian 16, Revision A.03,

 -----------------------------------------------------------
 # opt freq B3LYP/6-31G(d) empiricaldispersion=gd3bj scf=xqc
 -----------------------------------------------------------

 ----------------------------
 CID_288256_JID_6484_neutraal
 ----------------------------
 Symbolic Z-matrix:
 Charge =  0 Multiplicity = 1

 SCF Done:  E(RB3LYP) =  -723.287050289     A.U. after   15 cycles
 SCF Done:  E(RB3LYP) =  -723.290461779     A.U. after   12 cycles
 SCF Done:  E(RB3LYP) =  -723.291055801     A.U. after   12 cycles
 SCF Done:  E(RB3LYP) =  -723.291165085     A.U. after   12 cycles
 SCF Done:  E(RB3LYP) =  -723.291501855     A.U. after   12 cycles
 SCF Done:  E(RB3LYP) =  -723.291659811     A.U. after   11 cycles
 SCF Done:  E(RB3LYP) =  -723.291700464     A.U. after   11 cycles
 SCF Done:  E(RB3LYP) =  -723.291702643     A.U. after   10 cycles
 SCF Done:  E(RB3LYP) =  -723.291703236     A.U. after    8 cycles
 SCF Done:  E(RB3LYP) =  -723.291703303     A.U. after    7 cycles
 SCF Done:  E(RB3LYP) =  -723.291703318     A.U. after    7 cycles
 Optimization completed.
    -- Stationary point found.
 Normal termination of Gaussian 16 at Thu Dec 10 23:09:19 2020.

 --------------------------------------------------------------------
 #N Geom=AllCheck Guess=TCheck SCRF=Check GenChk RB3LYP/6-31G(d) Freq
 --------------------------------------------------------------------

 Structure from the checkpoint file:  "JID_6484.chk"
 ----------------------------
 CID_288256_JID_6484_neutraal
 ----------------------------
 Charge =  0 Multiplicity = 1

 SCF Done:  E(RB3LYP) =  -723.291703318     A.U. after    1 cycles

  Exact polarizability: 200.427   2.034 132.307   9.093  12.959  84.099
 Approx polarizability: 291.881  10.215 222.794  16.248  25.090 137.646

                      1                      2                      3
                      A                      A                      A
 Frequencies --     35.7148                75.4208                81.3092
 Red. masses --      5.4109                 4.7544                 4.7854
 Frc consts  --      0.0041                 0.0159                 0.0186
 IR Inten    --      0.9364                 1.5614                 1.8522

                      4                      5                      6
                      A                      A                      A
 Frequencies --     91.2351               119.7885               137.2978
 Red. masses --      8.1797                 1.4025                 3.6436
 Frc consts  --      0.0401                 0.0119                 0.0405
 IR Inten    --      2.7424                 1.5658                 0.1760

                      7                      8                      9
                      A                      A                      A
 Frequencies --    159.9052               188.2730               232.2507
 Red. masses --      3.0850                 4.0387                 5.9590
 Frc consts  --      0.0465                 0.0843                 0.1894
 IR Inten    --      3.0218                 2.2504                 3.8790

                     10                     11                     12
                      A                      A                      A
 Frequencies --    292.1577               306.4343               317.3483
 Red. masses --      5.2814                 5.0218                 6.8903
 Frc consts  --      0.2656                 0.2778                 0.4088
 IR Inten    --     10.7937                 4.2057                 0.1567

                     13                     14                     15
                      A                      A                      A
 Frequencies --    367.8474               411.3762               424.4935
 Red. masses --      5.2650                 4.0375                 4.6960
 Frc consts  --      0.4197                 0.4026                 0.4986
 IR Inten    --     15.3891                 2.4706                 3.3738

                     16                     17                     18
                      A                      A                      A
 Frequencies --    497.8887               513.9000               547.4156
 Red. masses --      7.3936                 5.1480                 6.1460
 Frc consts  --      1.0799                 0.8010                 1.0851
 IR Inten    --      3.2124                 1.2968                 0.9851

                     19                     20                     21
                      A                      A                      A
 Frequencies --    550.9844               588.0567               655.8756
 Red. masses --      5.4076                 4.0611                 6.2861
 Frc consts  --      0.9672                 0.8274                 1.5932
 IR Inten    --      2.4476                 1.0075                 0.5679

                     22                     23                     24
                      A                      A                      A
 Frequencies --    669.0334               748.9390               756.1745
 Red. masses --      5.2096                 2.8159                 3.4971
 Frc consts  --      1.3739                 0.9306                 1.1782
 IR Inten    --      2.2728                18.0698                 3.0307

                     25                     26                     27
                      A                      A                      A
 Frequencies --    765.8807               790.6928               797.1623
 Red. masses --      1.8814                 3.1960                 2.1723
 Frc consts  --      0.6502                 1.1773                 0.8133
 IR Inten    --     31.6535                10.5615                48.3489

                     28                     29                     30
                      A                      A                      A
 Frequencies --    810.1475               884.8120               900.8828
 Red. masses --      3.8983                 1.6514                 3.6296
 Frc consts  --      1.5075                 0.7617                 1.7356
 IR Inten    --      6.6480                 0.2476                 9.2375

                     31                     32                     33
                      A                      A                      A
 Frequencies --    928.1069               947.1040               951.1279
 Red. masses --      4.0168                 1.4747                 1.3860
 Frc consts  --      2.0386                 0.7794                 0.7388
 IR Inten    --     22.8354                 9.3739                 1.0196

                     34                     35                     36
                      A                      A                      A
 Frequencies --    968.6615               986.7403              1004.5173
 Red. masses --      3.7002                 1.2746                 5.5103
 Frc consts  --      2.0456                 0.7312                 3.2759
 IR Inten    --     31.3774                 0.3019                59.3764

                     37                     38                     39
                      A                      A                      A
 Frequencies --   1070.0701              1132.8426              1156.9036
 Red. masses --      2.2785                 2.4130                 2.8458
 Frc consts  --      1.5372                 1.8245                 2.2442
 IR Inten    --      0.9564                 3.4049                87.3111

                     40                     41                     42
                      A                      A                      A
 Frequencies --   1165.9549              1189.8954              1196.8452
 Red. masses --      1.4908                 1.2645                 1.1021
 Frc consts  --      1.1941                 1.0549                 0.9301
 IR Inten    --      2.0254                 0.8603                 0.2374

                     43                     44                     45
                      A                      A                      A
 Frequencies --   1221.6948              1226.9673              1253.6203
 Red. masses --      2.1574                 1.5645                 2.1094
 Frc consts  --      1.8972                 1.3877                 1.9532
 IR Inten    --     18.1578                44.9465                 4.5092

                     46                     47                     48
                      A                      A                      A
 Frequencies --   1275.0153              1326.3923              1332.3628
 Red. masses --      1.8438                 2.4398                 1.7379
 Frc consts  --      1.7661                 2.5290                 1.8177
 IR Inten    --    192.6868                38.9589                54.2296

                     49                     50                     51
                      A                      A                      A
 Frequencies --   1352.7066              1368.9607              1384.7200
 Red. masses --      2.0000                 3.9803                 1.8123
 Frc consts  --      2.1562                 4.3949                 2.0474
 IR Inten    --    397.0481                56.1262               250.5279

                     52                     53                     54
                      A                      A                      A
 Frequencies --   1456.7581              1497.8417              1506.4496
 Red. masses --      1.9271                 1.2730                 2.2817
 Frc consts  --      2.4095                 1.6827                 3.0509
 IR Inten    --     97.8274                51.1516                70.5677

                     55                     56                     57
                      A                      A                      A
 Frequencies --   1512.3189              1526.1933              1542.9238
 Red. masses --      1.0474                 1.0579                 2.8000
 Frc consts  --      1.4114                 1.4518                 3.9274
 IR Inten    --      6.2553                 6.3850                10.3182

                     58                     59                     60
                      A                      A                      A
 Frequencies --   1631.3768              1665.8132              1710.0649
 Red. masses --      5.9006                 6.0454                 6.4359
 Frc consts  --      9.2524                 9.8838                11.0888
 IR Inten    --      4.1856                 5.6128                84.6693

                     61                     62                     63
                      A                      A                      A
 Frequencies --   1824.0737              2363.0036              3083.2656
 Red. masses --     11.6002                12.6629                 1.0292
 Frc consts  --     22.7405                41.6592                 5.7645
 IR Inten    --    436.5020                 0.3637                38.6908

                     64                     65                     66
                      A                      A                      A
 Frequencies --   3128.2030              3162.2582              3183.1888
 Red. masses --      1.0842                 1.1082                 1.0876
 Frc consts  --      6.2512                 6.5293                 6.4931
 IR Inten    --      0.6761                15.9102                 6.4499

                     67                     68                     69
                      A                      A                      A
 Frequencies --   3188.7955              3191.2768              3202.3830
 Red. masses --      1.0883                 1.1077                 1.0922
 Frc consts  --      6.5198                 6.6466                 6.5991
 IR Inten    --      1.9170                12.4048                20.9054

                     70                     71                     72
                      A                      A                      A
 Frequencies --   3216.4478              3223.6476              3268.3545
 Red. masses --      1.0971                 1.0902                 1.0952
 Frc consts  --      6.6870                 6.6751                 6.8927
 IR Inten    --     24.3629                 7.2668                 7.2212

 - Thermochemistry -
 -------------------
 Temperature   298.150 Kelvin.  Pressure   1.00000 Atm.
 Atom     1 has atomic number  6 and mass  12.00000

 Molecular mass:   214.07423 amu.
 Principal axes and moments of inertia in atomic units:
                           1         2         3
     Eigenvalues --  1671.350565095.092895660.16492
           X            0.99994  -0.00974  -0.00444
           Y            0.01007   0.99652   0.08268
           Z            0.00362  -0.08272   0.99657
 This molecule is an asymmetric top.
 Rotational symmetry number  1.
 Warning -- assumption of classical behavior for rotation
           may cause significant error
 Rotational temperatures (Kelvin)      0.05182     0.01700     0.01530
 Rotational constants (GHZ):           1.07981     0.35421     0.31885
 Zero-point vibrational energy     527819.6 (Joules/Mol)
                                  126.15191 (Kcal/Mol)
 Warning -- explicit consideration of  20 degrees of freedom as
           vibrations may cause significant error
 Vibrational temperatures:     51.39   108.51   116.99   131.27   172.35
          (Kelvin)            197.54   230.07   270.88   334.16   420.35
                              440.89   456.59   529.25   591.88   610.75
                              716.35   739.39   787.61   792.74   846.08
                              943.66   962.59  1077.56  1087.97  1101.93
                             1137.63  1146.94  1165.62  1273.05  1296.17
                             1335.34  1362.67  1368.46  1393.69  1419.70
                             1445.28  1539.59  1629.91  1664.53  1677.55
                             1711.99  1721.99  1757.75  1765.33  1803.68
                             1834.46  1908.38  1916.97  1946.24  1969.63
                             1992.30  2095.95  2155.06  2167.44  2175.89
                             2195.85  2219.92  2347.19  2396.73  2460.40
                             2624.44  3399.84  4436.13  4500.79  4549.78
                             4579.90  4587.97  4591.54  4607.51  4627.75
                             4638.11  4702.43

 Zero-point correction=                           0.201036 (Hartree/Particle)
 Thermal correction to Energy=                    0.214671
 Thermal correction to Enthalpy=                  0.215615
 Thermal correction to Gibbs Free Energy=         0.159849
 Sum of electronic and zero-point Energies=           -723.090667
 Sum of electronic and thermal Energies=              -723.077032
 Sum of electronic and thermal Enthalpies=            -723.076088
 Sum of electronic and thermal Free Energies=         -723.131855

                     E (Thermal)             CV                S
                      KCal/Mol        Cal/Mol-Kelvin    Cal/Mol-Kelvin
 Total                  134.708             51.253            117.371
 Electronic               0.000              0.000              0.000
 Translational            0.889              2.981             41.987
 Rotational               0.889              2.981             32.244
 Vibrational            132.931             45.291             43.140
 Vibration     1          0.594              1.982              5.484
 Vibration     2          0.599              1.965              4.007
 Vibration     3          0.600              1.962              3.859
 Vibration     4          0.602              1.955              3.633
 Vibration     5          0.609              1.933              3.104
 Vibration     6          0.614              1.916              2.841
 Vibration     7          0.622              1.891              2.551
 Vibration     8          0.633              1.856              2.245
 Vibration     9          0.653              1.792              1.861
 Vibration    10          0.688              1.688              1.461
 Vibration    11          0.697              1.661              1.382
 Vibration    12          0.704              1.640              1.324
 Vibration    13          0.740              1.538              1.089
 Vibration    14          0.775              1.446              0.922
 Vibration    15          0.786              1.417              0.877
 Vibration    16          0.853              1.255              0.663
 Vibration    17          0.869              1.219              0.624
 Vibration    18          0.903              1.145              0.550
 Vibration    19          0.906              1.138              0.542
 Vibration    20          0.945              1.057              0.471

 Optimization completed.
    -- Stationary point found.
 Normal termination of Gaussian 16 at Thu Dec 10 23:17:25 2020.

 ----------------------------------------------------------------------
 # B3LYP/6-311++G(d,p) empiricaldispersion=gd3bj scf=xqc pop=npa geom=c
 heck
 ----------------------------------------------------------------------

 ------------------------------------
 CID_288256_JID_6484_Energie_neutraal
 ------------------------------------
 Structure from the checkpoint file:  "JID_6484.chk"
 Charge =  0 Multiplicity = 1

 SCF Done:  E(RB3LYP) =  -723.487879952     A.U. after   16 cycles
 Normal termination of Gaussian 16 at Thu Dec 10 23:20:59 2020.

 ----------------------------------------------------------------------
 # B3LYP/6-311++G(d,p) empiricaldispersion=gd3bj scf=xqc pop=npa geom=c
 heck
 ----------------------------------------------------------------------

 ----------------------------------
 CID_288256_JID_6484_Energie_kation
 ----------------------------------
 Structure from the checkpoint file:  "JID_6484.chk"
 Charge =  1 Multiplicity = 2

 SCF Done:  E(UB3LYP) =  -723.196077738     A.U. after   22 cycles
 Normal termination of Gaussian 16 at Thu Dec 10 23:27:51 2020.
 Gaussian 16:  ES64L-G16RevA.03 25-Dec-2016

 ----------------------------------------------------------------------
 # B3LYP/6-311++G(d,p) empiricaldispersion=gd3bj scf=xqc pop=npa geom=c
 heck
 ----------------------------------------------------------------------

 ---------------------------------
 CID_288256_JID_6484_Energie_anion
 ---------------------------------
 Structure from the checkpoint file:  "JID_6484.chk"
 Charge = -1 Multiplicity = 2

                         Standard orientation:
 ---------------------------------------------------------------------
 Center     Atomic      Atomic             Coordinates (Angstroms)
 Number     Number       Type             X           Y           Z
 ---------------------------------------------------------------------
      1          6           0        4.146024   -0.833460   -0.875528
      2          8           0        2.742977   -0.709402   -0.589668
      3          6           0        2.339777    0.544546   -0.291898
      4          8           0        3.063466    1.518181   -0.260090
      5          7           0        0.977639    0.575017   -0.027384
      6          6           0        0.416326    1.764139    0.457872
      7          6           0       -0.912546    1.906583    0.593427
      8          6           0       -1.821569    0.862451    0.144330
      9          6           0       -3.199303    1.072331   -0.009795
     10          6           0       -4.019894    0.064547   -0.510803
     11          6           0       -3.476476   -1.168549   -0.876454
     12          6           0       -2.106575   -1.391370   -0.726176
     13          6           0       -1.288470   -0.389517   -0.213991
     14          6           0        0.185732   -0.659559    0.046106
     15          6           0        0.369447   -1.304524    1.371851
     16          7           0        0.507479   -1.809389    2.407272
     17          1           0        4.303635   -1.891637   -1.082461
     18          1           0        4.737136   -0.515668   -0.013888
     19          1           0        4.413832   -0.224013   -1.741815
     20          1           0        1.141026    2.535694    0.679646
     21          1           0       -1.313981    2.838884    0.973738
     22          1           0       -3.620111    2.037560    0.258733
     23          1           0       -5.085543    0.242671   -0.621664
     24          1           0       -4.113806   -1.954333   -1.269833
     25          1           0       -1.677581   -2.354040   -0.993203
     26          1           0        0.573177   -1.350459   -0.704049
 ---------------------------------------------------------------------

 SCF Done:  E(UB3LYP) =  -723.492746309     A.U. after   33 cycles
 SCF Done:  E(UB3LYP) =  -723.492746309     a.u. after    1 cycles

 The electronic state is 2-A.
 Alpha  occ. eigenvalues --  -19.06159 -18.98259 -14.23408 -14.18293 -10.19754
 Alpha  occ. eigenvalues --  -10.13477 -10.12918 -10.08122 -10.04407 -10.04014
 Alpha  occ. eigenvalues --  -10.03550 -10.03137 -10.03015 -10.02593 -10.02193
 Alpha  occ. eigenvalues --  -10.01549  -1.00590  -0.90896  -0.84094  -0.77839
 Alpha  occ. eigenvalues --   -0.72239  -0.65933  -0.65706  -0.62539  -0.59803
 Alpha  occ. eigenvalues --   -0.56255  -0.50141  -0.47719  -0.46457  -0.43947
 Alpha  occ. eigenvalues --   -0.43147  -0.39188  -0.39075  -0.37473  -0.36171
 Alpha  occ. eigenvalues --   -0.34043  -0.33263  -0.32036  -0.31637  -0.29947
 Alpha  occ. eigenvalues --   -0.29116  -0.27521  -0.26676  -0.25617  -0.24904
 Alpha  occ. eigenvalues --   -0.23634  -0.22797  -0.21616  -0.21057  -0.20093
 Alpha  occ. eigenvalues --   -0.19654  -0.19436  -0.17260  -0.14287  -0.12071
 Alpha  occ. eigenvalues --   -0.07321   0.05170
 Alpha virt. eigenvalues --    0.07119   0.08795   0.09710   0.10312   0.10707
 Alpha virt. eigenvalues --    0.11001   0.11516   0.11902   0.12408   0.13212
 Alpha virt. eigenvalues --    0.13859   0.14526   0.14945   0.15483   0.15699

  Beta  occ. eigenvalues --  -19.06114 -18.98202 -14.23424 -14.18206 -10.19623
  Beta  occ. eigenvalues --  -10.13479 -10.12924 -10.08099 -10.04101 -10.03973
  Beta  occ. eigenvalues --  -10.03313 -10.03135 -10.02931 -10.02352 -10.01925
  Beta  occ. eigenvalues --  -10.01514  -1.00459  -0.90780  -0.83920  -0.77701
  Beta  occ. eigenvalues --   -0.71875  -0.65494  -0.65446  -0.62291  -0.59556
  Beta  occ. eigenvalues --   -0.55928  -0.49741  -0.47442  -0.46172  -0.43826
  Beta  occ. eigenvalues --   -0.42882  -0.38997  -0.38828  -0.37236  -0.36101
  Beta  occ. eigenvalues --   -0.33915  -0.33028  -0.31873  -0.31372  -0.29675
  Beta  occ. eigenvalues --   -0.29010  -0.27329  -0.26607  -0.25456  -0.24607
  Beta  occ. eigenvalues --   -0.22888  -0.22370  -0.21449  -0.20663  -0.19873
  Beta  occ. eigenvalues --   -0.19426  -0.18743  -0.17170  -0.13129  -0.11246
  Beta  occ. eigenvalues --   -0.05934
  Beta virt. eigenvalues --    0.07062   0.08723   0.09659   0.10229   0.10641
  Beta virt. eigenvalues --    0.10684   0.11017   0.11674   0.11864   0.12356
  Beta virt. eigenvalues --    0.13575   0.14125   0.14513   0.14906   0.15666

 Mulliken charges and spin densities:
               1          2
     1  C   -0.177319  -0.010894
     2  O   -0.096438   0.007335
     3  C    0.275825   0.068005
     4  O   -0.344086   0.025959
     5  N    0.104014  -0.015469
     6  C   -0.325680   0.292071
     7  C    0.204063   0.024120
     8  C    0.296737   0.150336
     9  C   -0.359704   0.023456
    10  C   -0.386534   0.064653
    11  C   -0.472319   0.191526
    12  C   -0.653628  -0.037631
    13  C    0.832022   0.133491
    14  C   -0.448572  -0.022616
    15  C   -0.464602   0.026360
    16  N   -0.347820   0.048050
    17  H    0.117705   0.009860
    18  H    0.163137   0.004050
    19  H    0.159323   0.008544
    20  H    0.161736  -0.016707
    21  H    0.123583   0.000553
    22  H    0.091299   0.009244
    23  H    0.097458  -0.004856
    24  H    0.103655  -0.012595
    25  H    0.074089   0.027638
    26  H    0.272055   0.005516
 Sum of Mulliken charges =  -1.00000   1.00000

 Dipole moment (field-independent basis, Debye):
    X=              3.0999    Y=             -1.1591    Z=             -3.4783  Tot=              4.8012
 Quadrupole moment (field-independent basis, Debye-Ang):
   XX=           -122.6379   YY=           -111.2114   ZZ=           -114.5352
   XY=             -9.9936   XZ=             -5.9079   YZ=              9.8812

 Summary of Natural Population Analysis:

                                       Natural Population
                Natural  -----------------------------------------------
    Atom  No    Charge         Core      Valence    Rydberg      Total
 -----------------------------------------------------------------------
      C    1   -0.10102      0.99961     2.09335    0.00805     3.10102
      O    2   -0.28204      0.99986     3.27530    0.00687     4.28204
      C    3    0.48318      0.99968     1.49227    0.02488     2.51682
      O    4   -0.32803      0.99987     3.32290    0.00526     4.32803
      N    5   -0.24707      0.99962     2.73716    0.01029     3.74707
      C    6    0.08831      0.99953     1.90155    0.01060     2.91169
      C    7   -0.13488      0.99954     2.12654    0.00880     3.13488
      C    8    0.01108      0.99947     1.98129    0.00816     2.98892
      C    9   -0.09628      0.99954     2.08804    0.00871     3.09628
      C   10   -0.09361      0.99958     2.08499    0.00905     3.09361
      C   11   -0.06823      0.99958     2.05860    0.01005     3.06823
      C   12   -0.11597      0.99952     2.10814    0.00831     3.11597
      C   13    0.01854      0.99946     1.97176    0.01025     2.98146
      C   14   -0.05441      0.99947     2.04197    0.01296     3.05441
      C   15    0.16149      0.99963     1.81848    0.02040     2.83851
      N   16   -0.18357      0.99979     2.67210    0.01168     3.68357
      H   17    0.08664      0.00000     0.41258    0.00078     0.41336
      H   18    0.09042      0.00000     0.40850    0.00107     0.40958
      H   19    0.08850      0.00000     0.41042    0.00109     0.41150
      H   20    0.10007      0.00000     0.39885    0.00109     0.39993
      H   21    0.09489      0.00000     0.40368    0.00143     0.40511
      H   22    0.08976      0.00000     0.40873    0.00151     0.41024
      H   23    0.08835      0.00000     0.41059    0.00106     0.41165
      H   24    0.08695      0.00000     0.41154    0.00151     0.41305
      H   25    0.09161      0.00000     0.40698    0.00141     0.40839
      H   26    0.12533      0.00000     0.37305    0.00163     0.37467
 =======================================================================
   * Total *   -0.00000     15.99373    39.81935    0.18692    56.00000

 Normal termination of Gaussian 16 at Thu Dec 10 23:38:01 2020.
