 Gaussian 16, Revision A.03,

 -----------------------------------------------------------
 # opt freq B3LYP/6-31G(d) empiricaldispersion=gd3bj scf=xqc
 -----------------------------------------------------------

 ------------------------------
 CID_82509407_JID_6743_neutraal
 ------------------------------
 Symbolic Z-matrix:
 Charge =  0 Multiplicity = 1

 SCF Done:  E(RB3LYP) =  -704.402459282     A.U. after   14 cycles
 SCF Done:  E(RB3LYP) =  -704.409935741     A.U. after   12 cycles
 SCF Done:  E(RB3LYP) =  -704.411334913     A.U. after   12 cycles
 SCF Done:  E(RB3LYP) =  -704.412201510     A.U. after   12 cycles
 SCF Done:  E(RB3LYP) =  -704.412504686     A.U. after   11 cycles
 SCF Done:  E(RB3LYP) =  -704.412614784     A.U. after   11 cycles
 SCF Done:  E(RB3LYP) =  -704.412643363     A.U. after   10 cycles
 SCF Done:  E(RB3LYP) =  -704.412670008     A.U. after   10 cycles
 SCF Done:  E(RB3LYP) =  -704.412745023     A.U. after   11 cycles
 SCF Done:  E(RB3LYP) =  -704.412822889     A.U. after   11 cycles
 SCF Done:  E(RB3LYP) =  -704.412918568     A.U. after    7 cycles
 SCF Done:  E(RB3LYP) =  -704.412918514     A.U. after    7 cycles
 SCF Done:  E(RB3LYP) =  -704.412918362     A.U. after    7 cycles
 SCF Done:  E(RB3LYP) =  -704.412918210     A.U. after    7 cycles
 SCF Done:  E(RB3LYP) =  -704.412917720     A.U. after    7 cycles
 Optimization completed.
    -- Stationary point found.
 Normal termination of Gaussian 16 at Thu Dec 10 23:27:44 2020.

 --------------------------------------------------------------------
 #N Geom=AllCheck Guess=TCheck SCRF=Check GenChk RB3LYP/6-31G(d) Freq
 --------------------------------------------------------------------

 Structure from the checkpoint file:  "JID_6743.chk"
 ------------------------------
 CID_82509407_JID_6743_neutraal
 ------------------------------
 Charge =  0 Multiplicity = 1

 SCF Done:  E(RB3LYP) =  -704.412917720     A.U. after    1 cycles

  Exact polarizability: 196.715  19.416 115.761  -1.304   1.434 137.079
 Approx polarizability: 262.788  35.459 171.593  -2.365   3.653 226.418

                      1                      2                      3
                      A                      A                      A
 Frequencies --     28.3544                29.0222                47.2620
 Red. masses --      3.3293                 1.9536                 2.1665
 Frc consts  --      0.0016                 0.0010                 0.0029
 IR Inten    --      0.0879                 1.2261                 0.2295

                      4                      5                      6
                      A                      A                      A
 Frequencies --     64.3637                97.6496               110.8141
 Red. masses --      2.6497                 1.9364                 4.9672
 Frc consts  --      0.0065                 0.0109                 0.0359
 IR Inten    --      0.0135                 0.0200                 0.7727

                      7                      8                      9
                      A                      A                      A
 Frequencies --    136.6859               154.4312               184.3733
 Red. masses --      1.5250                 3.7331                 3.2522
 Frc consts  --      0.0168                 0.0525                 0.0651
 IR Inten    --      0.0028                 6.1760                 0.6121

                     10                     11                     12
                      A                      A                      A
 Frequencies --    222.9807               246.5195               293.3287
 Red. masses --      2.2106                 2.0636                 3.2911
 Frc consts  --      0.0648                 0.0739                 0.1668
 IR Inten    --      4.2756                 0.9636                 9.1710

                     13                     14                     15
                      A                      A                      A
 Frequencies --    320.5606               348.8592               394.1897
 Red. masses --      2.8567                 2.9343                 2.0669
 Frc consts  --      0.1730                 0.2104                 0.1892
 IR Inten    --      0.4861                 3.7895                 5.2686

                     16                     17                     18
                      A                      A                      A
 Frequencies --    418.5303               431.6568               441.7244
 Red. masses --      4.1828                 5.9161                 1.6487
 Frc consts  --      0.4317                 0.6495                 0.1895
 IR Inten    --      0.0047                 2.8184                 0.1685

                     19                     20                     21
                      A                      A                      A
 Frequencies --    463.7567               479.2881               518.8270
 Red. masses --      2.5780                 2.6219                 3.0341
 Frc consts  --      0.3267                 0.3549                 0.4812
 IR Inten    --      3.2085                 0.0007                 2.8791

                     22                     23                     24
                      A                      A                      A
 Frequencies --    536.9065               575.2913               610.8971
 Red. masses --      4.2211                 2.1147                 2.5031
 Frc consts  --      0.7169                 0.4124                 0.5504
 IR Inten    --     17.2932                 3.2413                16.5414

                     25                     26                     27
                      A                      A                      A
 Frequencies --    676.8887               732.5909               774.5315
 Red. masses --      8.9710                 4.6463                 3.2878
 Frc consts  --      2.4217                 1.4692                 1.1621
 IR Inten    --      3.7040                16.4795                 6.2034

                     28                     29                     30
                      A                      A                      A
 Frequencies --    815.7388               822.5220               835.7039
 Red. masses --      8.4630                 2.4185                 1.6230
 Frc consts  --      3.3180                 0.9640                 0.6679
 IR Inten    --     20.8953               106.4929                 0.1193

                     31                     32                     33
                      A                      A                      A
 Frequencies --    843.4424               881.1707               897.9430
 Red. masses --      7.0583                 2.4221                 1.5775
 Frc consts  --      2.9584                 1.1081                 0.7494
 IR Inten    --      6.6972                 4.6725                58.4396

                     34                     35                     36
                      A                      A                      A
 Frequencies --    969.2769               970.1435               999.8057
 Red. masses --      1.6227                 1.9491                 1.3675
 Frc consts  --      0.8982                 1.0808                 0.8054
 IR Inten    --      7.1705                 3.8771                 0.2910

                     37                     38                     39
                      A                      A                      A
 Frequencies --   1001.6068              1010.7597              1039.3719
 Red. masses --      2.5791                 2.6887                 1.5560
 Frc consts  --      1.5245                 1.6184                 0.9904
 IR Inten    --      8.0976                83.7554                11.2916

                     40                     41                     42
                      A                      A                      A
 Frequencies --   1045.7510              1056.8070              1094.8803
 Red. masses --      2.6442                 3.6735                 1.3600
 Frc consts  --      1.7038                 2.4172                 0.9606
 IR Inten    --     19.5525                13.4354                 3.2192

                     43                     44                     45
                      A                      A                      A
 Frequencies --   1099.9610              1139.8307              1143.4379
 Red. masses --      2.1908                 4.4889                 1.2202
 Frc consts  --      1.5618                 3.4361                 0.9399
 IR Inten    --     18.3751                23.4124                 0.4088

                     46                     47                     48
                      A                      A                      A
 Frequencies --   1165.5301              1190.1322              1208.8588
 Red. masses --      2.5289                 1.3600                 2.0507
 Frc consts  --      2.0241                 1.1349                 1.7656
 IR Inten    --      0.6611                21.8614                38.0312

                     49                     50                     51
                      A                      A                      A
 Frequencies --   1221.5425              1231.4933              1240.4349
 Red. masses --      1.1494                 2.7554                 3.8206
 Frc consts  --      1.0105                 2.4621                 3.4636
 IR Inten    --      0.9701               132.8458                 8.7918

                     52                     53                     54
                      A                      A                      A
 Frequencies --   1268.9861              1272.7658              1291.2263
 Red. masses --      1.4440                 2.0380                 3.7944
 Frc consts  --      1.3700                 1.9451                 3.7273
 IR Inten    --      0.2162                 3.6709                11.9960

                     55                     56                     57
                      A                      A                      A
 Frequencies --   1350.4566              1356.0005              1368.5434
 Red. masses --      1.6828                 1.3258                 1.2659
 Frc consts  --      1.8082                 1.4363                 1.3969
 IR Inten    --     33.7685                 3.1828                 0.3818

                     58                     59                     60
                      A                      A                      A
 Frequencies --   1376.5662              1391.5142              1394.3305
 Red. masses --      1.6599                 1.5730                 1.2425
 Frc consts  --      1.8532                 1.7945                 1.4232
 IR Inten    --      8.1951                22.3171                49.5118

                     61                     62                     63
                      A                      A                      A
 Frequencies --   1398.1254              1420.3746              1428.5812
 Red. masses --      1.2415                 1.2200                 1.4192
 Frc consts  --      1.4298                 1.4501                 1.7065
 IR Inten    --      7.2466                22.4140                11.5373

                     64                     65                     66
                      A                      A                      A
 Frequencies --   1444.1073              1455.1046              1459.9872
 Red. masses --      2.0792                 1.3850                 1.8686
 Frc consts  --      2.5547                 1.7278                 2.3467
 IR Inten    --     54.4075                 1.7015                 1.9174

                     67                     68                     69
                      A                      A                      A
 Frequencies --   1465.9263              1492.6001              1492.6935
 Red. masses --      1.4270                 1.0914                 1.0987
 Frc consts  --      1.8068                 1.4325                 1.4424
 IR Inten    --    126.2982                13.3206                14.6558

                     70                     71                     72
                      A                      A                      A
 Frequencies --   1506.0722              1506.3493              1513.8303
 Red. masses --      1.1086                 1.0801                 1.1810
 Frc consts  --      1.4816                 1.4440                 1.5947
 IR Inten    --      7.4509                 2.6705                 4.3052

                     73                     74                     75
                      A                      A                      A
 Frequencies --   1515.7887              1519.2243              1520.0204
 Red. masses --      1.1293                 1.2547                 1.0473
 Frc consts  --      1.5288                 1.7062                 1.4257
 IR Inten    --     38.9612               172.5282                 7.8373

                     76                     77                     78
                      A                      A                      A
 Frequencies --   1529.2503              1535.3880              1585.8584
 Red. masses --      1.0481                 1.0623                 6.1363
 Frc consts  --      1.4441                 1.4754                 9.0925
 IR Inten    --      8.7036                13.1301                79.6558

                     79                     80                     81
                      A                      A                      A
 Frequencies --   1606.1262              1670.1230              2981.4024
 Red. masses --      2.2904                 5.6535                 1.0696
 Frc consts  --      3.4812                 9.2910                 5.6014
 IR Inten    --    283.3344               456.3945                30.3893

                     82                     83                     84
                      A                      A                      A
 Frequencies --   2987.2913              3017.0013              3023.6700
 Red. masses --      1.0710                 1.0450                 1.0485
 Frc consts  --      5.6313                 5.6045                 5.6481
 IR Inten    --    126.6969                26.2660               172.6571

                     85                     86                     87
                      A                      A                      A
 Frequencies --   3030.5969              3051.7618              3053.2470
 Red. masses --      1.0601                 1.0619                 1.0657
 Frc consts  --      5.7365                 5.8269                 5.8536
 IR Inten    --     46.9397                46.9532                34.1908

                     88                     89                     90
                      A                      A                      A
 Frequencies --   3068.5016              3071.5280              3073.2041
 Red. masses --      1.0976                 1.0957                 1.0989
 Frc consts  --      6.0892                 6.0902                 6.1152
 IR Inten    --     11.3889                96.3780                 0.8359

                     91                     92                     93
                      A                      A                      A
 Frequencies --   3074.1750              3076.7834              3104.1477
 Red. masses --      1.0913                 1.0987                 1.1038
 Frc consts  --      6.0762                 6.1279                 6.2665
 IR Inten    --     18.5050                73.0965                 9.8681

                     94                     95                     96
                      A                      A                      A
 Frequencies --   3106.2159              3139.2886              3142.0148
 Red. masses --      1.1023                 1.0898                 1.0906
 Frc consts  --      6.2661                 6.3282                 6.3437
 IR Inten    --     81.7345                39.7494                29.6905

                     97                     98                     99
                      A                      A                      A
 Frequencies --   3201.5901              3202.3859              3440.8663
 Red. masses --      1.0952                 1.0943                 1.0732
 Frc consts  --      6.6143                 6.6119                 7.4866
 IR Inten    --      0.2115                 2.2376                 7.8574

 - Thermochemistry -
 -------------------
 Temperature   298.150 Kelvin.  Pressure   1.00000 Atm.
 Atom     1 has atomic number  6 and mass  12.00000

 Molecular mass:   221.16405 amu.
 Principal axes and moments of inertia in atomic units:
                           1         2         3
     Eigenvalues --  1735.109276122.308376212.90923
           X            0.99996   0.00895  -0.00031
           Y           -0.00894   0.99948   0.03111
           Z            0.00059  -0.03111   0.99952
 This molecule is an asymmetric top.
 Rotational symmetry number  1.
 Warning -- assumption of classical behavior for rotation
           may cause significant error
 Rotational temperatures (Kelvin)      0.04992     0.01415     0.01394
 Rotational constants (GHZ):           1.04013     0.29478     0.29048
 Zero-point vibrational energy     808962.8 (Joules/Mol)
                                  193.34675 (Kcal/Mol)
 Warning -- explicit consideration of  24 degrees of freedom as
           vibrations may cause significant error
 Vibrational temperatures:     40.80    41.76    68.00    92.61   140.50
          (Kelvin)            159.44   196.66   222.19   265.27   320.82
                              354.69   422.03   461.22   501.93   567.15
                              602.17   621.06   635.54   667.24   689.59
                              746.48   772.49   827.72   878.94   973.89
                             1054.03  1114.38  1173.67  1183.43  1202.39
                             1213.53  1267.81  1291.94  1394.57  1395.82
                             1438.50  1441.09  1454.26  1495.42  1504.60
                             1520.51  1575.29  1582.60  1639.96  1645.15
                             1676.94  1712.33  1739.28  1757.53  1771.84
                             1784.71  1825.79  1831.23  1857.79  1943.01
                             1950.98  1969.03  1980.57  2002.08  2006.13
                             2011.59  2043.60  2055.41  2077.75  2093.57
                             2100.60  2109.14  2147.52  2147.65  2166.90
                             2167.30  2178.06  2180.88  2185.82  2186.97
                             2200.25  2209.08  2281.70  2310.86  2402.93
                             4289.57  4298.05  4340.79  4350.39  4360.35
                             4390.80  4392.94  4414.89  4419.24  4421.66
                             4423.05  4426.81  4466.18  4469.15  4516.74
                             4520.66  4606.37  4607.52  4950.64

 Zero-point correction=                           0.308118 (Hartree/Particle)
 Thermal correction to Energy=                    0.323651
 Thermal correction to Enthalpy=                  0.324595
 Thermal correction to Gibbs Free Energy=         0.263544
 Sum of electronic and zero-point Energies=           -704.104800
 Sum of electronic and thermal Energies=              -704.089267
 Sum of electronic and thermal Enthalpies=            -704.088323
 Sum of electronic and thermal Free Energies=         -704.149373

                     E (Thermal)             CV                S
                      KCal/Mol        Cal/Mol-Kelvin    Cal/Mol-Kelvin
 Total                  203.094             58.359            128.492
 Electronic               0.000              0.000              0.000
 Translational            0.889              2.981             42.084
 Rotational               0.889              2.981             32.556
 Vibrational            201.317             52.398             53.852
 Vibration     1          0.593              1.984              5.941
 Vibration     2          0.593              1.984              5.895
 Vibration     3          0.595              1.979              4.929
 Vibration     4          0.597              1.971              4.319
 Vibration     5          0.603              1.951              3.501
 Vibration     6          0.607              1.941              3.255
 Vibration     7          0.614              1.917              2.850
 Vibration     8          0.620              1.898              2.617
 Vibration     9          0.631              1.861              2.284
 Vibration    10          0.649              1.806              1.935
 Vibration    11          0.661              1.769              1.755
 Vibration    12          0.688              1.686              1.455
 Vibration    13          0.706              1.634              1.307
 Vibration    14          0.726              1.578              1.171
 Vibration    15          0.761              1.483              0.984
 Vibration    16          0.781              1.430              0.897
 Vibration    17          0.793              1.401              0.853
 Vibration    18          0.801              1.379              0.821
 Vibration    19          0.821              1.330              0.755
 Vibration    20          0.836              1.296              0.712
 Vibration    21          0.874              1.208              0.613
 Vibration    22          0.892              1.168              0.572
 Vibration    23          0.932              1.085              0.494
 Vibration    24          0.970              1.009              0.431

 Optimization completed.
    -- Stationary point found.
 Normal termination of Gaussian 16 at Thu Dec 10 23:39:45 2020.

 ----------------------------------------------------------------------
 # B3LYP/6-311++G(d,p) empiricaldispersion=gd3bj scf=xqc pop=npa geom=c
 heck
 ----------------------------------------------------------------------

 --------------------------------------
 CID_82509407_JID_6743_Energie_neutraal
 --------------------------------------
 Structure from the checkpoint file:  "JID_6743.chk"
 Charge =  0 Multiplicity = 1

 SCF Done:  E(RB3LYP) =  -704.601870491     A.U. after   14 cycles
 Normal termination of Gaussian 16 at Thu Dec 10 23:44:52 2020.

 ----------------------------------------------------------------------
 # B3LYP/6-311++G(d,p) empiricaldispersion=gd3bj scf=xqc pop=npa geom=c
 heck
 ----------------------------------------------------------------------

 ------------------------------------
 CID_82509407_JID_6743_Energie_kation
 ------------------------------------
 Structure from the checkpoint file:  "JID_6743.chk"
 Charge =  1 Multiplicity = 2

 SCF Done:  E(UB3LYP) =  -704.347793832     A.U. after   21 cycles
 Normal termination of Gaussian 16 at Thu Dec 10 23:55:43 2020.
 Gaussian 16:  ES64L-G16RevA.03 25-Dec-2016

 ----------------------------------------------------------------------
 # B3LYP/6-311++G(d,p) empiricaldispersion=gd3bj scf=xqc pop=npa geom=c
 heck
 ----------------------------------------------------------------------

 -----------------------------------
 CID_82509407_JID_6743_Energie_anion
 -----------------------------------
 Structure from the checkpoint file:  "JID_6743.chk"
 Charge = -1 Multiplicity = 2

                         Standard orientation:
 ---------------------------------------------------------------------
 Center     Atomic      Atomic             Coordinates (Angstroms)
 Number     Number       Type             X           Y           Z
 ---------------------------------------------------------------------
      1          6           0        4.125098    0.615792   -1.268229
      2          7           0        3.461308    0.304861   -0.016123
      3          6           0        4.117734    0.779445    1.187588
      4          6           0        2.208575   -0.240754    0.016434
      5          7           0        1.635999   -0.423376    1.229537
      6          6           0        0.412677   -0.943613    1.232377
      7          6           0       -0.295106   -1.291858    0.078858
      8          6           0        0.418643   -1.096536   -1.106555
      9          7           0        1.641967   -0.579693   -1.165485
     10          6           0       -1.720246   -1.805299    0.107891
     11          7           0       -2.811339   -0.835363    0.043868
     12          6           0       -3.003642    0.026255    1.208344
     13          6           0       -2.260364    1.372522    1.128390
     14          7           0       -2.523897    2.091829   -0.124291
     15          6           0       -2.242186    1.232314   -1.280952
     16          6           0       -2.985337   -0.114955   -1.215650
     17          1           0        5.156297    0.241787   -1.241938
     18          1           0        4.160105    1.702720   -1.433593
     19          1           0        3.586483    0.147698   -2.089095
     20          1           0        4.153756    1.878686    1.206299
     21          1           0        3.572924    0.425814    2.060036
     22          1           0        5.148368    0.404216    1.218441
     23          1           0       -0.036161   -1.092601    2.215911
     24          1           0       -0.025474   -1.372528   -2.064472
     25          1           0       -1.862651   -2.499272   -0.730648
     26          1           0       -1.867768   -2.388840    1.025812
     27          1           0       -4.082381    0.239841    1.293566
     28          1           0       -2.716455   -0.530207    2.109041
     29          1           0       -1.178260    1.216280    1.196412
     30          1           0       -2.552149    2.013833    1.969277
     31          1           0       -3.512601    2.348996   -0.146677
     32          1           0       -1.159340    1.070248   -1.314338
     33          1           0       -2.520853    1.771468   -2.194829
     34          1           0       -2.684708   -0.771905   -2.041105
     35          1           0       -4.062477    0.086078   -1.341624
 ---------------------------------------------------------------------

 SCF Done:  E(UB3LYP) =  -704.590562118     A.U. after   33 cycles
 SCF Done:  E(UB3LYP) =  -704.590562118     a.u. after    1 cycles

 The electronic state is 2-A.
 Alpha  occ. eigenvalues --  -14.22518 -14.19416 -14.19081 -14.17119 -14.17063
 Alpha  occ. eigenvalues --  -10.14605 -10.09154 -10.09035 -10.09029 -10.08752
 Alpha  occ. eigenvalues --  -10.08410 -10.08134 -10.07824 -10.07776 -10.07608
 Alpha  occ. eigenvalues --  -10.04773  -0.87962  -0.83149  -0.81068  -0.78144
 Alpha  occ. eigenvalues --   -0.75583  -0.67331  -0.65290  -0.61705  -0.61147
 Alpha  occ. eigenvalues --   -0.56922  -0.53555  -0.52580  -0.52435  -0.48067
 Alpha  occ. eigenvalues --   -0.46157  -0.41757  -0.40602  -0.38946  -0.36740
 Alpha  occ. eigenvalues --   -0.35929  -0.35493  -0.35221  -0.33842  -0.33368
 Alpha  occ. eigenvalues --   -0.33243  -0.31053  -0.29791  -0.29686  -0.28543
 Alpha  occ. eigenvalues --   -0.28497  -0.28331  -0.28245  -0.27514  -0.26348
 Alpha  occ. eigenvalues --   -0.24472  -0.23732  -0.23267  -0.19196  -0.19029
 Alpha  occ. eigenvalues --   -0.18142  -0.14312  -0.11862  -0.09920  -0.08406
 Alpha  occ. eigenvalues --    0.04814
 Alpha virt. eigenvalues --    0.06334   0.06609   0.07809   0.08348   0.08718
 Alpha virt. eigenvalues --    0.09218   0.09582   0.10133   0.10634   0.11144
 Alpha virt. eigenvalues --    0.11391   0.11807   0.12519   0.12628   0.12964

  Beta  occ. eigenvalues --  -14.22524 -14.19420 -14.19067 -14.16946 -14.16864
  Beta  occ. eigenvalues --  -10.14631 -10.09140 -10.09022 -10.09014 -10.08743
  Beta  occ. eigenvalues --  -10.08384 -10.08129 -10.07757 -10.07617 -10.07365
  Beta  occ. eigenvalues --  -10.04853  -0.87797  -0.83135  -0.80911  -0.78121
  Beta  occ. eigenvalues --   -0.75142  -0.67189  -0.65261  -0.61664  -0.61080
  Beta  occ. eigenvalues --   -0.56863  -0.53490  -0.52359  -0.52090  -0.47985
  Beta  occ. eigenvalues --   -0.46106  -0.41665  -0.40466  -0.38915  -0.36684
  Beta  occ. eigenvalues --   -0.35876  -0.35458  -0.35170  -0.33799  -0.33281
  Beta  occ. eigenvalues --   -0.33186  -0.30953  -0.29665  -0.29236  -0.28496
  Beta  occ. eigenvalues --   -0.28449  -0.28239  -0.28140  -0.27461  -0.26258
  Beta  occ. eigenvalues --   -0.24432  -0.23672  -0.23235  -0.18922  -0.17771
  Beta  occ. eigenvalues --   -0.17621  -0.14279  -0.11646  -0.09657  -0.08253
  Beta virt. eigenvalues --    0.06657   0.07057   0.08194   0.08482   0.08862
  Beta virt. eigenvalues --    0.09175   0.09425   0.09758   0.10470   0.10772
  Beta virt. eigenvalues --    0.11326   0.11385   0.11958   0.12563   0.12597

 Mulliken charges and spin densities:
               1          2
     1  C    0.191884  -0.451502
     2  N   -0.028845   0.050917
     3  C    0.237125  -0.497775
     4  C   -0.335746  -0.056824
     5  N   -0.152616   0.115568
     6  C   -0.610581   0.323785
     7  C    0.879479   0.076559
     8  C   -0.828832   0.544187
     9  N   -0.140568   0.112799
    10  C   -0.331131  -0.794504
    11  N    0.089262   0.118234
    12  C   -0.065251  -0.241491
    13  C   -0.145850  -0.270093
    14  N   -0.137476   0.025967
    15  C   -0.066331  -0.339981
    16  C    0.206418  -0.519850
    17  H   -0.055686   0.171853
    18  H   -0.014827   0.141459
    19  H    0.101711   0.080828
    20  H   -0.010865   0.137316
    21  H    0.116411   0.065754
    22  H   -0.088923   0.205462
    23  H   -0.006462   0.136771
    24  H    0.043172   0.090377
    25  H    0.138970   0.014111
    26  H   -0.092719   0.254957
    27  H   -0.150336   0.308353
    28  H    0.117165   0.003933
    29  H    0.279396  -0.018216
    30  H    0.035269   0.112853
    31  H    0.109207   0.110758
    32  H    0.431589  -0.173971
    33  H   -0.390584   0.552623
    34  H    0.072862   0.046379
    35  H   -0.396288   0.562405
 Sum of Mulliken charges =  -1.00000   1.00000

 Dipole moment (field-independent basis, Debye):
    X=              1.1537    Y=             -1.2564    Z=              0.9328  Tot=              1.9442
 Quadrupole moment (field-independent basis, Debye-Ang):
   XX=           -173.5793   YY=           -128.9904   ZZ=           -125.7375
   XY=              4.1175   XZ=             -5.8960   YZ=              4.8815

 Summary of Natural Population Analysis:

                                       Natural Population
                Natural  -----------------------------------------------
    Atom  No    Charge         Core      Valence    Rydberg      Total
 -----------------------------------------------------------------------
      C    1   -0.17535      0.99965     2.16940    0.00631     3.17535
      N    2   -0.24767      0.99964     2.73890    0.00912     3.74767
      C    3   -0.17520      0.99965     2.16927    0.00628     3.17520
      C    4    0.30115      0.99957     1.68113    0.01815     2.69885
      N    5   -0.26099      0.99967     2.75069    0.01063     3.76099
      C    6    0.09240      0.99954     1.89316    0.01489     2.90760
      C    7   -0.11229      0.99947     2.10452    0.00829     3.11229
      C    8    0.08650      0.99954     1.90055    0.01341     2.91350
      N    9   -0.25768      0.99967     2.74762    0.01039     3.75768
      C   10   -0.08463      0.99958     2.07148    0.01357     3.08463
      N   11   -0.28355      0.99973     2.76810    0.01571     3.78355
      C   12   -0.09226      0.99961     2.08108    0.01157     3.09226
      C   13   -0.10141      0.99962     2.09085    0.01094     3.10141
      N   14   -0.33536      0.99977     2.82275    0.01285     3.83536
      C   15   -0.10175      0.99962     2.09041    0.01173     3.10175
      C   16   -0.09261      0.99961     2.08068    0.01232     3.09261
      H   17    0.08631      0.00000     0.41202    0.00168     0.41369
      H   18    0.08517      0.00000     0.41298    0.00185     0.41483
      H   19    0.11796      0.00000     0.38046    0.00158     0.38204
      H   20    0.08483      0.00000     0.41320    0.00197     0.41517
      H   21    0.11783      0.00000     0.38058    0.00159     0.38217
      H   22    0.08660      0.00000     0.41173    0.00167     0.41340
      H   23    0.08085      0.00000     0.41766    0.00149     0.41915
      H   24    0.08024      0.00000     0.41804    0.00172     0.41976
      H   25    0.09396      0.00000     0.40492    0.00112     0.40604
      H   26    0.09595      0.00000     0.40301    0.00104     0.40405
      H   27    0.08724      0.00000     0.41130    0.00146     0.41276
      H   28    0.09522      0.00000     0.40362    0.00116     0.40478
      H   29    0.09893      0.00000     0.39939    0.00167     0.40107
      H   30    0.08943      0.00000     0.40967    0.00090     0.41057
      H   31    0.16520      0.00000     0.33221    0.00259     0.33480
      H   32    0.09812      0.00000     0.40022    0.00166     0.40188
      H   33    0.09233      0.00000     0.40650    0.00118     0.40767
      H   34    0.09556      0.00000     0.40331    0.00113     0.40444
      H   35    0.08896      0.00000     0.40903    0.00201     0.41104
 =======================================================================
   * Total *    0.00000     15.99394    43.79043    0.21563    60.00000

 Normal termination of Gaussian 16 at Fri Dec 11 00:12:58 2020.
