 Gaussian 16, Revision A.03,

 -----------------------------------------------------------
 # opt freq B3LYP/6-31G(d) empiricaldispersion=gd3bj scf=xqc
 -----------------------------------------------------------

 -------------------------------
 CID_116008259_JID_8461_neutraal
 -------------------------------
 Symbolic Z-matrix:
 Charge =  0 Multiplicity = 1

 SCF Done:  E(RB3LYP) =  -770.837509634     A.U. after   14 cycles
 SCF Done:  E(RB3LYP) =  -770.841416538     A.U. after   12 cycles
 SCF Done:  E(RB3LYP) =  -770.842013060     A.U. after   12 cycles
 SCF Done:  E(RB3LYP) =  -770.842948579     A.U. after   12 cycles
 SCF Done:  E(RB3LYP) =  -770.843300780     A.U. after   12 cycles
 SCF Done:  E(RB3LYP) =  -770.843729899     A.U. after   11 cycles
 SCF Done:  E(RB3LYP) =  -770.844006554     A.U. after   11 cycles
 SCF Done:  E(RB3LYP) =  -770.844185056     A.U. after   11 cycles
 SCF Done:  E(RB3LYP) =  -770.844353902     A.U. after   11 cycles
 SCF Done:  E(RB3LYP) =  -770.844397587     A.U. after   11 cycles
 SCF Done:  E(RB3LYP) =  -770.844429018     A.U. after   10 cycles
 SCF Done:  E(RB3LYP) =  -770.844431568     A.U. after    9 cycles
 SCF Done:  E(RB3LYP) =  -770.844432952     A.U. after    9 cycles
 SCF Done:  E(RB3LYP) =  -770.844433557     A.U. after    8 cycles
 SCF Done:  E(RB3LYP) =  -770.844433838     A.U. after    7 cycles
 Optimization completed.
    -- Stationary point found.
 Normal termination of Gaussian 16 at Fri Dec 11 20:40:47 2020.

 --------------------------------------------------------------------
 #N Geom=AllCheck Guess=TCheck SCRF=Check GenChk RB3LYP/6-31G(d) Freq
 --------------------------------------------------------------------

 Structure from the checkpoint file:  "JID_8461.chk"
 -------------------------------
 CID_116008259_JID_8461_neutraal
 -------------------------------
 Charge =  0 Multiplicity = 1

 SCF Done:  E(RB3LYP) =  -770.844433837     A.U. after    1 cycles

  Exact polarizability: 225.200  20.974 148.048   4.313  -8.489 154.357
 Approx polarizability: 295.543  31.467 194.271   5.353 -14.403 261.315

                      1                      2                      3
                      A                      A                      A
 Frequencies --     21.0494                28.8217                41.0255
 Red. masses --      4.3701                 2.6310                 3.6030
 Frc consts  --      0.0011                 0.0013                 0.0036
 IR Inten    --      0.0729                 0.1395                 0.6815

                      4                      5                      6
                      A                      A                      A
 Frequencies --     43.0863                84.6416               106.4748
 Red. masses --      3.3857                 3.8474                 3.0863
 Frc consts  --      0.0037                 0.0162                 0.0206
 IR Inten    --      0.2095                 1.6399                 0.0656

                      7                      8                      9
                      A                      A                      A
 Frequencies --    131.5563               132.5723               160.9630
 Red. masses --      3.5601                 3.2582                 3.7104
 Frc consts  --      0.0363                 0.0337                 0.0566
 IR Inten    --      1.2453                 1.4131                 0.8274

                     10                     11                     12
                      A                      A                      A
 Frequencies --    223.6084               238.6849               249.6892
 Red. masses --      1.2037                 2.2905                 1.2444
 Frc consts  --      0.0355                 0.0769                 0.0457
 IR Inten    --      0.6278                 0.0678                 0.2982

                     13                     14                     15
                      A                      A                      A
 Frequencies --    267.3687               281.3584               312.2244
 Red. masses --      2.1372                 3.4726                 2.4052
 Frc consts  --      0.0900                 0.1620                 0.1381
 IR Inten    --     16.8701                 2.7057                 1.2149

                     16                     17                     18
                      A                      A                      A
 Frequencies --    334.6790               353.3104               378.6069
 Red. masses --      2.0741                 2.6845                 3.3420
 Frc consts  --      0.1369                 0.1974                 0.2823
 IR Inten    --      0.7766                 1.2404                 1.1852

                     19                     20                     21
                      A                      A                      A
 Frequencies --    406.0678               417.1585               422.0887
 Red. masses --      2.5631                 3.0113                 2.8775
 Frc consts  --      0.2490                 0.3088                 0.3020
 IR Inten    --      1.2091                 1.1890                 7.8707

                     22                     23                     24
                      A                      A                      A
 Frequencies --    458.0057               475.7255               477.8791
 Red. masses --      3.3970                 3.5473                 2.3578
 Frc consts  --      0.4198                 0.4730                 0.3172
 IR Inten    --      0.1830                 4.8950                 1.9723

                     25                     26                     27
                      A                      A                      A
 Frequencies --    542.8177               556.0280               585.3448
 Red. masses --      3.0630                 2.1594                 2.1181
 Frc consts  --      0.5318                 0.3933                 0.4276
 IR Inten    --     43.5892                26.8422                 3.7812

                     28                     29                     30
                      A                      A                      A
 Frequencies --    640.3867               659.0128               670.3092
 Red. masses --      1.7309                 6.4282                 2.9955
 Frc consts  --      0.4182                 1.6448                 0.7930
 IR Inten    --    179.9790                 3.5958                 1.8474

                     31                     32                     33
                      A                      A                      A
 Frequencies --    738.4008               761.5159               798.1762
 Red. masses --      4.0348                 2.7399                 1.1801
 Frc consts  --      1.2962                 0.9361                 0.4430
 IR Inten    --      1.6247                15.2981                 1.5903

                     34                     35                     36
                      A                      A                      A
 Frequencies --    807.9176               824.1215               834.1751
 Red. masses --      2.5775                 1.2704                 1.7525
 Frc consts  --      0.9913                 0.5084                 0.7185
 IR Inten    --     20.2835                 0.4547                45.2567

                     37                     38                     39
                      A                      A                      A
 Frequencies --    843.3562               873.4025               882.0629
 Red. masses --      2.6116                 2.5921                 2.2175
 Frc consts  --      1.0944                 1.1650                 1.0165
 IR Inten    --      8.6025                15.3486                23.6158

                     40                     41                     42
                      A                      A                      A
 Frequencies --    893.8198               924.3145               943.4649
 Red. masses --      2.2691                 1.8714                 1.3163
 Frc consts  --      1.0681                 0.9420                 0.6903
 IR Inten    --     10.7666                45.4066                 0.1331

                     43                     44                     45
                      A                      A                      A
 Frequencies --    944.9916               960.7105               979.2618
 Red. masses --      1.2935                 1.8818                 1.8497
 Frc consts  --      0.6806                 1.0233                 1.0451
 IR Inten    --      0.1256                 2.8975                 1.0173

                     46                     47                     48
                      A                      A                      A
 Frequencies --    981.2579              1002.2708              1018.9973
 Red. masses --      2.1402                 2.1300                 1.7267
 Frc consts  --      1.2142                 1.2607                 1.0563
 IR Inten    --      2.2206                12.7028                 5.8528

                     49                     50                     51
                      A                      A                      A
 Frequencies --   1034.0549              1039.1347              1078.0944
 Red. masses --      2.1477                 2.1856                 1.5334
 Frc consts  --      1.3531                 1.3904                 1.0501
 IR Inten    --     10.4629                 6.5434                 1.5512

                     52                     53                     54
                      A                      A                      A
 Frequencies --   1092.9346              1094.7069              1107.8188
 Red. masses --      2.1170                 1.9004                 2.4608
 Frc consts  --      1.4899                 1.3418                 1.7794
 IR Inten    --     10.3600                12.0990                19.8103

                     55                     56                     57
                      A                      A                      A
 Frequencies --   1138.7320              1150.4812              1154.6801
 Red. masses --      3.7868                 3.0523                 1.4954
 Frc consts  --      2.8931                 2.3803                 1.1747
 IR Inten    --     99.3130                15.7827                11.8478

                     58                     59                     60
                      A                      A                      A
 Frequencies --   1169.8688              1188.4422              1208.3692
 Red. masses --      2.3419                 2.1708                 2.0927
 Frc consts  --      1.8884                 1.8064                 1.8003
 IR Inten    --     17.0579                45.3882                 7.8788

                     61                     62                     63
                      A                      A                      A
 Frequencies --   1221.0287              1243.6418              1245.8936
 Red. masses --      1.1530                 1.3273                 1.9051
 Frc consts  --      1.0128                 1.2096                 1.7423
 IR Inten    --     16.1017                 8.8235                 6.2363

                     64                     65                     66
                      A                      A                      A
 Frequencies --   1270.5511              1287.9329              1301.3985
 Red. masses --      1.3876                 1.3590                 1.5557
 Frc consts  --      1.3198                 1.3282                 1.5524
 IR Inten    --      9.8338                 3.1893                61.1034

                     67                     68                     69
                      A                      A                      A
 Frequencies --   1306.4783              1336.0086              1349.5246
 Red. masses --      1.8903                 1.3238                 1.2642
 Frc consts  --      1.9010                 1.3922                 1.3565
 IR Inten    --     60.4127                10.9006                 0.1198

                     70                     71                     72
                      A                      A                      A
 Frequencies --   1352.4835              1362.1325              1370.9621
 Red. masses --      1.5502                 1.5438                 1.8903
 Frc consts  --      1.6707                 1.6876                 2.0933
 IR Inten    --     32.2357                22.1206                 9.9694

                     73                     74                     75
                      A                      A                      A
 Frequencies --   1374.6005              1383.8928              1393.2827
 Red. masses --      1.5093                 1.3258                 1.3833
 Frc consts  --      1.6803                 1.4960                 1.5821
 IR Inten    --     10.0287                 1.6239                10.1033

                     76                     77                     78
                      A                      A                      A
 Frequencies --   1408.0612              1413.6466              1420.9064
 Red. masses --      1.3046                 1.3201                 1.4285
 Frc consts  --      1.5240                 1.5543                 1.6993
 IR Inten    --      6.0393                 5.9689                 5.1527

                     79                     80                     81
                      A                      A                      A
 Frequencies --   1434.7357              1434.9932              1443.4724
 Red. masses --      1.2406                 1.2279                 1.3827
 Frc consts  --      1.5047                 1.4897                 1.6975
 IR Inten    --      7.9707                 0.6652                 1.2018

                     82                     83                     84
                      A                      A                      A
 Frequencies --   1462.6230              1499.1962              1502.2826
 Red. masses --      2.1906                 1.1268                 1.0916
 Frc consts  --      2.7611                 1.4921                 1.4515
 IR Inten    --     14.6513                15.7032                 6.7292

                     85                     86                     87
                      A                      A                      A
 Frequencies --   1509.2274              1516.8750              1519.2115
 Red. masses --      1.1193                 1.0656                 1.1243
 Frc consts  --      1.5021                 1.4446                 1.5289
 IR Inten    --     19.9779                 0.6435                32.3552

                     88                     89                     90
                      A                      A                      A
 Frequencies --   1522.6245              1524.1593              1525.6356
 Red. masses --      1.1406                 1.1063                 1.0414
 Frc consts  --      1.5580                 1.5142                 1.4281
 IR Inten    --     30.6131                 1.2291                 6.7153

                     91                     92                     93
                      A                      A                      A
 Frequencies --   1529.9233              1537.8085              1545.2863
 Red. masses --      1.0527                 1.0807                 1.4523
 Frc consts  --      1.4517                 1.5058                 2.0433
 IR Inten    --      6.4278                 2.0936                12.3193

                     94                     95                     96
                      A                      A                      A
 Frequencies --   1572.2129              1640.8661              1682.0469
 Red. masses --      2.5639                 4.6358                 5.8751
 Frc consts  --      3.7339                 7.3539                 9.7936
 IR Inten    --    160.8082                 4.7416                87.6553

                     97                     98                     99
                      A                      A                      A
 Frequencies --   2967.8800              2981.6310              3023.8769
 Red. masses --      1.0710                 1.0692                 1.0790
 Frc consts  --      5.5582                 5.6004                 5.8132
 IR Inten    --     38.4985                66.3517                29.5227

                    100                    101                    102
                      A                      A                      A
 Frequencies --   3037.9942              3040.2550              3042.2700
 Red. masses --      1.0649                 1.0600                 1.0611
 Frc consts  --      5.7909                 5.7727                 5.7865
 IR Inten    --     19.9881                43.8559                63.9963

                    103                    104                    105
                      A                      A                      A
 Frequencies --   3045.8620              3047.5361              3068.0964
 Red. masses --      1.0346                 1.0399                 1.0837
 Frc consts  --      5.6550                 5.6901                 6.0102
 IR Inten    --     42.1785                27.1423                14.5206

                    106                    107                    108
                      A                      A                      A
 Frequencies --   3074.1896              3082.8668              3088.9142
 Red. masses --      1.1036                 1.0984                 1.0954
 Frc consts  --      6.1449                 6.1509                 6.1577
 IR Inten    --     11.1776                 9.8812                82.3359

                    109                    110                    111
                      A                      A                      A
 Frequencies --   3089.5443              3099.0006              3114.6547
 Red. masses --      1.1034                 1.0946                 1.1015
 Frc consts  --      6.2057                 6.1937                 6.2958
 IR Inten    --     22.4494                65.8993                42.0937

                    112                    113                    114
                      A                      A                      A
 Frequencies --   3115.1854              3120.6554              3133.8492
 Red. masses --      1.1026                 1.1034                 1.1014
 Frc consts  --      6.3044                 6.3309                 6.3731
 IR Inten    --     56.5177                35.4179                25.8654

                    115                    116                    117
                      A                      A                      A
 Frequencies --   3163.7306              3173.1381              3182.6180
 Red. masses --      1.0864                 1.0886                 1.0940
 Frc consts  --      6.4068                 6.4580                 6.5290
 IR Inten    --     20.3724                22.2772                22.2739

                    118                    119                    120
                      A                      A                      A
 Frequencies --   3212.7299              3455.4962              3537.0928
 Red. masses --      1.0912                 1.0735                 1.0748
 Frc consts  --      6.6359                 7.5521                 7.9226
 IR Inten    --     17.8751                39.6332                 5.9612

 - Thermochemistry -
 -------------------
 Temperature   298.150 Kelvin.  Pressure   1.00000 Atm.
 Atom     1 has atomic number  6 and mass  12.00000

 Molecular mass:   248.18886 amu.
 Principal axes and moments of inertia in atomic units:
                           1         2         3
     Eigenvalues --  2607.637569477.91270**********
           X            0.99990   0.01332   0.00456
           Y           -0.01324   0.99975  -0.01787
           Z           -0.00480   0.01781   0.99983
 This molecule is an asymmetric top.
 Rotational symmetry number  1.
 Warning -- assumption of classical behavior for rotation
           may cause significant error
 Rotational temperatures (Kelvin)      0.03322     0.00914     0.00815
 Rotational constants (GHZ):           0.69210     0.19042     0.16989
 Zero-point vibrational energy     989998.1 (Joules/Mol)
                                  236.61522 (Kcal/Mol)
 Warning -- explicit consideration of  27 degrees of freedom as
           vibrations may cause significant error
 Vibrational temperatures:     30.29    41.47    59.03    61.99   121.78
          (Kelvin)            153.19   189.28   190.74   231.59   321.72
                              343.41   359.25   384.68   404.81   449.22
                              481.53   508.33   544.73   584.24   600.20
                              607.29   658.97   684.46   687.56   780.99
                              800.00   842.18   921.37   948.17   964.43
                             1062.39  1095.65  1148.40  1162.41  1185.73
                             1200.19  1213.40  1256.63  1269.09  1286.01
                             1329.88  1357.44  1359.63  1382.25  1408.94
                             1411.81  1442.04  1466.11  1487.77  1495.08
                             1551.14  1572.49  1575.04  1593.90  1638.38
                             1655.29  1661.33  1683.18  1709.90  1738.57
                             1756.79  1789.32  1792.56  1828.04  1853.05
                             1872.42  1879.73  1922.22  1941.66  1945.92
                             1959.80  1972.51  1977.74  1991.11  2004.62
                             2025.89  2033.92  2044.37  2064.26  2064.64
                             2076.83  2104.39  2157.01  2161.45  2171.44
                             2182.44  2185.81  2190.72  2192.93  2195.05
                             2201.22  2212.56  2223.32  2262.06  2360.84
                             2420.09  4270.12  4289.90  4350.68  4371.00
                             4374.25  4377.15  4382.32  4384.72  4414.31
                             4423.07  4435.56  4444.26  4445.17  4458.77
                             4481.29  4482.06  4489.93  4508.91  4551.90
                             4565.44  4579.08  4622.40  4971.69  5089.09

 Zero-point correction=                           0.377070 (Hartree/Particle)
 Thermal correction to Energy=                    0.394907
 Thermal correction to Enthalpy=                  0.395851
 Thermal correction to Gibbs Free Energy=         0.329482
 Sum of electronic and zero-point Energies=           -770.467363
 Sum of electronic and thermal Energies=              -770.449527
 Sum of electronic and thermal Enthalpies=            -770.448583
 Sum of electronic and thermal Free Energies=         -770.514952

                     E (Thermal)             CV                S
                      KCal/Mol        Cal/Mol-Kelvin    Cal/Mol-Kelvin
 Total                  247.808             69.310            139.686
 Electronic               0.000              0.000              0.000
 Translational            0.889              2.981             42.428
 Rotational               0.889              2.981             33.928
 Vibrational            246.030             63.348             63.330
 Vibration     1          0.593              1.985              6.533
 Vibration     2          0.593              1.984              5.909
 Vibration     3          0.594              1.981              5.209
 Vibration     4          0.595              1.980              5.112
 Vibration     5          0.601              1.960              3.780
 Vibration     6          0.605              1.944              3.332
 Vibration     7          0.612              1.922              2.923
 Vibration     8          0.613              1.921              2.908
 Vibration     9          0.622              1.890              2.538
 Vibration    10          0.649              1.805              1.930
 Vibration    11          0.657              1.781              1.813
 Vibration    12          0.662              1.763              1.733
 Vibration    13          0.672              1.733              1.613
 Vibration    14          0.681              1.708              1.525
 Vibration    15          0.701              1.650              1.351
 Vibration    16          0.716              1.606              1.237
 Vibration    17          0.730              1.568              1.151
 Vibration    18          0.749              1.516              1.045
 Vibration    19          0.771              1.457              0.941
 Vibration    20          0.780              1.433              0.902
 Vibration    21          0.784              1.422              0.885
 Vibration    22          0.816              1.343              0.772
 Vibration    23          0.832              1.304              0.722
 Vibration    24          0.834              1.299              0.716
 Vibration    25          0.898              1.155              0.559
 Vibration    26          0.912              1.127              0.532
 Vibration    27          0.942              1.063              0.476

 Optimization completed.
    -- Stationary point found.
 Normal termination of Gaussian 16 at Fri Dec 11 20:59:26 2020.

 ----------------------------------------------------------------------
 # B3LYP/6-311++G(d,p) empiricaldispersion=gd3bj scf=xqc pop=npa geom=c
 heck
 ----------------------------------------------------------------------

 ---------------------------------------
 CID_116008259_JID_8461_Energie_neutraal
 ---------------------------------------
 Structure from the checkpoint file:  "JID_8461.chk"
 Charge =  0 Multiplicity = 1

 SCF Done:  E(RB3LYP) =  -771.058975251     A.U. after   14 cycles
 Normal termination of Gaussian 16 at Fri Dec 11 21:08:14 2020.

 ----------------------------------------------------------------------
 # B3LYP/6-311++G(d,p) empiricaldispersion=gd3bj scf=xqc pop=npa geom=c
 heck
 ----------------------------------------------------------------------

 -------------------------------------
 CID_116008259_JID_8461_Energie_kation
 -------------------------------------
 Structure from the checkpoint file:  "JID_8461.chk"
 Charge =  1 Multiplicity = 2

 SCF Done:  E(UB3LYP) =  -770.798038028     A.U. after   21 cycles
 Normal termination of Gaussian 16 at Fri Dec 11 21:27:17 2020.
 Gaussian 16:  ES64L-G16RevA.03 25-Dec-2016

 ----------------------------------------------------------------------
 # B3LYP/6-311++G(d,p) empiricaldispersion=gd3bj scf=xqc pop=npa geom=c
 heck
 ----------------------------------------------------------------------

 ------------------------------------
 CID_116008259_JID_8461_Energie_anion
 ------------------------------------
 Structure from the checkpoint file:  "JID_8461.chk"
 Charge = -1 Multiplicity = 2

                         Standard orientation:
 ---------------------------------------------------------------------
 Center     Atomic      Atomic             Coordinates (Angstroms)
 Number     Number       Type             X           Y           Z
 ---------------------------------------------------------------------
      1          6           0       -5.383264   -2.053724   -0.444087
      2          6           0       -5.251325   -0.534489   -0.247595
      3          6           0       -3.820538   -0.103118   -0.024216
      4          6           0       -2.993414    0.259232   -1.090971
      5          6           0       -1.658347    0.612619   -0.902527
      6          6           0       -1.098759    0.611199    0.385361
      7          6           0       -1.926524    0.253379    1.463917
      8          6           0       -3.254904   -0.097793    1.257385
      9          7           0        0.253195    0.894038    0.622448
     10          6           0        1.029134    1.759783   -0.272356
     11          6           0        0.492712    3.198127   -0.309628
     12          6           0        2.507890    1.735077    0.145179
     13          6           0        3.228007    0.379857    0.109652
     14          6           0        3.153260   -0.320528   -1.254502
     15          8           0        3.897787   -1.532838   -1.243568
     16          6           0        3.410043   -2.431491   -0.253615
     17          6           0        3.468905   -1.795176    1.136382
     18          7           0        2.773674   -0.505537    1.194189
     19          1           0       -4.799384   -2.384613   -1.310241
     20          1           0       -6.428086   -2.345004   -0.602988
     21          1           0       -5.007219   -2.592551    0.432850
     22          1           0       -5.658832   -0.019741   -1.126825
     23          1           0       -5.868083   -0.226380    0.606392
     24          1           0       -3.401276    0.271627   -2.099528
     25          1           0       -1.057148    0.888816   -1.761849
     26          1           0       -1.515493    0.252958    2.471491
     27          1           0       -3.869920   -0.367589    2.113327
     28          1           0        0.439895    1.102008    1.598775
     29          1           0        0.948711    1.333888   -1.278101
     30          1           0        0.611163    3.674811    0.671170
     31          1           0        1.033322    3.801496   -1.047684
     32          1           0       -0.570502    3.209798   -0.567224
     33          1           0        3.045779    2.432103   -0.509427
     34          1           0        2.596035    2.134598    1.165062
     35          1           0        4.293456    0.574160    0.299595
     36          1           0        2.101923   -0.535225   -1.512091
     37          1           0        3.586262    0.296920   -2.049508
     38          1           0        4.036784   -3.327161   -0.317680
     39          1           0        2.368852   -2.717515   -0.488148
     40          1           0        4.519903   -1.629543    1.407487
     41          1           0        3.034355   -2.468782    1.884932
     42          1           0        1.771877   -0.653611    1.062018
 ---------------------------------------------------------------------

 SCF Done:  E(UB3LYP) =  -771.045828968     A.U. after   33 cycles
 SCF Done:  E(UB3LYP) =  -771.045828968     a.u. after    1 cycles

 The electronic state is 2-A.
 Alpha  occ. eigenvalues --  -19.04192 -14.23068 -14.20843 -10.13269 -10.12707
 Alpha  occ. eigenvalues --  -10.12206 -10.11958 -10.11227 -10.10995 -10.08403
 Alpha  occ. eigenvalues --  -10.07986 -10.07873 -10.07830 -10.07731 -10.07648
 Alpha  occ. eigenvalues --  -10.07545 -10.07035 -10.06899  -0.95727  -0.84966
 Alpha  occ. eigenvalues --   -0.81936  -0.75924  -0.71377  -0.68943  -0.66959
 Alpha  occ. eigenvalues --   -0.65296  -0.62003  -0.61568  -0.58698  -0.55203
 Alpha  occ. eigenvalues --   -0.53575  -0.53167  -0.51002  -0.48899  -0.48181
 Alpha  occ. eigenvalues --   -0.43971  -0.41127  -0.40467  -0.39139  -0.38423
 Alpha  occ. eigenvalues --   -0.38263  -0.37379  -0.37245  -0.35920  -0.34774
 Alpha  occ. eigenvalues --   -0.33605  -0.33160  -0.32607  -0.32161  -0.31954
 Alpha  occ. eigenvalues --   -0.30500  -0.29859  -0.29246  -0.29125  -0.28007
 Alpha  occ. eigenvalues --   -0.27854  -0.26640  -0.25871  -0.25417  -0.24673
 Alpha  occ. eigenvalues --   -0.24460  -0.24025  -0.23903  -0.19943  -0.19383
 Alpha  occ. eigenvalues --   -0.16176  -0.13410  -0.11053   0.04000
 Alpha virt. eigenvalues --    0.05552   0.06049   0.06625   0.07131   0.07631
 Alpha virt. eigenvalues --    0.07772   0.08077   0.08293   0.09105   0.09166
 Alpha virt. eigenvalues --    0.09221   0.09945   0.10072   0.10643   0.11219

  Beta  occ. eigenvalues --  -19.04188 -14.23058 -14.20841 -10.13262 -10.12693
  Beta  occ. eigenvalues --  -10.12199 -10.11943 -10.11222 -10.10987 -10.08382
  Beta  occ. eigenvalues --  -10.07972 -10.07860 -10.07815 -10.07725 -10.07639
  Beta  occ. eigenvalues --  -10.07539 -10.07010 -10.06868  -0.95719  -0.84944
  Beta  occ. eigenvalues --   -0.81926  -0.75901  -0.71350  -0.68916  -0.66931
  Beta  occ. eigenvalues --   -0.65268  -0.61969  -0.61529  -0.58674  -0.55164
  Beta  occ. eigenvalues --   -0.53532  -0.53130  -0.50971  -0.48864  -0.48144
  Beta  occ. eigenvalues --   -0.43937  -0.41107  -0.40446  -0.39116  -0.38400
  Beta  occ. eigenvalues --   -0.38228  -0.37358  -0.37221  -0.35892  -0.34741
  Beta  occ. eigenvalues --   -0.33564  -0.33129  -0.32578  -0.32132  -0.31915
  Beta  occ. eigenvalues --   -0.30475  -0.29830  -0.29224  -0.29088  -0.27985
  Beta  occ. eigenvalues --   -0.27815  -0.26603  -0.25845  -0.25384  -0.24639
  Beta  occ. eigenvalues --   -0.24436  -0.24003  -0.23883  -0.19909  -0.19365
  Beta  occ. eigenvalues --   -0.16145  -0.13401  -0.11018
  Beta virt. eigenvalues --    0.05826   0.06243   0.06673   0.07133   0.07410
  Beta virt. eigenvalues --    0.07730   0.08020   0.08380   0.08544   0.09279
  Beta virt. eigenvalues --    0.09382   0.09488   0.10185   0.10375   0.10755

 Mulliken charges and spin densities:
               1          2
     1  C    0.714934  -1.337960
     2  C    0.049888  -0.469354
     3  C    0.214922   0.674801
     4  C   -1.538311   1.000224
     5  C    0.218641  -0.401068
     6  C    2.393199  -2.588809
     7  C    0.095567  -0.175352
     8  C   -1.231002   0.695607
     9  N    0.122886   0.029673
    10  C   -0.995082   1.308290
    11  C    1.048561  -1.681807
    12  C    0.794278  -1.541256
    13  C   -1.187678   1.235994
    14  C    0.023305  -0.627961
    15  O   -0.115688   0.017338
    16  C   -0.040019  -0.224393
    17  C   -0.218021   0.027005
    18  N   -0.094861  -0.066708
    19  H   -0.013004   0.151089
    20  H   -0.229405   0.351425
    21  H   -0.065180   0.203586
    22  H   -0.182094   0.327718
    23  H   -0.170993   0.315372
    24  H   -0.147846   0.328158
    25  H   -0.373895   0.526749
    26  H   -0.626078   0.758158
    27  H   -0.125146   0.294286
    28  H    0.359776  -0.122650
    29  H    0.178398  -0.085981
    30  H   -0.047567   0.206743
    31  H   -0.447484   0.595711
    32  H    0.159309  -0.027623
    33  H   -0.156486   0.331557
    34  H   -0.021310   0.202894
    35  H   -0.035596   0.235729
    36  H    0.254800  -0.080058
    37  H   -0.188128   0.380551
    38  H    0.030867   0.130728
    39  H    0.077887   0.033944
    40  H    0.073211   0.067979
    41  H   -0.062669   0.216587
    42  H    0.503112  -0.216915
 Sum of Mulliken charges =  -1.00000   1.00000

 Dipole moment (field-independent basis, Debye):
    X=              3.5662    Y=             -1.9752    Z=              1.1056  Tot=              4.2239
 Quadrupole moment (field-independent basis, Debye-Ang):
   XX=           -219.9655   YY=           -163.0079   ZZ=           -154.4929
   XY=            -13.7106   XZ=              5.0296   YZ=              2.7773

 Summary of Natural Population Analysis:

                                       Natural Population
                Natural  -----------------------------------------------
    Atom  No    Charge         Core      Valence    Rydberg      Total
 -----------------------------------------------------------------------
      C    1   -0.27904      0.99966     2.27500    0.00438     3.27904
      C    2   -0.19546      0.99961     2.18697    0.00888     3.19546
      C    3   -0.03496      0.99950     2.02490    0.01056     3.03496
      C    4   -0.08719      0.99952     2.07885    0.00883     3.08719
      C    5   -0.12933      0.99952     2.12069    0.00913     3.12933
      C    6    0.08286      0.99951     1.90509    0.01254     2.91714
      C    7   -0.09765      0.99953     2.09303    0.00509     3.09765
      C    8   -0.09883      0.99954     2.08652    0.01277     3.09883
      N    9   -0.32975      0.99968     2.81719    0.01288     3.82975
      C   10   -0.01107      0.99959     1.99941    0.01207     3.01107
      C   11   -0.29159      0.99964     2.28632    0.00562     3.29159
      C   12   -0.19265      0.99959     2.18215    0.01091     3.19265
      C   13   -0.02413      0.99959     2.01045    0.01410     3.02413
      C   14   -0.01957      0.99954     2.00652    0.01351     3.01957
      O   15   -0.30015      0.99989     3.29085    0.00941     4.30015
      C   16   -0.01882      0.99958     2.00819    0.01104     3.01882
      C   17   -0.10189      0.99963     2.09246    0.00979     3.10189
      N   18   -0.34652      0.99975     2.83392    0.01285     3.84652
      H   19    0.09641      0.00000     0.40222    0.00137     0.40359
      H   20    0.09604      0.00000     0.40240    0.00155     0.40396
      H   21    0.09661      0.00000     0.40202    0.00137     0.40339
      H   22    0.09810      0.00000     0.40057    0.00133     0.40190
      H   23    0.09814      0.00000     0.40050    0.00136     0.40186
      H   24    0.09891      0.00000     0.40001    0.00108     0.40109
      H   25    0.10180      0.00000     0.39663    0.00158     0.39820
      H   26    0.09622      0.00000     0.40216    0.00162     0.40378
      H   27    0.09942      0.00000     0.39945    0.00113     0.40058
      H   28    0.18405      0.00000     0.31324    0.00271     0.31595
      H   29    0.09275      0.00000     0.40463    0.00262     0.40725
      H   30    0.09745      0.00000     0.40135    0.00121     0.40255
      H   31    0.10282      0.00000     0.39582    0.00136     0.39718
      H   32    0.10565      0.00000     0.39319    0.00116     0.39435
      H   33    0.10684      0.00000     0.39191    0.00125     0.39316
      H   34    0.10263      0.00000     0.39582    0.00155     0.39737
      H   35    0.09390      0.00000     0.40424    0.00186     0.40610
      H   36    0.07909      0.00000     0.41922    0.00169     0.42091
      H   37    0.09388      0.00000     0.40462    0.00150     0.40612
      H   38    0.08929      0.00000     0.40944    0.00127     0.41071
      H   39    0.07691      0.00000     0.42147    0.00162     0.42309
      H   40    0.09008      0.00000     0.40854    0.00137     0.40992
      H   41    0.09591      0.00000     0.40300    0.00109     0.40409
      H   42    0.18291      0.00000     0.31381    0.00329     0.31709
 =======================================================================
   * Total *    0.00004     17.99289    49.78476    0.22231    67.99996

 Normal termination of Gaussian 16 at Fri Dec 11 21:56:43 2020.
