 Gaussian 16, Revision A.03,

 -----------------------------------------------------------
 # opt freq B3LYP/6-31G(d) empiricaldispersion=gd3bj scf=xqc
 -----------------------------------------------------------

 ------------------------------
 CID_89323400_JID_6748_neutraal
 ------------------------------
 Symbolic Z-matrix:
 Charge =  0 Multiplicity = 1

 SCF Done:  E(RB3LYP) =  -708.205502184     A.U. after   14 cycles
 SCF Done:  E(RB3LYP) =  -708.210208738     A.U. after   12 cycles
 SCF Done:  E(RB3LYP) =  -708.210789183     A.U. after   12 cycles
 SCF Done:  E(RB3LYP) =  -708.211048765     A.U. after   11 cycles
 SCF Done:  E(RB3LYP) =  -708.211199979     A.U. after   11 cycles
 SCF Done:  E(RB3LYP) =  -708.211296732     A.U. after   11 cycles
 SCF Done:  E(RB3LYP) =  -708.211388619     A.U. after   11 cycles
 SCF Done:  E(RB3LYP) =  -708.211420383     A.U. after   11 cycles
 SCF Done:  E(RB3LYP) =  -708.211567904     A.U. after   11 cycles
 SCF Done:  E(RB3LYP) =  -708.212290061     A.U. after   13 cycles
 SCF Done:  E(RB3LYP) =  -708.212857193     A.U. after   11 cycles
 SCF Done:  E(RB3LYP) =  -708.212858706     A.U. after    8 cycles
 SCF Done:  E(RB3LYP) =  -708.212859697     A.U. after    8 cycles
 SCF Done:  E(RB3LYP) =  -708.212859935     A.U. after    7 cycles
 SCF Done:  E(RB3LYP) =  -708.212860112     A.U. after    8 cycles
 SCF Done:  E(RB3LYP) =  -708.212860166     A.U. after    7 cycles
 Optimization completed.
    -- Stationary point found.
 Normal termination of Gaussian 16 at Thu Dec 10 23:30:26 2020.

 --------------------------------------------------------------------
 #N Geom=AllCheck Guess=TCheck SCRF=Check GenChk RB3LYP/6-31G(d) Freq
 --------------------------------------------------------------------

 Structure from the checkpoint file:  "JID_6748.chk"
 ------------------------------
 CID_89323400_JID_6748_neutraal
 ------------------------------
 Charge =  0 Multiplicity = 1

 SCF Done:  E(RB3LYP) =  -708.212860166     A.U. after    1 cycles

  Exact polarizability: 194.118  -1.344 159.722  -2.524   0.590  94.911
 Approx polarizability: 280.045  -4.223 248.461  -2.233   1.164 140.122

                      1                      2                      3
                      A                      A                      A
 Frequencies --     74.5964                75.8959               110.9041
 Red. masses --      3.4963                 4.2987                 3.0450
 Frc consts  --      0.0115                 0.0146                 0.0221
 IR Inten    --      1.0109                 1.3033                 1.4808

                      4                      5                      6
                      A                      A                      A
 Frequencies --    158.7137               168.4796               181.8897
 Red. masses --      1.0966                 1.9641                 3.1405
 Frc consts  --      0.0163                 0.0328                 0.0612
 IR Inten    --     32.5406                 1.4316                 1.3299

                      7                      8                      9
                      A                      A                      A
 Frequencies --    198.6318               217.6396               227.5455
 Red. masses --      1.2738                 1.1991                 1.8228
 Frc consts  --      0.0296                 0.0335                 0.0556
 IR Inten    --      2.2112                 1.1021                 1.3899

                     10                     11                     12
                      A                      A                      A
 Frequencies --    253.8561               255.2458               260.0780
 Red. masses --      1.6538                 1.5323                 2.0221
 Frc consts  --      0.0628                 0.0588                 0.0806
 IR Inten    --     26.1841                 5.9310                 7.3375

                     13                     14                     15
                      A                      A                      A
 Frequencies --    271.9427               284.5147               289.5483
 Red. masses --      1.8324                 1.3868                 1.8373
 Frc consts  --      0.0798                 0.0661                 0.0908
 IR Inten    --      0.7081                56.6963                35.6303

                     16                     17                     18
                      A                      A                      A
 Frequencies --    304.6910               316.9500               327.6821
 Red. masses --      4.0289                 3.2346                 2.8076
 Frc consts  --      0.2204                 0.1915                 0.1776
 IR Inten    --      9.1842                48.5792                13.1144

                     19                     20                     21
                      A                      A                      A
 Frequencies --    336.0315               356.6391               402.5468
 Red. masses --      2.3250                 1.0865                 3.4813
 Frc consts  --      0.1547                 0.0814                 0.3324
 IR Inten    --      0.2401                54.4455                 6.1531

                     22                     23                     24
                      A                      A                      A
 Frequencies --    413.1545               432.0186               434.8046
 Red. masses --      6.5738                 2.7414                 3.0547
 Frc consts  --      0.6611                 0.3015                 0.3403
 IR Inten    --      1.2768                10.9694                17.6656

                     25                     26                     27
                      A                      A                      A
 Frequencies --    503.5987               509.9190               567.5919
 Red. masses --      1.8332                 2.4606                 3.2403
 Frc consts  --      0.2739                 0.3770                 0.6150
 IR Inten    --    130.0794                49.8272                17.9713

                     28                     29                     30
                      A                      A                      A
 Frequencies --    568.7616               602.1000               611.8572
 Red. masses --      3.3945                 3.4229                 4.3037
 Frc consts  --      0.6470                 0.7311                 0.9493
 IR Inten    --      3.5888                11.3406                10.7369

                     31                     32                     33
                      A                      A                      A
 Frequencies --    678.7453               686.0779               700.2829
 Red. masses --      4.5624                 3.4287                 4.8251
 Frc consts  --      1.2384                 0.9509                 1.3941
 IR Inten    --      6.4058                25.9283                 8.3962

                     34                     35                     36
                      A                      A                      A
 Frequencies --    754.5360               771.8669               834.7128
 Red. masses --      4.0376                 4.1838                 2.4853
 Frc consts  --      1.3543                 1.4686                 1.0202
 IR Inten    --      0.9351                 2.2839                49.1347

                     37                     38                     39
                      A                      A                      A
 Frequencies --    841.9429               866.1469               873.2213
 Red. masses --      1.4326                 1.5711                 2.2819
 Frc consts  --      0.5983                 0.6944                 1.0252
 IR Inten    --    103.5877                13.9986                28.1306

                     40                     41                     42
                      A                      A                      A
 Frequencies --    885.5276               941.7204               942.8704
 Red. masses --      1.7330                 1.5441                 1.5562
 Frc consts  --      0.8007                 0.8068                 0.8151
 IR Inten    --     72.1277                 0.0987                 0.8336

                     43                     44                     45
                      A                      A                      A
 Frequencies --    965.3943              1020.1516              1025.4558
 Red. masses --      2.0101                 1.5201                 1.3719
 Frc consts  --      1.1038                 0.9321                 0.8500
 IR Inten    --      1.2491                 0.8833                11.5955

                     46                     47                     48
                      A                      A                      A
 Frequencies --   1033.4434              1038.3486              1068.3474
 Red. masses --      3.9900                 2.5457                 2.1844
 Frc consts  --      2.5107                 1.6172                 1.4690
 IR Inten    --     49.8072                 0.4459                 3.5600

                     49                     50                     51
                      A                      A                      A
 Frequencies --   1108.6369              1152.3229              1163.3065
 Red. masses --      1.5395                 1.5858                 1.5273
 Frc consts  --      1.1149                 1.2406                 1.2178
 IR Inten    --      2.0501                12.8650                 1.4484

                     52                     53                     54
                      A                      A                      A
 Frequencies --   1192.3851              1198.4058              1201.9277
 Red. masses --      2.3596                 2.9121                 3.4311
 Frc consts  --      1.9766                 2.4641                 2.9204
 IR Inten    --     21.8034                20.5765                 2.6828

                     55                     56                     57
                      A                      A                      A
 Frequencies --   1236.9829              1241.0253              1293.6879
 Red. masses --      2.8125                 2.5006                 2.3105
 Frc consts  --      2.5355                 2.2691                 2.2783
 IR Inten    --      6.9929                27.6123                 5.1081

                     58                     59                     60
                      A                      A                      A
 Frequencies --   1309.4256              1323.1647              1373.7893
 Red. masses --      2.2745                 2.3065                 1.4135
 Frc consts  --      2.2977                 2.3792                 1.5718
 IR Inten    --     23.3059                 3.2689               142.5210

                     61                     62                     63
                      A                      A                      A
 Frequencies --   1378.2282              1392.8609              1412.6261
 Red. masses --      4.1386                 3.5453                 1.2507
 Frc consts  --      4.6317                 4.0524                 1.4705
 IR Inten    --      2.0769                68.5025                 0.0197

                     64                     65                     66
                      A                      A                      A
 Frequencies --   1419.3215              1432.0907              1439.2421
 Red. masses --      1.2664                 1.2434                 1.2262
 Frc consts  --      1.5031                 1.5024                 1.4965
 IR Inten    --     17.7382                 9.5194                 1.0203

                     67                     68                     69
                      A                      A                      A
 Frequencies --   1492.0433              1503.9943              1511.8156
 Red. masses --      3.9166                 1.0494                 1.0499
 Frc consts  --      5.1371                 1.3985                 1.4139
 IR Inten    --     20.2048                 0.0200                 1.7593

                     70                     71                     72
                      A                      A                      A
 Frequencies --   1512.0838              1518.2773              1526.1478
 Red. masses --      1.0513                 1.0520                 1.0850
 Frc consts  --      1.4162                 1.4287                 1.4890
 IR Inten    --      1.3898                 3.0038                 3.2524

                     73                     74                     75
                      A                      A                      A
 Frequencies --   1532.2430              1534.4764              1539.7046
 Red. masses --      1.0768                 1.1005                 1.0796
 Frc consts  --      1.4895                 1.5267                 1.5079
 IR Inten    --      2.3396                 1.2446                 0.3710

                     76                     77                     78
                      A                      A                      A
 Frequencies --   1555.1496              1636.3282              1662.1316
 Red. masses --      3.2491                 3.3747                 1.7459
 Frc consts  --      4.6297                 5.3239                 2.8419
 IR Inten    --     96.0366                 2.3328                52.5718

                     79                     80                     81
                      A                      A                      A
 Frequencies --   1674.9665              1699.0120              3047.8124
 Red. masses --      1.6828                 1.7614                 1.0356
 Frc consts  --      2.7816                 2.9957                 5.6680
 IR Inten    --     56.1341                58.0522                26.8501

                     82                     83                     84
                      A                      A                      A
 Frequencies --   3049.2836              3063.1966              3066.5513
 Red. masses --      1.0356                 1.0374                 1.0389
 Frc consts  --      5.6731                 5.7350                 5.7562
 IR Inten    --     23.9554                30.5227                18.0176

                     85                     86                     87
                      A                      A                      A
 Frequencies --   3110.8008              3112.6478              3131.4937
 Red. masses --      1.1017                 1.1017                 1.0994
 Frc consts  --      6.2816                 6.2890                 6.3518
 IR Inten    --     16.5225                27.0904                20.9094

                     88                     89                     90
                      A                      A                      A
 Frequencies --   3136.4824              3139.4918              3140.4466
 Red. masses --      1.0975                 1.1022                 1.1023
 Frc consts  --      6.3612                 6.4006                 6.4053
 IR Inten    --     42.9901                20.7471                25.3141

                     91                     92                     93
                      A                      A                      A
 Frequencies --   3152.4729              3161.9082              3164.7656
 Red. masses --      1.1033                 1.1009                 1.0898
 Frc consts  --      6.4602                 6.4851                 6.4309
 IR Inten    --     20.1902                27.8549                25.6115

                     94                     95                     96
                      A                      A                      A
 Frequencies --   3177.6037              3459.2073              3574.4044
 Red. masses --      1.0898                 1.0542                 1.0879
 Frc consts  --      6.4830                 7.4321                 8.1893
 IR Inten    --     15.8959                 0.8301                 4.4333

                     97                     98                     99
                      A                      A                      A
 Frequencies --   3583.3285              3691.6085              3743.7922
 Red. masses --      1.0466                 1.1003                 1.0686
 Frc consts  --      7.9180                 8.8348                 8.8244
 IR Inten    --     22.3904                19.4657                33.4822

 - Thermochemistry -
 -------------------
 Temperature   298.150 Kelvin.  Pressure   1.00000 Atm.
 Atom     1 has atomic number  6 and mass  12.00000

 Molecular mass:   221.15281 amu.
 Principal axes and moments of inertia in atomic units:
                           1         2         3
     Eigenvalues --  2019.322544415.812505659.61095
           X            0.99999   0.00205  -0.00315
           Y           -0.00205   1.00000   0.00088
           Z            0.00315  -0.00088   0.99999
 This molecule is an asymmetric top.
 Rotational symmetry number  1.
 Warning -- assumption of classical behavior for rotation
           may cause significant error
 Rotational temperatures (Kelvin)      0.04289     0.01961     0.01530
 Rotational constants (GHZ):           0.89374     0.40870     0.31888
 Zero-point vibrational energy     792655.9 (Joules/Mol)
                                  189.44931 (Kcal/Mol)
 Warning -- explicit consideration of  30 degrees of freedom as
           vibrations may cause significant error
 Vibrational temperatures:    107.33   109.20   159.57   228.35   242.40
          (Kelvin)            261.70   285.79   313.13   327.39   365.24
                              367.24   374.19   391.26   409.35   416.60
                              438.38   456.02   471.46   483.47   513.12
                              579.18   594.44   621.58   625.59   724.57
                              733.66   816.64   818.32   866.29   880.33
                              976.56   987.11  1007.55  1085.61  1110.54
                             1200.97  1211.37  1246.19  1256.37  1274.08
                             1354.93  1356.58  1388.99  1467.77  1475.40
                             1486.89  1493.95  1537.11  1595.08  1657.94
                             1673.74  1715.58  1724.24  1729.31  1779.74
                             1785.56  1861.33  1883.97  1903.74  1976.58
                             1982.96  2004.02  2032.45  2042.09  2060.46
                             2070.75  2146.72  2163.91  2175.17  2175.55
                             2184.46  2195.79  2204.56  2207.77  2215.29
                             2237.51  2354.31  2391.44  2409.90  2444.50
                             4385.12  4387.24  4407.26  4412.08  4475.75
                             4478.41  4505.52  4512.70  4517.03  4518.40
                             4535.71  4549.28  4553.39  4571.86  4977.03
                             5142.77  5155.61  5311.40  5386.48

 Zero-point correction=                           0.301907 (Hartree/Particle)
 Thermal correction to Energy=                    0.318847
 Thermal correction to Enthalpy=                  0.319791
 Thermal correction to Gibbs Free Energy=         0.260204
 Sum of electronic and zero-point Energies=           -707.910953
 Sum of electronic and thermal Energies=              -707.894013
 Sum of electronic and thermal Enthalpies=            -707.893069
 Sum of electronic and thermal Free Energies=         -707.952656

                     E (Thermal)             CV                S
                      KCal/Mol        Cal/Mol-Kelvin    Cal/Mol-Kelvin
 Total                  200.079             67.306            125.411
 Electronic               0.000              0.000              0.000
 Translational            0.889              2.981             42.084
 Rotational               0.889              2.981             32.290
 Vibrational            198.302             61.344             51.038
 Vibration     1          0.599              1.966              4.028
 Vibration     2          0.599              1.965              3.994
 Vibration     3          0.607              1.940              3.253
 Vibration     4          0.621              1.893              2.565
 Vibration     5          0.625              1.881              2.452
 Vibration     6          0.630              1.864              2.309
 Vibration     7          0.637              1.842              2.146
 Vibration     8          0.646              1.814              1.979
 Vibration     9          0.651              1.799              1.898
 Vibration    10          0.665              1.756              1.704
 Vibration    11          0.666              1.754              1.694
 Vibration    12          0.668              1.746              1.661
 Vibration    13          0.675              1.725              1.584
 Vibration    14          0.683              1.702              1.506
 Vibration    15          0.686              1.693              1.477
 Vibration    16          0.696              1.665              1.391
 Vibration    17          0.704              1.641              1.326
 Vibration    18          0.711              1.620              1.271
 Vibration    19          0.717              1.604              1.231
 Vibration    20          0.732              1.562              1.137
 Vibration    21          0.768              1.465              0.953
 Vibration    22          0.777              1.442              0.916
 Vibration    23          0.793              1.400              0.852
 Vibration    24          0.795              1.394              0.843
 Vibration    25          0.859              1.242              0.649
 Vibration    26          0.865              1.228              0.634
 Vibration    27          0.924              1.101              0.509
 Vibration    28          0.925              1.099              0.507
 Vibration    29          0.960              1.027              0.446
 Vibration    30          0.971              1.007              0.430

 Optimization completed.
    -- Stationary point found.
 Normal termination of Gaussian 16 at Thu Dec 10 23:43:42 2020.

 ----------------------------------------------------------------------
 # B3LYP/6-311++G(d,p) empiricaldispersion=gd3bj scf=xqc pop=npa geom=c
 heck
 ----------------------------------------------------------------------

 --------------------------------------
 CID_89323400_JID_6748_Energie_neutraal
 --------------------------------------
 Structure from the checkpoint file:  "JID_6748.chk"
 Charge =  0 Multiplicity = 1

 SCF Done:  E(RB3LYP) =  -708.426459404     A.U. after   15 cycles
 Normal termination of Gaussian 16 at Thu Dec 10 23:49:25 2020.

 ----------------------------------------------------------------------
 # B3LYP/6-311++G(d,p) empiricaldispersion=gd3bj scf=xqc pop=npa geom=c
 heck
 ----------------------------------------------------------------------

 ------------------------------------
 CID_89323400_JID_6748_Energie_kation
 ------------------------------------
 Structure from the checkpoint file:  "JID_6748.chk"
 Charge =  1 Multiplicity = 2

 SCF Done:  E(UB3LYP) =  -708.169052628     A.U. after   23 cycles
 Normal termination of Gaussian 16 at Fri Dec 11 00:00:47 2020.
 Gaussian 16:  ES64L-G16RevA.03 25-Dec-2016

 ----------------------------------------------------------------------
 # B3LYP/6-311++G(d,p) empiricaldispersion=gd3bj scf=xqc pop=npa geom=c
 heck
 ----------------------------------------------------------------------

 -----------------------------------
 CID_89323400_JID_6748_Energie_anion
 -----------------------------------
 Structure from the checkpoint file:  "JID_6748.chk"
 Charge = -1 Multiplicity = 2

                         Standard orientation:
 ---------------------------------------------------------------------
 Center     Atomic      Atomic             Coordinates (Angstroms)
 Number     Number       Type             X           Y           Z
 ---------------------------------------------------------------------
      1          6           0        1.685072    1.753449    1.366457
      2          6           0        1.294262    1.231400   -0.029926
      3          6           0       -0.122370    0.698046   -0.039496
      4          6           0       -1.315953    1.409402   -0.028247
      5          6           0       -2.537685    0.721041   -0.023322
      6          6           0       -2.536070   -0.695744    0.007449
      7          6           0       -1.325664   -1.391978   -0.024466
      8          6           0       -0.121623   -0.695360   -0.056832
      9          6           0        1.292249   -1.233888   -0.062595
     10          7           0        2.030026    0.003722   -0.459752
     11          8           0        3.372258   -0.003042    0.042677
     12          6           0        1.533642   -2.296392   -1.142434
     13          6           0        1.688877   -1.796968    1.316156
     14          7           0       -3.800340   -1.358324    0.030907
     15          7           0       -3.748358    1.407458   -0.107324
     16          6           0        1.542072    2.323354   -1.078062
     17          1           0        1.475152    1.017826    2.146155
     18          1           0        1.108387    2.657051    1.592316
     19          1           0        2.749993    1.997212    1.398215
     20          1           0       -1.321001    2.496488   -0.058838
     21          1           0       -1.339575   -2.480319   -0.005396
     22          1           0        3.896974    0.006656   -0.772103
     23          1           0        1.237545   -1.912567   -2.122453
     24          1           0        2.596623   -2.562103   -1.175090
     25          1           0        0.964956   -3.209862   -0.933338
     26          1           0        2.752609   -2.047366    1.336034
     27          1           0        1.486686   -1.082668    2.117375
     28          1           0        1.109075   -2.704003    1.520015
     29          1           0       -4.274629   -1.222795    0.923654
     30          1           0       -3.691134   -2.358973   -0.105970
     31          1           0       -4.576733    0.832497   -0.055047
     32          1           0       -3.814164    2.282635    0.392131
     33          1           0        0.979198    3.233934   -0.843345
     34          1           0        2.606856    2.582423   -1.101484
     35          1           0        1.244956    1.970099   -2.069168
 ---------------------------------------------------------------------

 SCF Done:  E(UB3LYP) =  -708.415879566     A.U. after   30 cycles

 The electronic state is 2-A.
 Alpha  occ. eigenvalues --  -19.05471 -14.25018 -14.20723 -14.20423 -10.11517
 Alpha  occ. eigenvalues --  -10.11408 -10.10583 -10.09949 -10.06804 -10.06700
 Alpha  occ. eigenvalues --  -10.06454 -10.06410 -10.06331 -10.06156 -10.06131
 Alpha  occ. eigenvalues --  -10.05981  -0.96903  -0.82750  -0.80065  -0.78232
 Alpha  occ. eigenvalues --   -0.71512  -0.70786  -0.63107  -0.62759  -0.61262
 Alpha  occ. eigenvalues --   -0.59578  -0.58743  -0.52392  -0.51400  -0.47140
 Alpha  occ. eigenvalues --   -0.46137  -0.42266  -0.40418  -0.39699  -0.39096
 Alpha  occ. eigenvalues --   -0.37947  -0.36772  -0.34743  -0.34341  -0.33459
 Alpha  occ. eigenvalues --   -0.33039  -0.32241  -0.31515  -0.30575  -0.30218
 Alpha  occ. eigenvalues --   -0.29084  -0.28819  -0.27890  -0.27277  -0.26888
 Alpha  occ. eigenvalues --   -0.26085  -0.24600  -0.23559  -0.22585  -0.20197
 Alpha  occ. eigenvalues --   -0.19736  -0.18867  -0.13040  -0.12804  -0.09098
 Alpha  occ. eigenvalues --    0.04147
 Alpha virt. eigenvalues --    0.05668   0.06657   0.07952   0.08094   0.08628
 Alpha virt. eigenvalues --    0.08884   0.09745   0.10072   0.10459   0.10621
 Alpha virt. eigenvalues --    0.11485   0.11597   0.12413   0.12841   0.13118

  Beta  occ. eigenvalues --  -19.05448 -14.25010 -14.20675 -14.20354 -10.11517
  Beta  occ. eigenvalues --  -10.11407 -10.10579 -10.09945 -10.06802 -10.06682
  Beta  occ. eigenvalues --  -10.06445 -10.06409 -10.06318 -10.06146 -10.06117
  Beta  occ. eigenvalues --  -10.05968  -0.96858  -0.82691  -0.80038  -0.78134
  Beta  occ. eigenvalues --   -0.71474  -0.70776  -0.63081  -0.62723  -0.61214
  Beta  occ. eigenvalues --   -0.59555  -0.58719  -0.52343  -0.51368  -0.47102
  Beta  occ. eigenvalues --   -0.46096  -0.42224  -0.40362  -0.39649  -0.39044
  Beta  occ. eigenvalues --   -0.37887  -0.36739  -0.34722  -0.34317  -0.33437
  Beta  occ. eigenvalues --   -0.33007  -0.32214  -0.31487  -0.30559  -0.30194
  Beta  occ. eigenvalues --   -0.29070  -0.28796  -0.27864  -0.27250  -0.26870
  Beta  occ. eigenvalues --   -0.26067  -0.24587  -0.23547  -0.22566  -0.20159
  Beta  occ. eigenvalues --   -0.19713  -0.18828  -0.13011  -0.12775  -0.09060
  Beta virt. eigenvalues --    0.06104   0.07117   0.07336   0.08452   0.08637
  Beta virt. eigenvalues --    0.08754   0.08937   0.09694   0.10267   0.10866
  Beta virt. eigenvalues --    0.10977   0.11621   0.11879   0.12811   0.12902

 Mulliken charges and spin densities:
               1          2
     1  C   -0.224775  -0.457079
     2  C   -0.141625   0.119548
     3  C   -0.088278   0.440768
     4  C   -1.200140   0.550786
     5  C    0.708074  -0.863287
     6  C    2.122952  -2.327971
     7  C   -0.531332   0.177395
     8  C   -0.157974   0.604810
     9  C   -0.116687   0.075294
    10  N    0.354079  -0.094970
    11  O   -0.235733   0.044544
    12  C   -0.080925  -0.225246
    13  C   -0.037568  -0.662475
    14  N   -0.379628  -0.012627
    15  N   -0.283493  -0.066252
    16  C   -0.139189  -0.191296
    17  H    0.016299   0.110431
    18  H    0.002479   0.142404
    19  H    0.164968   0.012256
    20  H   -0.077639   0.220883
    21  H   -0.392699   0.528955
    22  H    0.069325   0.205343
    23  H    0.070240   0.079437
    24  H   -0.056443   0.201673
    25  H    0.026167   0.113033
    26  H    0.155633   0.024284
    27  H    0.029546   0.093901
    28  H    0.008324   0.138387
    29  H   -0.461855   0.717362
    30  H   -0.071653   0.324081
    31  H    0.062987   0.192239
    32  H   -0.212306   0.451866
    33  H    0.060682   0.072501
    34  H   -0.033264   0.179951
    35  H    0.071451   0.079073
 Sum of Mulliken charges =  -1.00000   1.00000

 Dipole moment (field-independent basis, Debye):
    X=              6.6747    Y=              1.2922    Z=             -1.0277  Tot=              6.8759
 Quadrupole moment (field-independent basis, Debye-Ang):
   XX=           -183.5650   YY=           -138.4581   ZZ=           -127.0470
   XY=             -3.9522   XZ=              5.9953   YZ=              1.6567

 Summary of Natural Population Analysis:

                                       Natural Population
                Natural  -----------------------------------------------
    Atom  No    Charge         Core      Valence    Rydberg      Total
 -----------------------------------------------------------------------
      C    1   -0.28918      0.99961     2.28402    0.00555     3.28918
      C    2    0.05944      0.99953     1.92612    0.01491     2.94056
      C    3   -0.01463      0.99941     2.00333    0.01189     3.01463
      C    4   -0.11681      0.99947     2.10805    0.00929     3.11681
      C    5    0.07797      0.99946     1.90967    0.01291     2.92203
      C    6    0.06328      0.99945     1.92503    0.01224     2.93672
      C    7   -0.10697      0.99947     2.09787    0.00963     3.10697
      C    8   -0.02735      0.99941     2.01603    0.01191     3.02735
      C    9    0.05955      0.99953     1.92558    0.01534     2.94045
      N   10   -0.13447      0.99962     2.61892    0.01593     3.63447
      O   11   -0.29995      0.99990     3.29223    0.00781     4.29995
      C   12   -0.28302      0.99962     2.27692    0.00649     3.28302
      C   13   -0.28920      0.99961     2.28403    0.00556     3.28920
      N   14   -0.41588      0.99974     2.90468    0.01145     3.91588
      N   15   -0.40185      0.99971     2.89177    0.01037     3.90185
      C   16   -0.28330      0.99962     2.27718    0.00650     3.28330
      H   17    0.10165      0.00000     0.39741    0.00094     0.39835
      H   18    0.09982      0.00000     0.39927    0.00091     0.40018
      H   19    0.10531      0.00000     0.39370    0.00099     0.39469
      H   20    0.09927      0.00000     0.39920    0.00152     0.40073
      H   21    0.09987      0.00000     0.39840    0.00173     0.40013
      H   22    0.23400      0.00000     0.26233    0.00368     0.26600
      H   23    0.10466      0.00000     0.39404    0.00130     0.39534
      H   24    0.09885      0.00000     0.40002    0.00113     0.40115
      H   25    0.09776      0.00000     0.40130    0.00094     0.40224
      H   26    0.10502      0.00000     0.39397    0.00101     0.39498
      H   27    0.10112      0.00000     0.39793    0.00095     0.39888
      H   28    0.10046      0.00000     0.39860    0.00094     0.39954
      H   29    0.18641      0.00000     0.30459    0.00900     0.31359
      H   30    0.18372      0.00000     0.31342    0.00286     0.31628
      H   31    0.19547      0.00000     0.30174    0.00278     0.30453
      H   32    0.18779      0.00000     0.30927    0.00294     0.31221
      H   33    0.09699      0.00000     0.40212    0.00088     0.40301
      H   34    0.09914      0.00000     0.39977    0.00110     0.40086
      H   35    0.10504      0.00000     0.39371    0.00124     0.39496
 =======================================================================
   * Total *   -0.00000     15.99315    43.80222    0.20463    60.00000

 Normal termination of Gaussian 16 at Fri Dec 11 00:16:19 2020.
