 Gaussian 16, Revision A.03,

 -----------------------------------------------------------
 # opt freq B3LYP/6-31G(d) empiricaldispersion=gd3bj scf=xqc
 -----------------------------------------------------------

 -------------------------------
 CID_152493713_JID_1447_neutraal
 -------------------------------
 Symbolic Z-matrix:
 Charge =  0 Multiplicity = 1

 SCF Done:  E(RB3LYP) =  -531.165111663     A.U. after   17 cycles
 SCF Done:  E(RB3LYP) =  -531.177101600     A.U. after   14 cycles
 SCF Done:  E(RB3LYP) =  -531.179410553     A.U. after   15 cycles
 SCF Done:  E(RB3LYP) =  -531.180796472     A.U. after   15 cycles
 SCF Done:  E(RB3LYP) =  -531.181147772     A.U. after   15 cycles
 SCF Done:  E(RB3LYP) =  -531.181373657     A.U. after   13 cycles
 SCF Done:  E(RB3LYP) =  -531.181534650     A.U. after   13 cycles
 SCF Done:  E(RB3LYP) =  -531.181627814     A.U. after   13 cycles
 SCF Done:  E(RB3LYP) =  -531.181669990     A.U. after   12 cycles
 SCF Done:  E(RB3LYP) =  -531.181686818     A.U. after   11 cycles
 SCF Done:  E(RB3LYP) =  -531.181693373     A.U. after    8 cycles
 SCF Done:  E(RB3LYP) =  -531.181693817     A.U. after    9 cycles
 SCF Done:  E(RB3LYP) =  -531.181693982     A.U. after    8 cycles
 SCF Done:  E(RB3LYP) =  -531.181694115     A.U. after    8 cycles
 SCF Done:  E(RB3LYP) =  -531.181694211     A.U. after    8 cycles
 SCF Done:  E(RB3LYP) =  -531.181694253     A.U. after    7 cycles
 Optimization completed.
    -- Stationary point found.
 Normal termination of Gaussian 16 at Tue Dec  8 20:04:15 2020.

 --------------------------------------------------------------------
 #N Geom=AllCheck Guess=TCheck SCRF=Check GenChk RB3LYP/6-31G(d) Freq
 --------------------------------------------------------------------

 Structure from the checkpoint file:  "JID_1447.chk"
 -------------------------------
 CID_152493713_JID_1447_neutraal
 -------------------------------
 Charge =  0 Multiplicity = 1

 SCF Done:  E(RB3LYP) =  -531.181694253     A.U. after    1 cycles

  Exact polarizability: 113.592  -8.350  85.633   7.910  -8.917  89.331
 Approx polarizability: 147.769 -22.496 137.917  24.610 -34.967 150.801

                      1                      2                      3
                      A                      A                      A
 Frequencies --     16.0729                34.4161                46.2469
 Red. masses --      5.4977                 3.4313                 3.8326
 Frc consts  --      0.0008                 0.0024                 0.0048
 IR Inten    --      0.1474                 0.0699                 0.5923

                      4                      5                      6
                      A                      A                      A
 Frequencies --     57.0988               109.6040               202.5213
 Red. masses --      8.8733                 1.9559                 3.3480
 Frc consts  --      0.0170                 0.0138                 0.0809
 IR Inten    --      0.5403                 0.2129                 1.0095

                      7                      8                      9
                      A                      A                      A
 Frequencies --    219.9128               234.8580               250.5955
 Red. masses --      1.0661                 3.9890                 1.4228
 Frc consts  --      0.0304                 0.1296                 0.0526
 IR Inten    --      0.0584                 0.4346                 0.2216

                     10                     11                     12
                      A                      A                      A
 Frequencies --    275.7605               292.3753               302.0821
 Red. masses --      1.3847                 1.7190                 2.5567
 Frc consts  --      0.0620                 0.0866                 0.1375
 IR Inten    --      0.1467                 0.3330                 1.1571

                     13                     14                     15
                      A                      A                      A
 Frequencies --    342.4996               395.0644               438.2863
 Red. masses --      2.4270                 2.4639                 2.8929
 Frc consts  --      0.1677                 0.2266                 0.3274
 IR Inten    --      0.1545                 0.5484                 1.6992

                     16                     17                     18
                      A                      A                      A
 Frequencies --    478.6348               488.5970               550.5236
 Red. masses --      3.5836                 2.1851                 4.4047
 Frc consts  --      0.4837                 0.3073                 0.7865
 IR Inten    --      0.2583                 4.0839                 1.5847

                     19                     20                     21
                      A                      A                      A
 Frequencies --    565.3982               681.3311               727.3429
 Red. masses --      7.1910                 9.7601                 2.9622
 Frc consts  --      1.3544                 2.6695                 0.9233
 IR Inten    --     33.1920                35.0477                 0.9252

                     22                     23                     24
                      A                      A                      A
 Frequencies --    792.1333               819.9762               867.7847
 Red. masses --      1.2483                 9.3097                 4.0952
 Frc consts  --      0.4615                 3.6880                 1.8170
 IR Inten    --      7.6831               113.1583                 4.3750

                     25                     26                     27
                      A                      A                      A
 Frequencies --    895.5664               928.3376               958.2397
 Red. masses --      2.7313                 2.0148                 1.5118
 Frc consts  --      1.2907                 1.0230                 0.8179
 IR Inten    --      3.4983                 0.2378                 0.6733

                     28                     29                     30
                      A                      A                      A
 Frequencies --    991.2080              1016.1415              1028.4930
 Red. masses --      1.6009                 1.9749                 1.6378
 Frc consts  --      0.9267                 1.2015                 1.0207
 IR Inten    --     23.6924                55.4337                31.2119

                     31                     32                     33
                      A                      A                      A
 Frequencies --   1033.3022              1089.1092              1110.9864
 Red. masses --      1.9361                 2.0201                 1.5851
 Frc consts  --      1.2180                 1.4118                 1.1527
 IR Inten    --     17.1342                 4.3658                 9.8848

                     34                     35                     36
                      A                      A                      A
 Frequencies --   1131.1889              1226.0962              1245.5689
 Red. masses --      2.3003                 2.4736                 2.1177
 Frc consts  --      1.7342                 2.1909                 1.9358
 IR Inten    --     38.3802                 3.2464                 2.5231

                     37                     38                     39
                      A                      A                      A
 Frequencies --   1282.9374              1304.5907              1337.1652
 Red. masses --      2.4730                 2.3624                 1.2500
 Frc consts  --      2.3982                 2.3689                 1.3168
 IR Inten    --      1.8667                81.4166                17.7490

                     40                     41                     42
                      A                      A                      A
 Frequencies --   1348.1691              1398.5511              1417.0425
 Red. masses --      1.2531                 1.4439                 1.3139
 Frc consts  --      1.3419                 1.6639                 1.5545
 IR Inten    --      2.2479                 0.3432                 8.1304

                     43                     44                     45
                      A                      A                      A
 Frequencies --   1429.1850              1443.4742              1453.2051
 Red. masses --      1.2637                 1.2449                 1.2218
 Frc consts  --      1.5207                 1.5283                 1.5202
 IR Inten    --      4.0822                 5.3544                 8.1154

                     46                     47                     48
                      A                      A                      A
 Frequencies --   1501.9509              1509.5293              1512.5771
 Red. masses --      1.0767                 1.0754                 1.1072
 Frc consts  --      1.4311                 1.4438                 1.4925
 IR Inten    --      5.1571                 4.1334                27.4719

                     49                     50                     51
                      A                      A                      A
 Frequencies --   1516.5248              1524.7305              1532.6654
 Red. masses --      1.0523                 1.0613                 1.0563
 Frc consts  --      1.4259                 1.4536                 1.4620
 IR Inten    --      1.7542                 4.4934                10.2972

                     52                     53                     54
                      A                      A                      A
 Frequencies --   1536.8218              1540.2445              1546.0213
 Red. masses --      1.0519                 1.0552                 1.0559
 Frc consts  --      1.4637                 1.4749                 1.4870
 IR Inten    --      8.3652                 1.8308                 6.9816

                     55                     56                     57
                      A                      A                      A
 Frequencies --   2228.7067              3036.2556              3043.8281
 Red. masses --     13.9380                 1.0626                 1.0355
 Frc consts  --     40.7904                 5.7714                 5.6525
 IR Inten    --    395.5078                23.2231                17.5589

                     58                     59                     60
                      A                      A                      A
 Frequencies --   3049.7341              3053.6830              3063.6893
 Red. masses --      1.0386                 1.0375                 1.0550
 Frc consts  --      5.6916                 5.7002                 5.8342
 IR Inten    --     36.2572                16.4743                20.5160

                     61                     62                     63
                      A                      A                      A
 Frequencies --   3078.8988              3106.3989              3109.4271
 Red. masses --      1.0984                 1.1031                 1.1052
 Frc consts  --      6.1347                 6.2716                 6.2958
 IR Inten    --     12.1961                 3.4026                 4.5315

                     64                     65                     66
                      A                      A                      A
 Frequencies --   3114.1241              3115.3750              3120.8943
 Red. masses --      1.1024                 1.1025                 1.1018
 Frc consts  --      6.2990                 6.3043                 6.3227
 IR Inten    --     73.9737                41.8688                50.5076

                     67                     68                     69
                      A                      A                      A
 Frequencies --   3124.3831              3126.3512              3494.7578
 Red. masses --      1.1013                 1.1016                 1.0761
 Frc consts  --      6.3342                 6.3439                 7.7433
 IR Inten    --      9.1671                66.6140                 7.6150

 - Thermochemistry -
 -------------------
 Temperature   298.150 Kelvin.  Pressure   1.00000 Atm.
 Atom     1 has atomic number  6 and mass  12.00000

 Molecular mass:   158.11676 amu.
 Principal axes and moments of inertia in atomic units:
                           1         2         3
     Eigenvalues --   931.403893327.114763455.42871
           X            0.99993   0.00067  -0.01161
           Y            0.00043   0.99549   0.09491
           Z            0.01162  -0.09491   0.99542
 This molecule is an asymmetric top.
 Rotational symmetry number  1.
 Warning -- assumption of classical behavior for rotation
           may cause significant error
 Rotational temperatures (Kelvin)      0.09299     0.02603     0.02507
 Rotational constants (GHZ):           1.93766     0.54243     0.52229
 Zero-point vibrational energy     561319.2 (Joules/Mol)
                                  134.15852 (Kcal/Mol)
 Warning -- explicit consideration of  19 degrees of freedom as
           vibrations may cause significant error
 Vibrational temperatures:     23.13    49.52    66.54    82.15   157.70
          (Kelvin)            291.38   316.41   337.91   360.55   396.76
                              420.66   434.63   492.78   568.41   630.60
                              688.65   702.98   792.08   813.48   980.28
                             1046.48  1139.70  1179.76  1248.55  1288.52
                             1335.67  1378.69  1426.13  1462.00  1479.77
                             1486.69  1566.99  1598.46  1627.53  1764.08
                             1792.10  1845.86  1877.01  1923.88  1939.71
                             2012.20  2038.81  2056.28  2076.84  2090.84
                             2160.97  2171.88  2176.26  2181.94  2193.75
                             2205.16  2211.14  2216.07  2224.38  3206.61
                             4368.49  4379.39  4387.89  4393.57  4407.97
                             4429.85  4469.42  4473.77  4480.53  4482.33
                             4490.27  4495.29  4498.12  5028.18

 Zero-point correction=                           0.213795 (Hartree/Particle)
 Thermal correction to Energy=                    0.226901
 Thermal correction to Enthalpy=                  0.227845
 Thermal correction to Gibbs Free Energy=         0.172150
 Sum of electronic and zero-point Energies=           -530.967899
 Sum of electronic and thermal Energies=              -530.954794
 Sum of electronic and thermal Enthalpies=            -530.953849
 Sum of electronic and thermal Free Energies=         -531.009544

                     E (Thermal)             CV                S
                      KCal/Mol        Cal/Mol-Kelvin    Cal/Mol-Kelvin
 Total                  142.382             46.520            117.220
 Electronic               0.000              0.000              0.000
 Translational            0.889              2.981             41.084
 Rotational               0.889              2.981             30.749
 Vibrational            140.605             40.559             45.387
 Vibration     1          0.593              1.986              7.068
 Vibration     2          0.594              1.983              5.557
 Vibration     3          0.595              1.979              4.972
 Vibration     4          0.596              1.975              4.555
 Vibration     5          0.606              1.942              3.276
 Vibration     6          0.639              1.836              2.110
 Vibration     7          0.647              1.811              1.960
 Vibration     8          0.655              1.787              1.842
 Vibration     9          0.663              1.762              1.726
 Vibration    10          0.677              1.718              1.560
 Vibration    11          0.688              1.688              1.460
 Vibration    12          0.694              1.670              1.405
 Vibration    13          0.722              1.591              1.200
 Vibration    14          0.762              1.481              0.981
 Vibration    15          0.798              1.387              0.832
 Vibration    16          0.835              1.297              0.714
 Vibration    17          0.844              1.275              0.687
 Vibration    18          0.906              1.139              0.543
 Vibration    19          0.921              1.106              0.513

                           ! Non-Optimized Parameters !
 Normal termination of Gaussian 16 at Tue Dec  8 20:08:59 2020.

 ----------------------------------------------------------------------
 # B3LYP/6-311++G(d,p) empiricaldispersion=gd3bj scf=xqc pop=npa geom=c
 heck
 ----------------------------------------------------------------------

 ---------------------------------------
 CID_152493713_JID_1447_Energie_neutraal
 ---------------------------------------
 Structure from the checkpoint file:  "JID_1447.chk"
 Charge =  0 Multiplicity = 1

 SCF Done:  E(RB3LYP) =  -531.337213705     A.U. after   15 cycles
 Normal termination of Gaussian 16 at Tue Dec  8 20:11:04 2020.

 ----------------------------------------------------------------------
 # B3LYP/6-311++G(d,p) empiricaldispersion=gd3bj scf=xqc pop=npa geom=c
 heck
 ----------------------------------------------------------------------

 -------------------------------------
 CID_152493713_JID_1447_Energie_kation
 -------------------------------------
 Structure from the checkpoint file:  "JID_1447.chk"
 Charge =  1 Multiplicity = 2

 SCF Done:  E(UB3LYP) =  -530.994985837     A.U. after   31 cycles
 Normal termination of Gaussian 16 at Tue Dec  8 20:16:40 2020.
 Gaussian 16:  ES64L-G16RevA.03 25-Dec-2016

 ----------------------------------------------------------------------
 # B3LYP/6-311++G(d,p) empiricaldispersion=gd3bj scf=xqc pop=npa geom=c
 heck
 ----------------------------------------------------------------------

 ------------------------------------
 CID_152493713_JID_1447_Energie_anion
 ------------------------------------
 Structure from the checkpoint file:  "JID_1447.chk"
 Charge = -1 Multiplicity = 2

                         Standard orientation:
 ---------------------------------------------------------------------
 Center     Atomic      Atomic             Coordinates (Angstroms)
 Number     Number       Type             X           Y           Z
 ---------------------------------------------------------------------
      1          6           0       -2.768813    1.548816    0.811326
      2          6           0       -2.390858    0.678999   -0.391463
      3          6           0       -1.485369   -0.542633   -0.103588
      4          6           0       -2.169536   -1.527533    0.860571
      5          6           0       -1.200243   -1.260018   -1.433274
      6          6           0       -0.167257   -0.101998    0.554057
      7          8           0        0.519914    0.924258   -0.180535
      8          7           0        1.533586    0.348079   -1.015495
      9          7           0        2.834435    0.756117   -0.489081
     10          7           0        3.248787   -0.071101    0.349095
     11          7           0        3.748044   -0.713347    1.147403
     12          1           0       -3.287737    0.977047    1.588373
     13          1           0       -3.438928    2.356851    0.498069
     14          1           0       -1.888681    2.015959    1.265896
     15          1           0       -3.307063    0.308645   -0.871300
     16          1           0       -1.884875    1.306717   -1.134483
     17          1           0       -3.134050   -1.853437    0.454771
     18          1           0       -1.552551   -2.421605    1.010985
     19          1           0       -2.353043   -1.081486    1.843972
     20          1           0       -0.717028   -0.590554   -2.151860
     21          1           0       -0.541490   -2.123484   -1.287516
     22          1           0       -2.134555   -1.616606   -1.882703
     23          1           0       -0.357068    0.333740    1.540455
     24          1           0        0.499338   -0.961909    0.681670
     25          1           0        1.476915    0.944018   -1.841278
 ---------------------------------------------------------------------

 SCF Done:  E(UB3LYP) =  -531.337744219     A.U. after   32 cycles

 The electronic state is 2-A.
 Alpha  occ. eigenvalues --  -19.02588 -14.29377 -14.25400 -14.21966 -14.20965
 Alpha  occ. eigenvalues --  -10.09752 -10.07463 -10.05895 -10.05734 -10.05645
 Alpha  occ. eigenvalues --  -10.04699  -0.98396  -0.94442  -0.82620  -0.72478
 Alpha  occ. eigenvalues --   -0.68236  -0.63455  -0.58324  -0.55206  -0.52137
 Alpha  occ. eigenvalues --   -0.43900  -0.41181  -0.40456  -0.36502  -0.35793
 Alpha  occ. eigenvalues --   -0.35465  -0.33402  -0.33282  -0.32029  -0.30414
 Alpha  occ. eigenvalues --   -0.29567  -0.28499  -0.27894  -0.26373  -0.25850
 Alpha  occ. eigenvalues --   -0.25066  -0.23341  -0.21994  -0.21244  -0.20055
 Alpha  occ. eigenvalues --   -0.16784  -0.12823  -0.09924   0.04802
 Alpha virt. eigenvalues --    0.06572   0.08121   0.08583   0.09510   0.10785
 Alpha virt. eigenvalues --    0.11049   0.11629   0.11993   0.12543   0.13725
 Alpha virt. eigenvalues --    0.14538   0.14642   0.14828   0.15535   0.15925

  Beta  occ. eigenvalues --  -19.02582 -14.28960 -14.25196 -14.22032 -14.20335
  Beta  occ. eigenvalues --  -10.09746 -10.07462 -10.05877 -10.05721 -10.05630
  Beta  occ. eigenvalues --  -10.04679  -0.97735  -0.94121  -0.82206  -0.72387
  Beta  occ. eigenvalues --   -0.67844  -0.63427  -0.58286  -0.55096  -0.52093
  Beta  occ. eigenvalues --   -0.43670  -0.41008  -0.40131  -0.36274  -0.35600
  Beta  occ. eigenvalues --   -0.34972  -0.33123  -0.32640  -0.31638  -0.30312
  Beta  occ. eigenvalues --   -0.28505  -0.28180  -0.27732  -0.26269  -0.25689
  Beta  occ. eigenvalues --   -0.25013  -0.23293  -0.21941  -0.21108  -0.19339
  Beta  occ. eigenvalues --   -0.16680  -0.12449  -0.09722
  Beta virt. eigenvalues --    0.06932   0.08375   0.08756   0.09725   0.10781
  Beta virt. eigenvalues --    0.10983   0.11655   0.11937   0.12417   0.13062
  Beta virt. eigenvalues --    0.13983   0.14659   0.14830   0.14995   0.15705

 Mulliken charges and spin densities:
               1          2
     1  C   -0.085563  -0.506836
     2  C   -0.374287   0.129516
     3  C   -0.716416   1.406609
     4  C    0.203315  -0.818198
     5  C    0.214299  -0.700479
     6  C    0.490826  -1.255198
     7  O   -0.060488   0.053727
     8  N    0.061058  -0.227327
     9  N   -0.827781   0.506454
    10  N    0.491315  -0.123548
    11  N   -0.199579   0.197408
    12  H   -0.016297   0.148165
    13  H   -0.179838   0.310775
    14  H    0.013667   0.151400
    15  H   -0.143080   0.268922
    16  H    0.081217   0.092577
    17  H   -0.201272   0.350174
    18  H    0.144030  -0.008238
    19  H    0.038205   0.080248
    20  H   -0.044508   0.186340
    21  H    0.075601   0.063900
    22  H   -0.128082   0.272566
    23  H    0.190816  -0.031501
    24  H    0.166230  -0.020330
    25  H   -0.193387   0.472874
 Sum of Mulliken charges =  -1.00000   1.00000

 Dipole moment (field-independent basis, Debye):
    X=             -3.5387    Y=             -0.9321    Z=              0.9612  Tot=              3.7835
 Quadrupole moment (field-independent basis, Debye-Ang):
   XX=           -134.6093   YY=            -92.0880   ZZ=            -91.1240
   XY=             -0.3377   XZ=             -4.7498   YZ=              1.8443

 Summary of Natural Population Analysis:

                                       Natural Population
                Natural  -----------------------------------------------
    Atom  No    Charge         Core      Valence    Rydberg      Total
 -----------------------------------------------------------------------
      C    1   -0.28709      0.99966     2.28277    0.00465     3.28709
      C    2   -0.19024      0.99959     2.17996    0.01069     3.19024
      C    3   -0.05948      0.99957     2.04824    0.01167     3.05948
      C    4   -0.28758      0.99963     2.28034    0.00761     3.28758
      C    5   -0.28386      0.99963     2.27622    0.00802     3.28386
      C    6   -0.00835      0.99950     1.99557    0.01328     3.00835
      O    7   -0.24171      0.99990     3.23003    0.01179     4.24171
      N    8   -0.08824      0.99976     2.57309    0.01539     3.58824
      N    9   -0.16354      0.99973     2.64632    0.01749     3.66354
      N   10    0.13930      0.99971     2.34466    0.01633     3.36070
      N   11    0.03151      0.99982     2.45555    0.01312     3.46849
      H   12    0.09333      0.00000     0.40553    0.00113     0.40667
      H   13    0.09780      0.00000     0.40130    0.00090     0.40220
      H   14    0.09905      0.00000     0.39975    0.00120     0.40095
      H   15    0.09360      0.00000     0.40517    0.00123     0.40640
      H   16    0.10387      0.00000     0.39455    0.00158     0.39613
      H   17    0.10068      0.00000     0.39843    0.00089     0.39932
      H   18    0.09887      0.00000     0.40036    0.00077     0.40113
      H   19    0.09844      0.00000     0.40073    0.00083     0.40156
      H   20    0.10565      0.00000     0.39294    0.00140     0.39435
      H   21    0.09963      0.00000     0.39937    0.00099     0.40037
      H   22    0.09504      0.00000     0.40397    0.00100     0.40496
      H   23    0.08763      0.00000     0.41117    0.00120     0.41237
      H   24    0.09403      0.00000     0.40454    0.00144     0.40597
      H   25    0.17167      0.00000     0.32353    0.00480     0.32833
 =======================================================================
   * Total *   -0.00000     10.99650    31.85412    0.14938    43.00000

 Normal termination of Gaussian 16 at Tue Dec  8 20:21:57 2020.
