 Gaussian 16, Revision A.03,

 -----------------------------------------------------------
 # opt freq B3LYP/6-31G(d) empiricaldispersion=gd3bj scf=xqc
 -----------------------------------------------------------

 -------------------------------
 CID_108211052_JID_4177_neutraal
 -------------------------------
 Symbolic Z-matrix:
 Charge =  0 Multiplicity = 1

 SCF Done:  E(RB3LYP) =  -1002.08868520     A.U. after   16 cycles
 SCF Done:  E(RB3LYP) =  -1002.09360430     A.U. after   13 cycles
 SCF Done:  E(RB3LYP) =  -1002.09488276     A.U. after   13 cycles
 SCF Done:  E(RB3LYP) =  -1002.09556495     A.U. after   13 cycles
 SCF Done:  E(RB3LYP) =  -1002.09613547     A.U. after   13 cycles
 SCF Done:  E(RB3LYP) =  -1002.09642768     A.U. after   12 cycles
 SCF Done:  E(RB3LYP) =  -1002.09670756     A.U. after   12 cycles
 SCF Done:  E(RB3LYP) =  -1002.09686216     A.U. after   12 cycles
 SCF Done:  E(RB3LYP) =  -1002.09694231     A.U. after   11 cycles
 SCF Done:  E(RB3LYP) =  -1002.09696974     A.U. after   11 cycles
 SCF Done:  E(RB3LYP) =  -1002.09698003     A.U. after   11 cycles
 SCF Done:  E(RB3LYP) =  -1002.09698212     A.U. after    9 cycles
 SCF Done:  E(RB3LYP) =  -1002.09698284     A.U. after    8 cycles
 SCF Done:  E(RB3LYP) =  -1002.09698295     A.U. after    8 cycles
 Optimization completed.
    -- Stationary point found.
 Normal termination of Gaussian 16 at Thu Dec 10 09:18:32 2020.

 --------------------------------------------------------------------
 #N Geom=AllCheck Guess=TCheck SCRF=Check GenChk RB3LYP/6-31G(d) Freq
 --------------------------------------------------------------------

 Structure from the checkpoint file:  "JID_4177.chk"
 -------------------------------
 CID_108211052_JID_4177_neutraal
 -------------------------------
 Charge =  0 Multiplicity = 1

 SCF Done:  E(RB3LYP) =  -1002.09698295     A.U. after    1 cycles

  Exact polarizability: 174.451   3.852 123.728 -11.776   2.715  79.290
 Approx polarizability: 280.545   4.287 207.160 -24.724  11.345 132.364

                      1                      2                      3
                      A                      A                      A
 Frequencies --     31.5527                65.8202                80.0033
 Red. masses --      5.5822                 4.0407                 5.6352
 Frc consts  --      0.0033                 0.0103                 0.0213
 IR Inten    --      0.5739                 2.4239                 1.5233

                      4                      5                      6
                      A                      A                      A
 Frequencies --    100.4229               186.2912               207.3847
 Red. masses --      4.4452                 2.8684                 5.1350
 Frc consts  --      0.0264                 0.0587                 0.1301
 IR Inten    --      0.7370                 4.1820                 1.1359

                      7                      8                      9
                      A                      A                      A
 Frequencies --    247.8601               258.4891               298.6220
 Red. masses --      1.4527                 4.0871                 4.4118
 Frc consts  --      0.0526                 0.1609                 0.2318
 IR Inten    --      3.0696                 2.9338                 0.7137

                     10                     11                     12
                      A                      A                      A
 Frequencies --    326.5175               328.7482               363.4104
 Red. masses --      3.6321                 1.4884                 2.7781
 Frc consts  --      0.2282                 0.0948                 0.2162
 IR Inten    --      4.7264                30.6716                16.4548

                     13                     14                     15
                      A                      A                      A
 Frequencies --    432.3779               484.4390               511.0745
 Red. masses --      4.3052                 7.0003                 4.6309
 Frc consts  --      0.4742                 0.9679                 0.7127
 IR Inten    --      1.0614                 4.6044                 2.5830

                     16                     17                     18
                      A                      A                      A
 Frequencies --    554.4450               575.6828               587.6942
 Red. masses --      3.6077                 4.0174                 5.6641
 Frc consts  --      0.6534                 0.7845                 1.1526
 IR Inten    --     40.3993                 5.9143                 7.0378

                     19                     20                     21
                      A                      A                      A
 Frequencies --    609.5000               639.6322               667.4368
 Red. masses --      5.7408                 2.2285                 5.9508
 Frc consts  --      1.2565                 0.5372                 1.5619
 IR Inten    --     76.0679               129.8015                16.8659

                     22                     23                     24
                      A                      A                      A
 Frequencies --    751.4083               777.1288               785.9464
 Red. masses --      5.4255                 8.7812                 9.0084
 Frc consts  --      1.8048                 3.1246                 3.2786
 IR Inten    --     18.8969                 3.9257                36.7562

                     25                     26                     27
                      A                      A                      A
 Frequencies --    805.2752               817.0030               825.1505
 Red. masses --      2.5071                 2.6213                 6.5505
 Frc consts  --      0.9579                 1.0309                 2.6278
 IR Inten    --     13.1276                15.0359                33.1795

                     28                     29                     30
                      A                      A                      A
 Frequencies --    853.2305               924.4513               976.0881
 Red. masses --      6.5344                 1.3591                 1.3148
 Frc consts  --      2.8028                 0.6843                 0.7380
 IR Inten    --     13.7443                 0.7265                 0.6353

                     31                     32                     33
                      A                      A                      A
 Frequencies --   1063.0795              1065.8052              1111.1121
 Red. masses --      7.2931                 5.6041                 2.3392
 Frc consts  --      4.8561                 3.7507                 1.7015
 IR Inten    --     13.8763                34.2400                22.9631

                     34                     35                     36
                      A                      A                      A
 Frequencies --   1142.4761              1158.8298              1185.2863
 Red. masses --      1.7641                 1.5472                 1.2709
 Frc consts  --      1.3567                 1.2242                 1.0520
 IR Inten    --      1.5304                41.5377                 0.8955

                     37                     38                     39
                      A                      A                      A
 Frequencies --   1218.0743              1239.1814              1304.6186
 Red. masses --      1.3925                 2.4617                 4.6873
 Frc consts  --      1.2172                 2.2272                 4.7005
 IR Inten    --      3.1094                32.5413                60.8661

                     40                     41                     42
                      A                      A                      A
 Frequencies --   1326.0747              1339.7784              1409.0780
 Red. masses --      2.7566                 3.4222                 4.4583
 Frc consts  --      2.8560                 3.6192                 5.2154
 IR Inten    --     17.3803               133.6121                34.3617

                     43                     44                     45
                      A                      A                      A
 Frequencies --   1472.3793              1485.9166              1516.7479
 Red. masses --      2.6348                 1.9224                 1.7212
 Frc consts  --      3.3654                 2.5009                 2.3329
 IR Inten    --     78.1540                36.2445                15.9302

                     46                     47                     48
                      A                      A                      A
 Frequencies --   1518.8590              1521.4137              1532.9085
 Red. masses --      3.5777                 1.0482                 1.1081
 Frc consts  --      4.8628                 1.4295                 1.5341
 IR Inten    --     77.3310                 6.8895                 9.0220

                     49                     50                     51
                      A                      A                      A
 Frequencies --   1600.9944              1626.6986              1639.4364
 Red. masses --      4.9289                 6.1950                 5.7881
 Frc consts  --      7.4435                 9.6584                 9.1659
 IR Inten    --     29.6389                 3.5325                42.8082

                     52                     53                     54
                      A                      A                      A
 Frequencies --   1677.8556              3030.7356              3092.0421
 Red. masses --      1.3135                 1.0350                 1.1070
 Frc consts  --      2.1787                 5.6011                 6.2357
 IR Inten    --    119.4252                52.7674                36.7598

                     55                     56                     57
                      A                      A                      A
 Frequencies --   3173.7338              3184.5060              3208.1115
 Red. masses --      1.0997                 1.0884                 1.0927
 Frc consts  --      6.5264                 6.5030                 6.6261
 IR Inten    --     14.5090                13.8286                24.9468

                     58                     59                     60
                      A                      A                      A
 Frequencies --   3231.0380              3557.8310              3663.1183
 Red. masses --      1.0933                 1.0471                 1.0994
 Frc consts  --      6.7248                 7.8092                 8.6917
 IR Inten    --      9.7684                19.8679                26.7896

 - Thermochemistry -
 -------------------
 Temperature   298.150 Kelvin.  Pressure   1.00000 Atm.
 Atom     1 has atomic number  6 and mass  12.00000

 Molecular mass:   208.04188 amu.
 Principal axes and moments of inertia in atomic units:
                           1         2         3
     Eigenvalues --  1683.941143902.478974792.30569
           X            0.99994  -0.00672   0.00821
           Y            0.00683   0.99989  -0.01333
           Z           -0.00812   0.01339   0.99988
 This molecule is an asymmetric top.
 Rotational symmetry number  1.
 Warning -- assumption of classical behavior for rotation
           may cause significant error
 Rotational temperatures (Kelvin)      0.05144     0.02219     0.01807
 Rotational constants (GHZ):           1.07174     0.46246     0.37659
 Zero-point vibrational energy     426892.2 (Joules/Mol)
                                  102.02969 (Kcal/Mol)
 Warning -- explicit consideration of  19 degrees of freedom as
           vibrations may cause significant error
 Vibrational temperatures:     45.40    94.70   115.11   144.49   268.03
          (Kelvin)            298.38   356.62   371.91   429.65   469.79
                              473.00   522.87   622.10   697.00   735.32
                              797.72   828.28   845.56   876.93   920.29
                              960.29  1081.11  1118.12  1130.80  1158.61
                             1175.49  1187.21  1227.61  1330.08  1404.37
                             1529.53  1533.46  1598.64  1643.77  1667.30
                             1705.36  1752.54  1782.91  1877.06  1907.93
                             1927.64  2027.35  2118.43  2137.90  2182.26
                             2185.30  2188.97  2205.51  2303.47  2340.46
                             2358.78  2414.06  4360.55  4448.76  4566.30
                             4581.79  4615.76  4648.74  5118.93  5270.41

 Zero-point correction=                           0.162595 (Hartree/Particle)
 Thermal correction to Energy=                    0.174813
 Thermal correction to Enthalpy=                  0.175757
 Thermal correction to Gibbs Free Energy=         0.123006
 Sum of electronic and zero-point Energies=          -1001.934388
 Sum of electronic and thermal Energies=             -1001.922170
 Sum of electronic and thermal Enthalpies=           -1001.921226
 Sum of electronic and thermal Free Energies=        -1001.973977

                     E (Thermal)             CV                S
                      KCal/Mol        Cal/Mol-Kelvin    Cal/Mol-Kelvin
 Total                  109.697             46.041            111.023
 Electronic               0.000              0.000              0.000
 Translational            0.889              2.981             41.902
 Rotational               0.889              2.981             31.821
 Vibrational            107.919             40.079             37.300
 Vibration     1          0.594              1.983              5.729
 Vibration     2          0.597              1.971              4.275
 Vibration     3          0.600              1.963              3.891
 Vibration     4          0.604              1.949              3.446
 Vibration     5          0.632              1.859              2.264
 Vibration     6          0.641              1.829              2.067
 Vibration     7          0.661              1.766              1.746
 Vibration     8          0.667              1.748              1.672
 Vibration     9          0.692              1.676              1.425
 Vibration    10          0.710              1.622              1.277
 Vibration    11          0.712              1.618              1.266
 Vibration    12          0.737              1.548              1.107
 Vibration    13          0.793              1.400              0.851
 Vibration    14          0.841              1.285              0.698
 Vibration    15          0.866              1.225              0.631
 Vibration    16          0.910              1.130              0.535
 Vibration    17          0.932              1.084              0.493
 Vibration    18          0.945              1.058              0.471
 Vibration    19          0.968              1.012              0.434

                           ! Non-Optimized Parameters !
 Normal termination of Gaussian 16 at Thu Dec 10 09:24:27 2020.

 ----------------------------------------------------------------------
 # B3LYP/6-311++G(d,p) empiricaldispersion=gd3bj scf=xqc pop=npa geom=c
 heck
 ----------------------------------------------------------------------

 ---------------------------------------
 CID_108211052_JID_4177_Energie_neutraal
 ---------------------------------------
 Structure from the checkpoint file:  "JID_4177.chk"
 Charge =  0 Multiplicity = 1

 SCF Done:  E(RB3LYP) =  -1002.29046830     A.U. after   16 cycles
 Normal termination of Gaussian 16 at Thu Dec 10 09:26:37 2020.

 ----------------------------------------------------------------------
 # B3LYP/6-311++G(d,p) empiricaldispersion=gd3bj scf=xqc pop=npa geom=c
 heck
 ----------------------------------------------------------------------

 -------------------------------------
 CID_108211052_JID_4177_Energie_kation
 -------------------------------------
 Structure from the checkpoint file:  "JID_4177.chk"
 Charge =  1 Multiplicity = 2

 SCF Done:  E(UB3LYP) =  -1001.99449442     A.U. after   25 cycles
 Normal termination of Gaussian 16 at Thu Dec 10 09:31:12 2020.
 Gaussian 16:  ES64L-G16RevA.03 25-Dec-2016

 ----------------------------------------------------------------------
 # B3LYP/6-311++G(d,p) empiricaldispersion=gd3bj scf=xqc pop=npa geom=c
 heck
 ----------------------------------------------------------------------

 ------------------------------------
 CID_108211052_JID_4177_Energie_anion
 ------------------------------------
 Structure from the checkpoint file:  "JID_4177.chk"
 Charge = -1 Multiplicity = 2

                         Standard orientation:
 ---------------------------------------------------------------------
 Center     Atomic      Atomic             Coordinates (Angstroms)
 Number     Number       Type             X           Y           Z
 ---------------------------------------------------------------------
      1          6           0       -1.834696    2.698424   -0.737799
      2          8           0       -0.969618    1.583777   -0.582314
      3          6           0       -1.513735    0.388083   -0.246820
      4          6           0       -0.602387   -0.664675   -0.001064
      5          7           0       -1.003631   -1.903837    0.298040
      6          6           0       -2.316366   -2.149506    0.376880
      7          6           0       -3.285305   -1.170030    0.173259
      8          6           0       -2.881836    0.126403   -0.143647
      9          6           0        0.857963   -0.409471   -0.071466
     10          7           0        1.625080   -1.062933   -0.915319
     11         16           0        3.190747   -0.547788   -0.672953
     12          7           0        2.887114    0.531944    0.568914
     13          6           0        1.588558    0.511273    0.786881
     14          7           0        0.996228    1.319408    1.737632
     15          1           0       -1.186317    3.548551   -0.951118
     16          1           0       -2.403151    2.892651    0.180818
     17          1           0       -2.531321    2.550150   -1.572734
     18          1           0       -2.598875   -3.170984    0.620336
     19          1           0       -4.340354   -1.412382    0.257297
     20          1           0       -3.616498    0.903356   -0.320186
     21          1           0        1.640459    1.651443    2.444503
     22          1           0        0.134321    0.956514    2.124623
 ---------------------------------------------------------------------

 SCF Done:  E(UB3LYP) =  -1002.29371649     A.U. after   33 cycles
 SCF Done:  E(UB3LYP) =  -1002.29371649     a.u. after    1 cycles

 The electronic state is 2-A.
 Alpha  occ. eigenvalues --  -88.76276 -19.04179 -14.20855 -14.18350 -14.18042
 Alpha  occ. eigenvalues --  -14.17065 -10.11767 -10.11634 -10.11517 -10.07429
 Alpha  occ. eigenvalues --  -10.07300 -10.07102 -10.05652 -10.04957  -7.84596
 Alpha  occ. eigenvalues --   -5.81079  -5.80524  -5.80059  -0.96070  -0.86906
 Alpha  occ. eigenvalues --   -0.81210  -0.79736  -0.72835  -0.67688  -0.65570
 Alpha  occ. eigenvalues --   -0.60653  -0.58565  -0.51999  -0.49196  -0.47554
 Alpha  occ. eigenvalues --   -0.44936  -0.42074  -0.39604  -0.38461  -0.36930
 Alpha  occ. eigenvalues --   -0.36364  -0.35732  -0.32172  -0.31748  -0.30333
 Alpha  occ. eigenvalues --   -0.28718  -0.28066  -0.26966  -0.23813  -0.22900
 Alpha  occ. eigenvalues --   -0.22594  -0.21135  -0.18902  -0.16709  -0.15506
 Alpha  occ. eigenvalues --   -0.14778  -0.12804  -0.11330  -0.09439   0.04428
 Alpha virt. eigenvalues --    0.06646   0.08352   0.08478   0.09066   0.10032
 Alpha virt. eigenvalues --    0.10712   0.11276   0.11462   0.12481   0.12665
 Alpha virt. eigenvalues --    0.12924   0.13488   0.14331   0.15399   0.16305

  Beta  occ. eigenvalues --  -88.76235 -19.04181 -14.20850 -14.18209 -14.17564
  Beta  occ. eigenvalues --  -14.16823 -10.11733 -10.11657 -10.11534 -10.07360
  Beta  occ. eigenvalues --  -10.07276 -10.07055 -10.05547 -10.04777  -7.84560
  Beta  occ. eigenvalues --   -5.81057  -5.80510  -5.79924  -0.96059  -0.86622
  Beta  occ. eigenvalues --   -0.80844  -0.79538  -0.72369  -0.67388  -0.65302
  Beta  occ. eigenvalues --   -0.60472  -0.58421  -0.51551  -0.49111  -0.47286
  Beta  occ. eigenvalues --   -0.44786  -0.41989  -0.39475  -0.38329  -0.36776
  Beta  occ. eigenvalues --   -0.36293  -0.35618  -0.32056  -0.31563  -0.29905
  Beta  occ. eigenvalues --   -0.28426  -0.27547  -0.26873  -0.23501  -0.22757
  Beta  occ. eigenvalues --   -0.22214  -0.20524  -0.18602  -0.15674  -0.14447
  Beta  occ. eigenvalues --   -0.14123  -0.12513  -0.10728  -0.08902
  Beta virt. eigenvalues --    0.07036   0.08438   0.08604   0.09387   0.10170
  Beta virt. eigenvalues --    0.10347   0.11107   0.11435   0.11832   0.12525
  Beta virt. eigenvalues --    0.12627   0.13115   0.13744   0.14332   0.15439

 Mulliken charges and spin densities:
               1          2
     1  C    0.323511  -0.580308
     2  O   -0.098445   0.045515
     3  C    0.320967   0.305830
     4  C   -0.773825  -0.354590
     5  N    0.057811   0.110795
     6  C   -0.038180  -0.018148
     7  C   -0.206428   0.056538
     8  C    0.153843  -0.191770
     9  C   -0.379948  -0.008440
    10  N   -0.053541   0.194480
    11  S    0.294277   0.101896
    12  N   -0.274231   0.053234
    13  C   -0.055893  -0.006075
    14  N   -0.341352  -0.017092
    15  H    0.033206   0.125907
    16  H   -0.080487   0.213365
    17  H   -0.212520   0.360812
    18  H    0.144743  -0.000514
    19  H   -0.036065   0.162738
    20  H   -0.254203   0.413190
    21  H    0.251243   0.019585
    22  H    0.225516   0.013053
 Sum of Mulliken charges =  -1.00000   1.00000

 Dipole moment (field-independent basis, Debye):
    X=             -0.3895    Y=              1.3465    Z=              2.4748  Tot=              2.8442
 Quadrupole moment (field-independent basis, Debye-Ang):
   XX=           -135.1615   YY=           -113.9189   ZZ=            -99.6458
   XY=              5.7238   XZ=             -1.2080   YZ=              2.1181

 Summary of Natural Population Analysis:

                                       Natural Population
                Natural  -----------------------------------------------
    Atom  No    Charge         Core      Valence    Rydberg      Total
 -----------------------------------------------------------------------
      C    1   -0.10002      0.99960     2.09100    0.00941     3.10002
      O    2   -0.26842      0.99985     3.25892    0.00964     4.26842
      C    3    0.14643      0.99935     1.84055    0.01366     2.85357
      C    4    0.08989      0.99947     1.89343    0.01721     2.91011
      N    5   -0.18753      0.99968     2.67724    0.01060     3.68753
      C    6   -0.00639      0.99959     1.99306    0.01373     3.00639
      C    7   -0.09042      0.99957     2.08021    0.01064     3.09042
      C    8   -0.12091      0.99953     2.11202    0.00936     3.12091
      C    9    0.05685      0.99951     1.92469    0.01895     2.94315
      N   10   -0.22070      0.99969     2.70901    0.01200     3.72070
      S   11    0.35184      4.99955     2.61317    0.03544     7.64816
      N   12   -0.33538      0.99968     2.82131    0.01438     3.83538
      C   13    0.17067      0.99954     1.81400    0.01579     2.82933
      N   14   -0.39828      0.99970     2.88883    0.00975     3.89828
      H   15    0.09218      0.00000     0.40693    0.00089     0.40782
      H   16    0.08207      0.00000     0.41654    0.00139     0.41793
      H   17    0.08524      0.00000     0.41310    0.00165     0.41476
      H   18    0.08328      0.00000     0.41553    0.00120     0.41672
      H   19    0.09494      0.00000     0.40418    0.00088     0.40506
      H   20    0.10196      0.00000     0.39648    0.00156     0.39804
      H   21    0.18423      0.00000     0.31348    0.00229     0.31577
      H   22    0.18847      0.00000     0.30969    0.00184     0.31153
 =======================================================================
   * Total *    0.00000     17.99433    35.79341    0.21227    54.00000

 Normal termination of Gaussian 16 at Thu Dec 10 09:37:16 2020.
