 Gaussian 16, Revision A.03,

 -----------------------------------------------------------
 # opt freq B3LYP/6-31G(d) empiricaldispersion=gd3bj scf=xqc
 -----------------------------------------------------------

 -------------------------------
 CID_114467701_JID_8698_neutraal
 -------------------------------
 Symbolic Z-matrix:
 Charge =  0 Multiplicity = 1

 SCF Done:  E(RB3LYP) =  -1130.88402721     A.U. after   15 cycles
 SCF Done:  E(RB3LYP) =  -1130.89078557     A.U. after   13 cycles
 SCF Done:  E(RB3LYP) =  -1130.89292711     A.U. after   14 cycles
 SCF Done:  E(RB3LYP) =  -1130.89509117     A.U. after   15 cycles
 SCF Done:  E(RB3LYP) =  -1130.89588748     A.U. after   12 cycles
 SCF Done:  E(RB3LYP) =  -1130.89653832     A.U. after   13 cycles
 SCF Done:  E(RB3LYP) =  -1130.89703919     A.U. after   14 cycles
 SCF Done:  E(RB3LYP) =  -1130.89819015     A.U. after   15 cycles
 SCF Done:  E(RB3LYP) =  -1130.89952460     A.U. after   14 cycles
 SCF Done:  E(RB3LYP) =  -1130.89970623     A.U. after   12 cycles
 SCF Done:  E(RB3LYP) =  -1130.90527723     A.U. after    9 cycles
 SCF Done:  E(RB3LYP) =  -1130.90527756     A.U. after    8 cycles
 SCF Done:  E(RB3LYP) =  -1130.90527771     A.U. after    8 cycles
 SCF Done:  E(RB3LYP) =  -1130.90527778     A.U. after    7 cycles
 SCF Done:  E(RB3LYP) =  -1130.90527779     A.U. after    7 cycles
 Optimization completed.
    -- Stationary point found.
 Normal termination of Gaussian 16 at Fri Dec 11 21:57:07 2020.

 --------------------------------------------------------------------
 #N Geom=AllCheck Guess=TCheck SCRF=Check GenChk RB3LYP/6-31G(d) Freq
 --------------------------------------------------------------------

 Structure from the checkpoint file:  "JID_8698.chk"
 -------------------------------
 CID_114467701_JID_8698_neutraal
 -------------------------------
 Charge =  0 Multiplicity = 1

 SCF Done:  E(RB3LYP) =  -1130.90527779     A.U. after    1 cycles

  Exact polarizability: 205.070  -0.267 187.319  -9.739   0.513 140.768
 Approx polarizability: 286.753  -0.315 269.060 -29.502   6.653 227.107

                      1                      2                      3
                      A                      A                      A
 Frequencies --     18.9757                29.6802                40.5547
 Red. masses --      4.6402                 3.4486                 3.6294
 Frc consts  --      0.0010                 0.0018                 0.0035
 IR Inten    --      0.1340                 0.0433                 0.0349

                      4                      5                      6
                      A                      A                      A
 Frequencies --     47.0546                55.8001                64.6501
 Red. masses --      3.9626                 3.3485                 3.2854
 Frc consts  --      0.0052                 0.0061                 0.0081
 IR Inten    --      0.1751                 0.1897                 0.0083

                      7                      8                      9
                      A                      A                      A
 Frequencies --     82.1247               106.3851               128.2070
 Red. masses --      3.9542                 3.8804                 3.5333
 Frc consts  --      0.0157                 0.0259                 0.0342
 IR Inten    --      0.2261                 0.7486                 0.8347

                     10                     11                     12
                      A                      A                      A
 Frequencies --    171.3069               186.6405               226.1239
 Red. masses --      3.3345                 1.0744                 3.3283
 Frc consts  --      0.0577                 0.0221                 0.1003
 IR Inten    --      0.7449                 0.3471                 2.4573

                     13                     14                     15
                      A                      A                      A
 Frequencies --    233.8840               245.2200               261.5902
 Red. masses --      2.3833                 1.1595                 3.3457
 Frc consts  --      0.0768                 0.0411                 0.1349
 IR Inten    --      1.3617                 0.3579                 5.8813

                     16                     17                     18
                      A                      A                      A
 Frequencies --    279.6377               290.6513               301.1279
 Red. masses --      2.1747                 1.1671                 1.1153
 Frc consts  --      0.1002                 0.0581                 0.0596
 IR Inten    --      6.9034                 0.7261                 0.0709

                     19                     20                     21
                      A                      A                      A
 Frequencies --    305.3338               311.2974               327.4333
 Red. masses --      2.2799                 2.7005                 3.0195
 Frc consts  --      0.1252                 0.1542                 0.1907
 IR Inten    --      5.6438                 0.9733                 1.7755

                     22                     23                     24
                      A                      A                      A
 Frequencies --    329.9754               349.8730               398.5388
 Red. masses --      2.8368                 2.5831                 3.2713
 Frc consts  --      0.1820                 0.1863                 0.3061
 IR Inten    --      1.1617                 0.4125                 4.8749

                     25                     26                     27
                      A                      A                      A
 Frequencies --    408.6171               410.4728               428.8128
 Red. masses --      2.0701                 2.7313                 2.3642
 Frc consts  --      0.2036                 0.2711                 0.2561
 IR Inten    --      3.0474                 1.6162                 3.2135

                     28                     29                     30
                      A                      A                      A
 Frequencies --    472.7732               538.8141               546.3794
 Red. masses --      3.3277                 4.8910                 3.0261
 Frc consts  --      0.4382                 0.8366                 0.5323
 IR Inten    --      2.4419                 3.0684                 2.9014

                     31                     32                     33
                      A                      A                      A
 Frequencies --    554.1631               600.7705               614.8001
 Red. masses --      3.4132                 4.6128                 2.4926
 Frc consts  --      0.6176                 0.9809                 0.5551
 IR Inten    --      2.0651                 1.3802                 2.9970

                     34                     35                     36
                      A                      A                      A
 Frequencies --    720.7723               729.9970               757.5322
 Red. masses --      2.3159                 1.2283                 2.0214
 Frc consts  --      0.7089                 0.3856                 0.6834
 IR Inten    --      6.2374                 1.9233                17.7534

                     37                     38                     39
                      A                      A                      A
 Frequencies --    773.1179               803.6042               829.6544
 Red. masses --      3.6573                 3.9814                 2.3302
 Frc consts  --      1.2880                 1.5149                 0.9450
 IR Inten    --      2.2876                 2.4689                44.2174

                     40                     41                     42
                      A                      A                      A
 Frequencies --    838.2909               862.2464               865.0338
 Red. masses --      2.5156                 3.1141                 2.1111
 Frc consts  --      1.0416                 1.3641                 0.9307
 IR Inten    --     38.3052                 8.8408                23.5433

                     43                     44                     45
                      A                      A                      A
 Frequencies --    907.5107               935.1297               943.3740
 Red. masses --      1.7276                 1.3383                 1.7984
 Frc consts  --      0.8383                 0.6895                 0.9430
 IR Inten    --     75.5236                37.4541                 0.8772

                     46                     47                     48
                      A                      A                      A
 Frequencies --    956.2762               968.1276               979.9261
 Red. masses --      1.9291                 2.6026                 1.6881
 Frc consts  --      1.0394                 1.4372                 0.9551
 IR Inten    --      2.3765                 9.5437                 4.7081

                     49                     50                     51
                      A                      A                      A
 Frequencies --    980.5073               989.5411              1007.2267
 Red. masses --      1.3230                 1.4620                 1.6177
 Frc consts  --      0.7494                 0.8435                 0.9669
 IR Inten    --      1.4256                 0.4721                17.2360

                     52                     53                     54
                      A                      A                      A
 Frequencies --   1043.2020              1058.7968              1065.1802
 Red. masses --      2.7028                 1.4384                 1.3928
 Frc consts  --      1.7330                 0.9501                 0.9311
 IR Inten    --     11.4730                 2.1023                 0.2191

                     55                     56                     57
                      A                      A                      A
 Frequencies --   1072.4457              1093.9012              1103.9907
 Red. masses --      1.5024                 2.7127                 1.9309
 Frc consts  --      1.0181                 1.9126                 1.3866
 IR Inten    --      6.3500                41.7199                33.4356

                     58                     59                     60
                      A                      A                      A
 Frequencies --   1132.8026              1144.6021              1148.5090
 Red. masses --      4.7184                 1.9789                 1.6514
 Frc consts  --      3.5674                 1.5275                 1.2834
 IR Inten    --    173.7787                11.0365                12.4460

                     61                     62                     63
                      A                      A                      A
 Frequencies --   1161.1756              1175.9023              1243.5407
 Red. masses --      2.7970                 2.6104                 2.6606
 Frc consts  --      2.2220                 2.1267                 2.4241
 IR Inten    --     33.1319                28.8869                 4.5576

                     64                     65                     66
                      A                      A                      A
 Frequencies --   1251.4620              1258.6444              1275.1560
 Red. masses --      2.2834                 1.3455                 1.4608
 Frc consts  --      2.1070                 1.2558                 1.3995
 IR Inten    --     12.2213                17.4254                10.0654

                     67                     68                     69
                      A                      A                      A
 Frequencies --   1278.3630              1303.9300              1326.3171
 Red. masses --      1.5349                 1.6176                 1.7779
 Frc consts  --      1.4779                 1.6204                 1.8427
 IR Inten    --     12.9100                11.2405                 5.8735

                     70                     71                     72
                      A                      A                      A
 Frequencies --   1339.2851              1353.8020              1376.7605
 Red. masses --      1.3477                 3.4826                 1.3574
 Frc consts  --      1.4243                 3.7607                 1.5159
 IR Inten    --      2.1100                 2.0859                16.2583

                     73                     74                     75
                      A                      A                      A
 Frequencies --   1401.2258              1419.5143              1420.1594
 Red. masses --      1.2725                 1.3059                 1.2271
 Frc consts  --      1.4720                 1.5504                 1.4582
 IR Inten    --     34.2757                 1.1569                 5.9491

                     76                     77                     78
                      A                      A                      A
 Frequencies --   1425.2474              1438.7291              1448.7623
 Red. masses --      1.2454                 1.2514                 1.4568
 Frc consts  --      1.4905                 1.5261                 1.8015
 IR Inten    --     10.0906                 2.1593                 4.4865

                     79                     80                     81
                      A                      A                      A
 Frequencies --   1453.2383              1476.1231              1497.5382
 Red. masses --      1.2375                 1.2006                 1.1318
 Frc consts  --      1.5399                 1.5413                 1.4955
 IR Inten    --      4.5816                 2.0724                 7.6808

                     82                     83                     84
                      A                      A                      A
 Frequencies --   1503.0805              1508.1760              1514.0157
 Red. masses --      1.0542                 1.0476                 1.0767
 Frc consts  --      1.4033                 1.4039                 1.4541
 IR Inten    --      3.9208                 0.6826                 7.0888

                     85                     86                     87
                      A                      A                      A
 Frequencies --   1522.0257              1524.0633              1525.4010
 Red. masses --      1.0486                 1.0624                 1.0728
 Frc consts  --      1.4312                 1.4539                 1.4707
 IR Inten    --      3.0583                12.4948                 8.7555

                     88                     89                     90
                      A                      A                      A
 Frequencies --   1529.8820              1531.5194              1535.0909
 Red. masses --      1.1163                 1.0578                 1.0903
 Frc consts  --      1.5394                 1.4619                 1.5138
 IR Inten    --      1.2558                 3.7782                 1.9229

                     91                     92                     93
                      A                      A                      A
 Frequencies --   1537.3214              1537.8243              1545.1703
 Red. masses --      1.9195                 1.2374                 1.1135
 Frc consts  --      2.6729                 1.7241                 1.5663
 IR Inten    --      8.7127                40.9738                22.3246

                     94                     95                     96
                      A                      A                      A
 Frequencies --   1561.5564              1582.7773              1742.9708
 Red. masses --      1.4535                 6.8181                 5.0849
 Frc consts  --      2.0883                10.0636                 9.1015
 IR Inten    --      2.5525                50.3644                 5.8141

                     97                     98                     99
                      A                      A                      A
 Frequencies --   2989.1692              3002.7677              3011.2040
 Red. masses --      1.0694                 1.0584                 1.0638
 Frc consts  --      5.6298                 5.6229                 5.6830
 IR Inten    --     24.7080                23.5386                79.1999

                    100                    101                    102
                      A                      A                      A
 Frequencies --   3040.9020              3042.6590              3043.9484
 Red. masses --      1.0378                 1.0387                 1.0354
 Frc consts  --      5.6540                 5.6656                 5.6526
 IR Inten    --     33.1335                10.8964                25.0188

                    103                    104                    105
                      A                      A                      A
 Frequencies --   3044.3582              3050.5602              3050.7893
 Red. masses --      1.0627                 1.0886                 1.0500
 Frc consts  --      5.8030                 5.9686                 5.7579
 IR Inten    --     39.5570                38.3171                35.0538

                    106                    107                    108
                      A                      A                      A
 Frequencies --   3060.1181              3076.6838              3088.1344
 Red. masses --      1.0929                 1.0988                 1.1016
 Frc consts  --      6.0297                 6.1284                 6.1896
 IR Inten    --     55.8810                28.0889                15.8650

                    109                    110                    111
                      A                      A                      A
 Frequencies --   3097.6861              3104.6501              3110.2846
 Red. masses --      1.0945                 1.1025                 1.1026
 Frc consts  --      6.1878                 6.2613                 6.2843
 IR Inten    --     12.1588                15.3688                10.2715

                    112                    113                    114
                      A                      A                      A
 Frequencies --   3113.1437              3118.4274              3134.5712
 Red. masses --      1.1024                 1.1017                 1.1028
 Frc consts  --      6.2947                 6.3121                 6.3843
 IR Inten    --     45.2409                59.6878                22.7778

                    115                    116                    117
                      A                      A                      A
 Frequencies --   3137.8969              3142.2764              3155.9279
 Red. masses --      1.1013                 1.1006                 1.0600
 Frc consts  --      6.3891                 6.4026                 6.2205
 IR Inten    --     12.4397                18.4870                11.5350

                    118                    119                    120
                      A                      A                      A
 Frequencies --   3232.7530              3285.4471              3493.3627
 Red. masses --      1.1160                 1.0941                 1.0726
 Frc consts  --      6.8715                 6.9581                 7.7122
 IR Inten    --     17.7059                 1.4773                 7.4105

 - Thermochemistry -
 -------------------
 Temperature   298.150 Kelvin.  Pressure   1.00000 Atm.
 Atom     1 has atomic number  6 and mass  12.00000

 Molecular mass:   268.16094 amu.
 Principal axes and moments of inertia in atomic units:
                           1         2         3
     Eigenvalues --  3698.732157712.75767**********
           X            0.99966   0.02468   0.00841
           Y           -0.02465   0.99969  -0.00393
           Z           -0.00850   0.00373   0.99996
 This molecule is an asymmetric top.
 Rotational symmetry number  1.
 Warning -- assumption of classical behavior for rotation
           may cause significant error
 Rotational temperatures (Kelvin)      0.02342     0.01123     0.00850
 Rotational constants (GHZ):           0.48794     0.23399     0.17711
 Zero-point vibrational energy     964384.2 (Joules/Mol)
                                  230.49335 (Kcal/Mol)
 Warning -- explicit consideration of  33 degrees of freedom as
           vibrations may cause significant error
 Vibrational temperatures:     27.30    42.70    58.35    67.70    80.28
          (Kelvin)             93.02   118.16   153.06   184.46   246.47
                              268.53   325.34   336.51   352.82   376.37
                              402.34   418.18   433.26   439.31   447.89
                              471.10   474.76   503.39   573.41   587.91
                              590.58   616.97   680.22   775.23   786.12
                              797.32   864.37   884.56  1037.03  1050.30
                             1089.92  1112.34  1156.21  1193.69  1206.11
                             1240.58  1244.59  1305.71  1345.44  1357.30
                             1375.87  1392.92  1409.90  1410.73  1423.73
                             1449.17  1500.94  1523.37  1532.56  1543.01
                             1573.88  1588.40  1629.85  1646.83  1652.45
                             1670.67  1691.86  1789.18  1800.57  1810.91
                             1834.67  1839.28  1876.06  1908.27  1926.93
                             1947.82  1980.85  2016.05  2042.36  2043.29
                             2050.61  2070.01  2084.45  2090.89  2123.81
                             2154.62  2162.60  2169.93  2178.33  2189.86
                             2192.79  2194.71  2201.16  2203.51  2208.65
                             2211.86  2212.59  2223.16  2246.73  2277.26
                             2507.75  4300.75  4320.31  4332.45  4375.18
                             4377.71  4379.56  4380.15  4389.08  4389.41
                             4402.83  4426.66  4443.14  4456.88  4466.90
                             4475.01  4479.12  4486.72  4509.95  4514.73
                             4521.03  4540.68  4651.21  4727.03  5026.17

 Zero-point correction=                           0.367315 (Hartree/Particle)
 Thermal correction to Energy=                    0.387790
 Thermal correction to Enthalpy=                  0.388735
 Thermal correction to Gibbs Free Energy=         0.316372
 Sum of electronic and zero-point Energies=          -1130.537963
 Sum of electronic and thermal Energies=             -1130.517487
 Sum of electronic and thermal Enthalpies=           -1130.516543
 Sum of electronic and thermal Free Energies=        -1130.588905

                     E (Thermal)             CV                S
                      KCal/Mol        Cal/Mol-Kelvin    Cal/Mol-Kelvin
 Total                  243.342             76.288            152.299
 Electronic               0.000              0.000              0.000
 Translational            0.889              2.981             42.658
 Rotational               0.889              2.981             34.030
 Vibrational            241.565             70.327             75.611
 Vibration     1          0.593              1.986              6.739
 Vibration     2          0.593              1.984              5.851
 Vibration     3          0.594              1.981              5.232
 Vibration     4          0.595              1.979              4.937
 Vibration     5          0.596              1.975              4.600
 Vibration     6          0.597              1.971              4.310
 Vibration     7          0.600              1.961              3.839
 Vibration     8          0.605              1.944              3.334
 Vibration     9          0.611              1.925              2.973
 Vibration    10          0.626              1.878              2.421
 Vibration    11          0.632              1.858              2.261
 Vibration    12          0.650              1.801              1.910
 Vibration    13          0.654              1.789              1.849
 Vibration    14          0.660              1.771              1.765
 Vibration    15          0.669              1.743              1.651
 Vibration    16          0.680              1.711              1.536
 Vibration    17          0.687              1.691              1.470
 Vibration    18          0.693              1.672              1.411
 Vibration    19          0.696              1.664              1.387
 Vibration    20          0.700              1.652              1.355
 Vibration    21          0.711              1.621              1.273
 Vibration    22          0.713              1.616              1.260
 Vibration    23          0.727              1.576              1.167
 Vibration    24          0.765              1.473              0.968
 Vibration    25          0.773              1.452              0.932
 Vibration    26          0.775              1.447              0.925
 Vibration    27          0.790              1.408              0.863
 Vibration    28          0.830              1.310              0.730
 Vibration    29          0.894              1.164              0.568
 Vibration    30          0.902              1.148              0.552
 Vibration    31          0.910              1.131              0.536
 Vibration    32          0.959              1.030              0.448
 Vibration    33          0.974              1.001              0.425

 Optimization completed.
    -- Stationary point found.
 Normal termination of Gaussian 16 at Fri Dec 11 22:20:00 2020.

 ----------------------------------------------------------------------
 # B3LYP/6-311++G(d,p) empiricaldispersion=gd3bj scf=xqc pop=npa geom=c
 heck
 ----------------------------------------------------------------------

 ---------------------------------------
 CID_114467701_JID_8698_Energie_neutraal
 ---------------------------------------
 Structure from the checkpoint file:  "JID_8698.chk"
 Charge =  0 Multiplicity = 1

 SCF Done:  E(RB3LYP) =  -1131.13659603     A.U. after   16 cycles
 Normal termination of Gaussian 16 at Fri Dec 11 22:32:21 2020.

 ----------------------------------------------------------------------
 # B3LYP/6-311++G(d,p) empiricaldispersion=gd3bj scf=xqc pop=npa geom=c
 heck
 ----------------------------------------------------------------------

 -------------------------------------
 CID_114467701_JID_8698_Energie_kation
 -------------------------------------
 Structure from the checkpoint file:  "JID_8698.chk"
 Charge =  1 Multiplicity = 2

 SCF Done:  E(UB3LYP) =  -1130.83996057     A.U. after   32 cycles
 Normal termination of Gaussian 16 at Fri Dec 11 23:08:03 2020.
 Gaussian 16:  ES64L-G16RevA.03 25-Dec-2016

 ----------------------------------------------------------------------
 # B3LYP/6-311++G(d,p) empiricaldispersion=gd3bj scf=xqc pop=npa geom=c
 heck
 ----------------------------------------------------------------------

 ------------------------------------
 CID_114467701_JID_8698_Energie_anion
 ------------------------------------
 Structure from the checkpoint file:  "JID_8698.chk"
 Charge = -1 Multiplicity = 2

                         Standard orientation:
 ---------------------------------------------------------------------
 Center     Atomic      Atomic             Coordinates (Angstroms)
 Number     Number       Type             X           Y           Z
 ---------------------------------------------------------------------
      1          6           0       -3.283518    1.766865   -1.099426
      2          6           0       -4.130357    0.851287   -0.256732
      3          6           0       -5.409646    0.579498   -0.526637
      4          6           0       -3.438553    0.240933    0.941718
      5          8           0       -2.233583   -0.430703    0.595627
      6          6           0       -2.441029   -1.635463   -0.133420
      7          6           0       -1.074256   -2.216784   -0.442196
      8          7           0       -0.379722   -2.552492    0.801260
      9          6           0        1.041799   -2.800505    0.609728
     10          6           0        1.802609   -1.562975    0.172517
     11          7           0        1.434488   -0.369405    0.525736
     12          6           0        2.237624    0.619889   -0.013399
     13          6           0        3.261254    0.150890   -0.788401
     14         16           0        3.219308   -1.588115   -0.871877
     15          6           0        1.868360    2.061238    0.279403
     16          6           0        1.906919    2.282052    1.805613
     17          6           0        2.835185    3.033550   -0.409486
     18          6           0        0.430592    2.297984   -0.233660
     19          1           0       -3.844957    2.171870   -1.946287
     20          1           0       -2.403460    1.236330   -1.480138
     21          1           0       -2.900499    2.605329   -0.502362
     22          1           0       -5.990287   -0.099501    0.093311
     23          1           0       -5.926763    1.031925   -1.369182
     24          1           0       -3.128496    1.028738    1.639101
     25          1           0       -4.119901   -0.440726    1.473794
     26          1           0       -3.032028   -2.339719    0.473223
     27          1           0       -2.991329   -1.439222   -1.064587
     28          1           0       -1.198452   -3.128910   -1.040887
     29          1           0       -0.524401   -1.485132   -1.057408
     30          1           0       -0.470244   -1.741339    1.412802
     31          1           0        1.464453   -3.162883    1.555986
     32          1           0        1.177351   -3.603603   -0.124136
     33          1           0        4.019033    0.709944   -1.316860
     34          1           0        2.919076    2.130146    2.197528
     35          1           0        1.594240    3.304176    2.049827
     36          1           0        1.236125    1.581178    2.310396
     37          1           0        2.822141    2.905645   -1.497961
     38          1           0        2.547064    4.067457   -0.190717
     39          1           0        3.863769    2.891232   -0.058206
     40          1           0        0.385772    2.192347   -1.324006
     41          1           0       -0.260590    1.572350    0.204470
     42          1           0        0.096850    3.310354    0.024611
 ---------------------------------------------------------------------

 SCF Done:  E(UB3LYP) =  -1131.12274644     A.U. after   33 cycles
 SCF Done:  E(UB3LYP) =  -1131.12274644     a.u. after    1 cycles

 The electronic state is 2-A.
 Alpha  occ. eigenvalues --  -88.77865 -19.03616 -14.20562 -14.20504 -10.12979
 Alpha  occ. eigenvalues --  -10.12843 -10.12530 -10.11679 -10.10420 -10.10099
 Alpha  occ. eigenvalues --  -10.09477 -10.09273 -10.09218 -10.07228 -10.07044
 Alpha  occ. eigenvalues --  -10.06345 -10.05830 -10.05355  -7.86498  -5.82767
 Alpha  occ. eigenvalues --   -5.82426  -5.82115  -0.94904  -0.86635  -0.81588
 Alpha  occ. eigenvalues --   -0.72688  -0.71844  -0.69458  -0.67176  -0.63498
 Alpha  occ. eigenvalues --   -0.59987  -0.59255  -0.58694  -0.58419  -0.56445
 Alpha  occ. eigenvalues --   -0.51200  -0.50053  -0.46600  -0.44856  -0.42890
 Alpha  occ. eigenvalues --   -0.41218  -0.40266  -0.39486  -0.38914  -0.37053
 Alpha  occ. eigenvalues --   -0.36327  -0.35473  -0.34403  -0.33269  -0.32975
 Alpha  occ. eigenvalues --   -0.32826  -0.31813  -0.31161  -0.30633  -0.29692
 Alpha  occ. eigenvalues --   -0.29632  -0.28536  -0.28336  -0.27974  -0.27262
 Alpha  occ. eigenvalues --   -0.26625  -0.26513  -0.26196  -0.23759  -0.23523
 Alpha  occ. eigenvalues --   -0.23009  -0.22749  -0.18331  -0.17649  -0.17402
 Alpha  occ. eigenvalues --   -0.17066  -0.14366  -0.14041   0.04308
 Alpha virt. eigenvalues --    0.05795   0.06306   0.06909   0.07123   0.07435
 Alpha virt. eigenvalues --    0.07794   0.08410   0.08822   0.09077   0.09555
 Alpha virt. eigenvalues --    0.09924   0.10241   0.10297   0.10728   0.11260

  Beta  occ. eigenvalues --  -88.77853 -19.03614 -14.20537 -14.20497 -10.12836
  Beta  occ. eigenvalues --  -10.12827 -10.12522 -10.11687 -10.10419 -10.10093
  Beta  occ. eigenvalues --  -10.09403 -10.09267 -10.09216 -10.07198 -10.07018
  Beta  occ. eigenvalues --  -10.06320 -10.05805 -10.05342  -7.86486  -5.82761
  Beta  occ. eigenvalues --   -5.82421  -5.82072  -0.94900  -0.86524  -0.81570
  Beta  occ. eigenvalues --   -0.72652  -0.71817  -0.69364  -0.67127  -0.63397
  Beta  occ. eigenvalues --   -0.59941  -0.59210  -0.58653  -0.58383  -0.56406
  Beta  occ. eigenvalues --   -0.51166  -0.49945  -0.46502  -0.44802  -0.42811
  Beta  occ. eigenvalues --   -0.41170  -0.40239  -0.39454  -0.38855  -0.37024
  Beta  occ. eigenvalues --   -0.36239  -0.35428  -0.34363  -0.33227  -0.32925
  Beta  occ. eigenvalues --   -0.32772  -0.31756  -0.31053  -0.30602  -0.29652
  Beta  occ. eigenvalues --   -0.29559  -0.28479  -0.28297  -0.27927  -0.27181
  Beta  occ. eigenvalues --   -0.26600  -0.26479  -0.26161  -0.23727  -0.23479
  Beta  occ. eigenvalues --   -0.22971  -0.22725  -0.18059  -0.17633  -0.17351
  Beta  occ. eigenvalues --   -0.17008  -0.14323  -0.13653
  Beta virt. eigenvalues --    0.06208   0.06653   0.06978   0.07050   0.07488
  Beta virt. eigenvalues --    0.07924   0.08113   0.08642   0.09024   0.09279
  Beta virt. eigenvalues --    0.09675   0.10120   0.10496   0.10591   0.10897

 Mulliken charges and spin densities:
               1          2
     1  C    0.199102  -0.976242
     2  C   -0.700707   1.972570
     3  C    1.633712  -2.194618
     4  C   -0.765850  -0.191463
     5  O   -0.027440   0.017211
     6  C   -0.259222  -0.174939
     7  C   -0.375099  -0.075078
     8  N    0.099311  -0.000858
     9  C    0.370241  -0.645793
    10  C    0.709301   0.026012
    11  N    0.301094   0.023221
    12  C   -0.529180  -1.831225
    13  C    0.814943   0.425830
    14  S   -0.735145   0.058394
    15  C   -0.552122   1.651234
    16  C    0.058417  -0.684490
    17  C    0.255922  -0.850222
    18  C   -1.420575   0.475753
    19  H   -0.460581   0.618425
    20  H    0.038585   0.130632
    21  H   -0.021317   0.175418
    22  H   -0.063476   0.189368
    23  H   -0.275948   0.405631
    24  H   -0.065602   0.268230
    25  H   -0.211237   0.323577
    26  H    0.124060   0.023890
    27  H    0.126110   0.046084
    28  H    0.037080   0.112052
    29  H    0.159799  -0.009713
    30  H    0.233348   0.009773
    31  H   -0.038076   0.238693
    32  H    0.168862  -0.025454
    33  H   -0.246729   0.537638
    34  H    0.003143   0.135568
    35  H   -0.116575   0.272894
    36  H    0.011561   0.135105
    37  H   -0.121217   0.253988
    38  H   -0.196959   0.347064
    39  H    0.057024   0.081403
    40  H   -0.033658   0.179208
    41  H    0.787248  -0.608361
    42  H    0.027852   0.133591
 Sum of Mulliken charges =  -1.00000   1.00000

 Dipole moment (field-independent basis, Debye):
    X=              2.6253    Y=             -5.0321    Z=             -0.0639  Tot=              5.6761
 Quadrupole moment (field-independent basis, Debye-Ang):
   XX=           -209.2297   YY=           -171.1555   ZZ=           -156.5534
   XY=              2.6172   XZ=             -3.0956   YZ=              7.4150

 Summary of Natural Population Analysis:

                                       Natural Population
                Natural  -----------------------------------------------
    Atom  No    Charge         Core      Valence    Rydberg      Total
 -----------------------------------------------------------------------
      C    1   -0.30292      0.99961     2.29625    0.00706     3.30292
      C    2   -0.01622      0.99953     2.00668    0.01001     3.01622
      C    3   -0.19258      0.99948     2.18462    0.00849     3.19258
      C    4   -0.02092      0.99951     2.00780    0.01361     3.02092
      O    5   -0.30211      0.99988     3.29305    0.00917     4.30211
      C    6   -0.01293      0.99958     2.00265    0.01070     3.01293
      C    7   -0.09651      0.99962     2.08674    0.01015     3.09651
      N    8   -0.33837      0.99975     2.82676    0.01186     3.83837
      C    9   -0.10644      0.99957     2.09551    0.01136     3.10644
      C   10    0.05551      0.99960     1.92861    0.01628     2.94449
      N   11   -0.25391      0.99961     2.74240    0.01190     3.75391
      C   12    0.07366      0.99945     1.90996    0.01693     2.92634
      C   13   -0.19846      0.99944     2.18924    0.00978     3.19846
      S   14    0.17515      4.99943     2.80584    0.01958     7.82485
      C   15   -0.05762      0.99955     2.04581    0.01227     3.05762
      C   16   -0.27853      0.99963     2.27323    0.00567     3.27853
      C   17   -0.28482      0.99964     2.27789    0.00729     3.28482
      C   18   -0.28180      0.99963     2.27452    0.00766     3.28180
      H   19    0.10244      0.00000     0.39648    0.00108     0.39756
      H   20    0.10852      0.00000     0.38964    0.00184     0.39148
      H   21    0.10631      0.00000     0.39234    0.00135     0.39369
      H   22    0.09289      0.00000     0.40594    0.00117     0.40711
      H   23    0.09482      0.00000     0.40398    0.00120     0.40518
      H   24    0.09653      0.00000     0.40205    0.00143     0.40347
      H   25    0.08216      0.00000     0.41636    0.00148     0.41784
      H   26    0.08042      0.00000     0.41784    0.00173     0.41958
      H   27    0.08580      0.00000     0.41285    0.00135     0.41420
      H   28    0.08913      0.00000     0.40961    0.00126     0.41087
      H   29    0.08978      0.00000     0.40798    0.00224     0.41022
      H   30    0.18504      0.00000     0.31038    0.00459     0.31496
      H   31    0.10498      0.00000     0.39361    0.00141     0.39502
      H   32    0.09528      0.00000     0.40361    0.00111     0.40472
      H   33    0.11377      0.00000     0.38497    0.00127     0.38623
      H   34    0.09766      0.00000     0.40141    0.00093     0.40234
      H   35    0.09729      0.00000     0.40173    0.00098     0.40271
      H   36    0.10807      0.00000     0.39063    0.00129     0.39193
      H   37    0.10182      0.00000     0.39706    0.00112     0.39818
      H   38    0.10121      0.00000     0.39789    0.00090     0.39879
      H   39    0.09896      0.00000     0.40002    0.00102     0.40104
      H   40    0.09827      0.00000     0.40044    0.00130     0.40173
      H   41    0.11267      0.00000     0.38516    0.00217     0.38733
      H   42    0.09599      0.00000     0.40290    0.00111     0.40401
 =======================================================================
   * Total *   -0.00000     21.99250    50.77243    0.23506    73.00000

 Normal termination of Gaussian 16 at Fri Dec 11 23:44:20 2020.
