 Gaussian 16, Revision A.03,

 -----------------------------------------------------------
 # opt freq B3LYP/6-31G(d) empiricaldispersion=gd3bj scf=xqc
 -----------------------------------------------------------

 -------------------------------
 CID_150939861_JID_1250_neutraal
 -------------------------------
 Symbolic Z-matrix:
 Charge =  0 Multiplicity = 1

 SCF Done:  E(RB3LYP) =  -475.714510460     A.U. after   15 cycles
 SCF Done:  E(RB3LYP) =  -475.720852187     A.U. after   12 cycles
 SCF Done:  E(RB3LYP) =  -475.721706768     A.U. after   12 cycles
 SCF Done:  E(RB3LYP) =  -475.722058954     A.U. after   12 cycles
 SCF Done:  E(RB3LYP) =  -475.722150432     A.U. after   11 cycles
 SCF Done:  E(RB3LYP) =  -475.722273983     A.U. after   12 cycles
 SCF Done:  E(RB3LYP) =  -475.722336127     A.U. after   11 cycles
 SCF Done:  E(RB3LYP) =  -475.722345118     A.U. after   10 cycles
 SCF Done:  E(RB3LYP) =  -475.722349009     A.U. after   10 cycles
 SCF Done:  E(RB3LYP) =  -475.722349737     A.U. after    8 cycles
 SCF Done:  E(RB3LYP) =  -475.722350253     A.U. after    8 cycles
 SCF Done:  E(RB3LYP) =  -475.722350365     A.U. after    7 cycles
 SCF Done:  E(RB3LYP) =  -475.722350434     A.U. after    7 cycles
 Optimization completed.
    -- Stationary point found.

 1\1\GINC-NODE125\FOpt\RB3LYP\6-31G(d)\C8H11N3\VSC10255\08-Dec-2020\0\\
 # opt freq B3LYP/6-31G(d) empiricaldispersion=gd3bj scf=xqc\\CID_15093
 9861_JID_1250_neutraal\\0,1\C,1.0619525909,0.0719814208,-0.0386226563\
 N,0.8003849328,1.4149281292,0.4509944107\C,1.1388393267,2.5205845305,-
 0.44861636\C,1.1254977678,3.8729194112,0.2741373267\C,-0.1254215739,4.
 0648271849,1.0939760032\C,-0.7886295298,2.9837470075,1.5266349611\C,-0
 .3352784832,1.6043117203,1.1982103306\N,-1.0921091392,0.6859002707,1.7
 229436857\C,-2.0884922411,1.4066658263,2.4552566371\C,-1.9641221658,2.

 Normal termination of Gaussian 16 at Tue Dec  8 19:33:43 2020.

 --------------------------------------------------------------------
 #N Geom=AllCheck Guess=TCheck SCRF=Check GenChk RB3LYP/6-31G(d) Freq
 --------------------------------------------------------------------

 Structure from the checkpoint file:  "JID_1250.chk"
 -------------------------------
 CID_150939861_JID_1250_neutraal
 -------------------------------
 Charge =  0 Multiplicity = 1

 SCF Done:  E(RB3LYP) =  -475.722350434     A.U. after    1 cycles

  Exact polarizability: 129.948  -3.805 121.542  -0.495  -1.795  55.238
 Approx polarizability: 176.027  -9.979 218.394   3.537  -1.433  85.118

                      1                      2                      3
                      A                      A                      A
 Frequencies --    108.5630               147.1818               163.2356
 Red. masses --      3.6796                 1.2791                 2.6988
 Frc consts  --      0.0256                 0.0163                 0.0424
 IR Inten    --      3.7763                 2.0964                 3.2630

                      4                      5                      6
                      A                      A                      A
 Frequencies --    184.4835               209.6404               239.3588
 Red. masses --      1.7128                 1.5790                 2.0338
 Frc consts  --      0.0343                 0.0409                 0.0687
 IR Inten    --     14.9032                23.6449                12.8764

                      7                      8                      9
                      A                      A                      A
 Frequencies --    278.1401               321.4350               343.8888
 Red. masses --      2.0982                 2.8244                 3.3046
 Frc consts  --      0.0956                 0.1719                 0.2303
 IR Inten    --      4.3507                 1.3283                 2.9240

                     10                     11                     12
                      A                      A                      A
 Frequencies --    396.7209               461.8101               491.9547
 Red. masses --      4.4468                 4.3482                 4.1228
 Frc consts  --      0.4124                 0.5464                 0.5879
 IR Inten    --     14.5948                 5.0726                12.5694

                     13                     14                     15
                      A                      A                      A
 Frequencies --    558.4210               568.5648               632.3842
 Red. masses --      3.3697                 4.2072                 2.7351
 Frc consts  --      0.6191                 0.8013                 0.6445
 IR Inten    --      7.9134                 9.1157                 6.6834

                     16                     17                     18
                      A                      A                      A
 Frequencies --    691.8050               750.2020               771.5350
 Red. masses --      5.4286                 3.8548                 4.3711
 Frc consts  --      1.5307                 1.2782                 1.5330
 IR Inten    --     34.9042                29.6701                 4.9129

                     19                     20                     21
                      A                      A                      A
 Frequencies --    821.0261               842.8205               875.1294
 Red. masses --      1.4655                 1.5286                 1.5794
 Frc consts  --      0.5821                 0.6398                 0.7127
 IR Inten    --    136.1764               119.1940                10.9277

                     22                     23                     24
                      A                      A                      A
 Frequencies --    899.3608               932.5069               938.1540
 Red. masses --      2.1981                 2.2719                 3.4863
 Frc consts  --      1.0475                 1.1640                 1.8079
 IR Inten    --      8.4189                 0.0681                12.5518

                     25                     26                     27
                      A                      A                      A
 Frequencies --   1054.2273              1076.4890              1086.5581
 Red. masses --      2.4400                 1.7714                 3.9846
 Frc consts  --      1.5978                 1.2094                 2.7716
 IR Inten    --     19.0126                10.4013                58.2918

                     28                     29                     30
                      A                      A                      A
 Frequencies --   1097.7552              1142.9212              1160.4522
 Red. masses --      1.9239                 1.5017                 1.3154
 Frc consts  --      1.3660                 1.1558                 1.0437
 IR Inten    --      6.9345                 3.8701                15.9018

                     31                     32                     33
                      A                      A                      A
 Frequencies --   1190.0635              1236.2117              1253.8312
 Red. masses --      2.4615                 1.3039                 1.5031
 Frc consts  --      2.0540                 1.1740                 1.3922
 IR Inten    --     10.8034                 8.2629                 8.0555

                     34                     35                     36
                      A                      A                      A
 Frequencies --   1284.9442              1286.8542              1344.3241
 Red. masses --      2.3139                 1.8383                 1.4649
 Frc consts  --      2.2510                 1.7936                 1.5598
 IR Inten    --     57.7342                 9.2266                20.2436

                     37                     38                     39
                      A                      A                      A
 Frequencies --   1387.0398              1407.1132              1410.4127
 Red. masses --      1.6346                 1.5500                 2.9064
 Frc consts  --      1.8529                 1.8081                 3.4064
 IR Inten    --      6.1199                30.0702                19.6311

                     40                     41                     42
                      A                      A                      A
 Frequencies --   1464.5209              1490.1820              1497.4974
 Red. masses --      1.3167                 1.8791                 1.1686
 Frc consts  --      1.6640                 2.4585                 1.5440
 IR Inten    --     26.1275                54.5162                18.1480

                     43                     44                     45
                      A                      A                      A
 Frequencies --   1514.7517              1528.7513              1538.3064
 Red. masses --      1.1064                 1.0672                 1.2792
 Frc consts  --      1.4957                 1.4695                 1.7835
 IR Inten    --     12.5769                 8.5547                13.3817

                     46                     47                     48
                      A                      A                      A
 Frequencies --   1642.8207              1656.0614              1692.3363
 Red. masses --      3.3217                 5.2728                 1.3614
 Frc consts  --      5.2820                 8.5200                 2.2972
 IR Inten    --     49.2145               253.3201                39.2424

                     49                     50                     51
                      A                      A                      A
 Frequencies --   1743.0998              2963.7667              3006.3569
 Red. masses --      8.1733                 1.0735                 1.0541
 Frc consts  --     14.6316                 5.5558                 5.6132
 IR Inten    --     27.3201                64.7114                86.5567

                     52                     53                     54
                      A                      A                      A
 Frequencies --   3008.4382              3084.6734              3097.2833
 Red. masses --      1.0704                 1.0909                 1.0900
 Frc consts  --      5.7079                 6.1157                 6.1606
 IR Inten    --     29.4738                26.9495                15.1248

                     55                     56                     57
                      A                      A                      A
 Frequencies --   3101.1176              3172.5204              3177.7187
 Red. masses --      1.0842                 1.1000                 1.0910
 Frc consts  --      6.1431                 6.5230                 6.4909
 IR Inten    --     58.2661                 3.9319                13.2725

                     58                     59                     60
                      A                      A                      A
 Frequencies --   3228.1243              3475.1431              3579.4099
 Red. masses --      1.0949                 1.0512                 1.0917
 Frc consts  --      6.7226                 7.4796                 8.2407
 IR Inten    --     32.2491                 1.8716                 3.8305

 - Thermochemistry -
 -------------------
 Temperature   298.150 Kelvin.  Pressure   1.00000 Atm.
 Atom     1 has atomic number  6 and mass  12.00000

 Molecular mass:   149.09530 amu.
 Principal axes and moments of inertia in atomic units:
                           1         2         3
     Eigenvalues --   931.599331792.669842662.74417
           X            0.99994   0.00808  -0.00677
           Y           -0.00811   0.99995  -0.00544
           Z            0.00672   0.00550   0.99996
 This molecule is an asymmetric top.
 Rotational symmetry number  1.
 Warning -- assumption of classical behavior for rotation
           may cause significant error
 Rotational temperatures (Kelvin)      0.09297     0.04832     0.03253
 Rotational constants (GHZ):           1.93725     1.00673     0.67777
 Zero-point vibrational energy     488736.7 (Joules/Mol)
                                  116.81088 (Kcal/Mol)
 Warning -- explicit consideration of  14 degrees of freedom as
           vibrations may cause significant error
 Vibrational temperatures:    156.20   211.76   234.86   265.43   301.63
          (Kelvin)            344.38   400.18   462.47   494.78   570.79
                              664.44   707.81   803.44   818.04   909.86
                              995.35  1079.37  1110.07  1181.27  1212.63
                             1259.12  1293.98  1341.67  1349.79  1516.80
                             1548.83  1563.31  1579.42  1644.41  1669.63
                             1712.24  1778.63  1803.98  1848.75  1851.50
                             1934.18  1995.64  2024.52  2029.27  2107.12
                             2144.04  2154.56  2179.39  2199.53  2213.28
                             2363.65  2382.70  2434.89  2507.93  4264.20
                             4325.48  4328.47  4438.16  4456.30  4461.82
                             4564.55  4572.03  4644.55  4999.96  5149.97

 Zero-point correction=                           0.186150 (Hartree/Particle)
 Thermal correction to Energy=                    0.196048
 Thermal correction to Enthalpy=                  0.196992
 Thermal correction to Gibbs Free Energy=         0.151504
 Sum of electronic and zero-point Energies=           -475.536200
 Sum of electronic and thermal Energies=              -475.526303
 Sum of electronic and thermal Enthalpies=            -475.525359
 Sum of electronic and thermal Free Energies=         -475.570846

                     E (Thermal)             CV                S
                      KCal/Mol        Cal/Mol-Kelvin    Cal/Mol-Kelvin
 Total                  123.022             38.379             95.737
 Electronic               0.000              0.000              0.000
 Translational            0.889              2.981             40.909
 Rotational               0.889              2.981             29.876
 Vibrational            121.244             32.418             24.952
 Vibration     1          0.606              1.942              3.294
 Vibration     2          0.617              1.906              2.708
 Vibration     3          0.623              1.888              2.512
 Vibration     4          0.631              1.861              2.283
 Vibration     5          0.642              1.826              2.047
 Vibration     6          0.657              1.780              1.808
 Vibration     7          0.679              1.714              1.545
 Vibration     8          0.707              1.632              1.303
 Vibration     9          0.723              1.588              1.194
 Vibration    10          0.763              1.477              0.975
 Vibration    11          0.820              1.335              0.761
 Vibration    12          0.848              1.268              0.679
 Vibration    13          0.914              1.121              0.527
 Vibration    14          0.925              1.099              0.507

 Optimization completed.
    -- Stationary point found.

 1\1\GINC-NODE125\Freq\RB3LYP\6-31G(d)\C8H11N3\VSC10255\08-Dec-2020\0\\
 #N Geom=AllCheck Guess=TCheck SCRF=Check GenChk RB3LYP/6-31G(d) Freq\\
 CID_150939861_JID_1250_neutraal\\0,1\C,1.0619525909,0.0719814208,-0.03
 86226563\N,0.8003849328,1.4149281292,0.4509944107\C,1.1388393267,2.520
 5845305,-0.44861636\C,1.1254977678,3.8729194112,0.2741373267\C,-0.1254
 215739,4.0648271849,1.0939760032\C,-0.7886295298,2.9837470075,1.526634
 9611\C,-0.3352784832,1.6043117203,1.1982103306\N,-1.0921091392,0.68590
 02707,1.7229436857\C,-2.0884922411,1.4066658263,2.4552566371\C,-1.9641

 Normal termination of Gaussian 16 at Tue Dec  8 19:38:17 2020.

 ----------------------------------------------------------------------
 # B3LYP/6-311++G(d,p) empiricaldispersion=gd3bj scf=xqc pop=npa geom=c
 heck
 ----------------------------------------------------------------------

 ---------------------------------------
 CID_150939861_JID_1250_Energie_neutraal
 ---------------------------------------
 Structure from the checkpoint file:  "JID_1250.chk"
 Charge =  0 Multiplicity = 1

 SCF Done:  E(RB3LYP) =  -475.855647869     A.U. after   15 cycles
 Normal termination of Gaussian 16 at Tue Dec  8 19:40:16 2020.

 ----------------------------------------------------------------------
 # B3LYP/6-311++G(d,p) empiricaldispersion=gd3bj scf=xqc pop=npa geom=c
 heck
 ----------------------------------------------------------------------

 -------------------------------------
 CID_150939861_JID_1250_Energie_kation
 -------------------------------------
 Structure from the checkpoint file:  "JID_1250.chk"
 Charge =  1 Multiplicity = 2

 SCF Done:  E(UB3LYP) =  -475.610203274     A.U. after   20 cycles
 Normal termination of Gaussian 16 at Tue Dec  8 19:44:05 2020.
 Gaussian 16:  ES64L-G16RevA.03 25-Dec-2016

 ------------------------------------
 CID_150939861_JID_1250_Energie_anion
 ------------------------------------
 Structure from the checkpoint file:  "JID_1250.chk"
 Charge = -1 Multiplicity = 2

                         Standard orientation:
 ---------------------------------------------------------------------
 Center     Atomic      Atomic             Coordinates (Angstroms)
 Number     Number       Type             X           Y           Z
 ---------------------------------------------------------------------
      1          6           0       -2.513785   -1.516477   -0.004435
      2          7           0       -1.612855   -0.391676   -0.190973
      3          6           0       -2.052139    0.898922    0.345416
      4          6           0       -1.195875    2.058759   -0.177030
      5          6           0        0.279742    1.774315   -0.052889
      6          6           0        0.693424    0.500106   -0.020781
      7          6           0       -0.266769   -0.636001   -0.080120
      8          7           0        0.321539   -1.795762   -0.058561
      9          6           0        1.720091   -1.496112   -0.005379
     10          6           0        1.998177   -0.164787    0.024797
     11          7           0        3.217843    0.525076    0.176547
     12          1           0       -2.641181   -1.770639    1.059910
     13          1           0       -2.094169   -2.385437   -0.512750
     14          1           0       -3.491331   -1.272181   -0.431575
     15          1           0       -2.014333    0.885491    1.449683
     16          1           0       -3.096434    1.047875    0.053958
     17          1           0       -1.432473    2.247569   -1.236579
     18          1           0       -1.464959    2.971230    0.367281
     19          1           0        0.980608    2.606879   -0.047386
     20          1           0        2.426830   -2.317641    0.026284
     21          1           0        4.009052   -0.111850    0.156595
     22          1           0        3.355502    1.222901   -0.551985
 ---------------------------------------------------------------------

 SCF Done:  E(UB3LYP) =  -475.856808593     A.U. after   31 cycles

 The electronic state is 2-A.
 Alpha  occ. eigenvalues --  -14.17637 -14.16496 -14.10285 -10.06773 -10.06080
 Alpha  occ. eigenvalues --  -10.03686 -10.03439 -10.01362  -9.99779  -9.99064
 Alpha  occ. eigenvalues --   -9.98752  -0.81250  -0.75790  -0.72820  -0.65326
 Alpha  occ. eigenvalues --   -0.57997  -0.56172  -0.54628  -0.47121  -0.44513
 Alpha  occ. eigenvalues --   -0.39699  -0.37304  -0.35022  -0.33813  -0.32947
 Alpha  occ. eigenvalues --   -0.30386  -0.29428  -0.28249  -0.27252  -0.24430
 Alpha  occ. eigenvalues --   -0.23485  -0.23100  -0.22088  -0.20400  -0.18285
 Alpha  occ. eigenvalues --   -0.16137  -0.10633  -0.09782  -0.08819  -0.01536
 Alpha  occ. eigenvalues --    0.05828
 Alpha virt. eigenvalues --    0.08770   0.09079   0.10013   0.11241   0.11589
 Alpha virt. eigenvalues --    0.12106   0.13128   0.13746   0.14331   0.14425
 Alpha virt. eigenvalues --    0.16130   0.17422   0.18454   0.18761   0.19940

  Beta  occ. eigenvalues --  -14.17567 -14.16485 -14.10253 -10.06754 -10.06082
  Beta  occ. eigenvalues --  -10.03482 -10.03409 -10.01261  -9.99615  -9.98727
  Beta  occ. eigenvalues --   -9.98424  -0.80999  -0.75643  -0.72634  -0.64893
  Beta  occ. eigenvalues --   -0.57599  -0.55975  -0.54294  -0.46961  -0.43723
  Beta  occ. eigenvalues --   -0.39431  -0.37067  -0.34899  -0.33667  -0.32789
  Beta  occ. eigenvalues --   -0.30038  -0.29225  -0.28115  -0.27025  -0.24183
  Beta  occ. eigenvalues --   -0.23157  -0.22584  -0.21516  -0.20111  -0.18000
  Beta  occ. eigenvalues --   -0.15750  -0.09997  -0.08727  -0.07619  -0.00616
  Beta virt. eigenvalues --    0.08677   0.09146   0.09969   0.11235   0.11454
  Beta virt. eigenvalues --    0.12049   0.12479   0.13094   0.13698   0.14288
  Beta virt. eigenvalues --    0.14543   0.16098   0.17431   0.18498   0.18805

 Mulliken charges and spin densities:
               1          2
     1  C   -0.231372  -0.031626
     2  N    0.159329   0.018720
     3  C   -0.229203   0.031372
     4  C   -0.338807  -0.237966
     5  C   -0.660734   0.591613
     6  C    0.732367   0.030584
     7  C   -0.753571   0.252721
     8  N   -0.267593   0.029445
     9  C   -0.116804   0.089959
    10  C    0.130118  -0.131899
    11  N   -0.433768   0.009638
    12  H    0.053388   0.039738
    13  H    0.152088   0.008824
    14  H    0.099906   0.001021
    15  H    0.048671   0.007896
    16  H    0.121426  -0.002584
    17  H    0.096786   0.020550
    18  H    0.078331   0.043923
    19  H    0.037123   0.028944
    20  H    0.058019   0.016218
    21  H    0.190516   0.031064
    22  H    0.073784   0.151845
 Sum of Mulliken charges =  -1.00000   1.00000

 Dipole moment (field-independent basis, Debye):
    X=             -3.1002    Y=              1.5277    Z=             -0.2587  Tot=              3.4659
 Quadrupole moment (field-independent basis, Debye-Ang):
   XX=            -82.3760   YY=            -89.4269   ZZ=            -78.9677
   XY=             -1.9322   XZ=             -0.9141   YZ=             -0.6414

 Summary of Natural Population Analysis:

                                       Natural Population
                Natural  -----------------------------------------------
    Atom  No    Charge         Core      Valence    Rydberg      Total
 -----------------------------------------------------------------------
      C    1   -0.17437      0.99966     2.16774    0.00696     3.17437
      N    2   -0.25013      0.99963     2.73870    0.01180     3.75013
      C    3   -0.06830      0.99963     2.05959    0.00907     3.06830
      C    4   -0.21096      0.99963     2.20210    0.00923     3.21096
      C    5    0.06539      0.99950     1.92501    0.01011     2.93461
      C    6   -0.07451      0.99946     2.06338    0.01167     3.07451
      C    7    0.26209      0.99952     1.72121    0.01717     2.73791
      N    8   -0.29899      0.99968     2.78615    0.01316     3.79899
      C    9   -0.01071      0.99949     1.99491    0.01631     3.01071
      C   10    0.04500      0.99940     1.94243    0.01317     2.95500
      N   11   -0.41032      0.99973     2.89957    0.01102     3.91032
      H   12    0.07777      0.00000     0.41830    0.00393     0.42223
      H   13    0.10891      0.00000     0.38945    0.00164     0.39109
      H   14    0.08236      0.00000     0.41644    0.00120     0.41764
      H   15    0.07476      0.00000     0.42197    0.00328     0.42524
      H   16    0.08483      0.00000     0.41345    0.00173     0.41517
      H   17    0.09977      0.00000     0.39832    0.00191     0.40023
      H   18    0.09431      0.00000     0.40371    0.00198     0.40569
      H   19    0.08098      0.00000     0.41769    0.00133     0.41902
      H   20    0.07595      0.00000     0.42276    0.00128     0.42405
      H   21    0.17235      0.00000     0.32631    0.00134     0.32765
      H   22    0.17382      0.00000     0.32347    0.00271     0.32618
 =======================================================================
   * Total *    0.00000     10.99532    28.85266    0.15202    40.00000

 Normal termination of Gaussian 16 at Tue Dec  8 19:50:53 2020.
