 Gaussian 16, Revision A.03,

 -----------------------------------------------------------
 # opt freq B3LYP/6-31G(d) empiricaldispersion=gd3bj scf=xqc
 -----------------------------------------------------------

 -------------------------------
 CID_137946042_JID_6529_neutraal
 -------------------------------
 Symbolic Z-matrix:
 Charge =  0 Multiplicity = 1

 SCF Done:  E(RB3LYP) =  -729.440318731     A.U. after   15 cycles
 SCF Done:  E(RB3LYP) =  -729.459466730     A.U. after   12 cycles
 SCF Done:  E(RB3LYP) =  -729.461552613     A.U. after   12 cycles
 SCF Done:  E(RB3LYP) =  -729.462247504     A.U. after   12 cycles
 SCF Done:  E(RB3LYP) =  -729.462491736     A.U. after   13 cycles
 SCF Done:  E(RB3LYP) =  -729.462616294     A.U. after   11 cycles
 SCF Done:  E(RB3LYP) =  -729.462762696     A.U. after   11 cycles
 SCF Done:  E(RB3LYP) =  -729.462822943     A.U. after   11 cycles
 SCF Done:  E(RB3LYP) =  -729.462868858     A.U. after   11 cycles
 SCF Done:  E(RB3LYP) =  -729.462909656     A.U. after   11 cycles
 SCF Done:  E(RB3LYP) =  -729.467686143     A.U. after   11 cycles
 SCF Done:  E(RB3LYP) =  -729.467697007     A.U. after   11 cycles
 SCF Done:  E(RB3LYP) =  -729.467697820     A.U. after   10 cycles
 SCF Done:  E(RB3LYP) =  -729.467698333     A.U. after    9 cycles
 SCF Done:  E(RB3LYP) =  -729.467698489     A.U. after    8 cycles
 Optimization completed.
    -- Stationary point found.
 Normal termination of Gaussian 16 at Thu Dec 10 23:38:59 2020.

 --------------------------------------------------------------------
 #N Geom=AllCheck Guess=TCheck SCRF=Check GenChk RB3LYP/6-31G(d) Freq
 --------------------------------------------------------------------

 Structure from the checkpoint file:  "JID_6529.chk"
 -------------------------------
 CID_137946042_JID_6529_neutraal
 -------------------------------
 Charge =  0 Multiplicity = 1

 SCF Done:  E(RB3LYP) =  -729.467698489     A.U. after    1 cycles

  Exact polarizability: 181.519  -4.471 152.537  -0.004   0.001  82.603
 Approx polarizability: 246.614  -1.514 249.789  -0.009   0.004 127.929

                      1                      2                      3
                      A                      A                      A
 Frequencies --     22.8946                51.8496                67.9673
 Red. masses --     10.2955                 3.0327                 4.3422
 Frc consts  --      0.0032                 0.0048                 0.0118
 IR Inten    --      0.7389                 0.0570                 0.9663

                      4                      5                      6
                      A                      A                      A
 Frequencies --     69.7727                95.6390               156.2072
 Red. masses --      5.6640                 3.2811                 4.0300
 Frc consts  --      0.0162                 0.0177                 0.0579
 IR Inten    --      0.1746                 2.8341                 0.8764

                      7                      8                      9
                      A                      A                      A
 Frequencies --    158.6193               223.2454               234.5887
 Red. masses --      5.5681                 2.1924                 4.6286
 Frc consts  --      0.0825                 0.0644                 0.1501
 IR Inten    --      1.0557                 0.1094                 0.9545

                     10                     11                     12
                      A                      A                      A
 Frequencies --    278.1997               291.8546               342.9067
 Red. masses --      1.4596                 5.0585                 3.9288
 Frc consts  --      0.0666                 0.2539                 0.2722
 IR Inten    --      0.5179                 0.1737                 0.1740

                     13                     14                     15
                      A                      A                      A
 Frequencies --    352.1267               431.7224               473.3971
 Red. masses --      3.3874                 4.7101                 4.3722
 Frc consts  --      0.2475                 0.5172                 0.5773
 IR Inten    --      0.5584                23.6443                 5.9445

                     16                     17                     18
                      A                      A                      A
 Frequencies --    488.2380               525.5789               541.7813
 Red. masses --      3.1595                 4.3933                 2.1513
 Frc consts  --      0.4437                 0.7150                 0.3720
 IR Inten    --      3.5933                 1.3975                 1.2912

                     19                     20                     21
                      A                      A                      A
 Frequencies --    576.1564               581.8541               591.6196
 Red. masses --      3.1661                 2.5101                 3.9130
 Frc consts  --      0.6192                 0.5007                 0.8069
 IR Inten    --      0.6552                 0.0196                 2.9654

                     22                     23                     24
                      A                      A                      A
 Frequencies --    613.8908               680.2841               689.8310
 Red. masses --      1.2984                 5.4967                 3.5251
 Frc consts  --      0.2883                 1.4988                 0.9883
 IR Inten    --     74.5100                 1.0708                49.8504

                     25                     26                     27
                      A                      A                      A
 Frequencies --    733.8445               748.8992               765.3194
 Red. masses --      3.2599                 3.8394                 1.3610
 Frc consts  --      1.0343                 1.2687                 0.4697
 IR Inten    --      9.8733                21.1911                58.3274

                     28                     29                     30
                      A                      A                      A
 Frequencies --    810.7190               836.5826               850.3232
 Red. masses --      5.1315                 2.5191                 2.7617
 Frc consts  --      1.9872                 1.0388                 1.1765
 IR Inten    --      8.5196                 1.8025                 1.6160

                     31                     32                     33
                      A                      A                      A
 Frequencies --    866.3807               928.3019               936.0622
 Red. masses --      1.6435                 5.0921                 1.3704
 Frc consts  --      0.7268                 2.5854                 0.7074
 IR Inten    --      3.0354                 0.9376                 0.8004

                     34                     35                     36
                      A                      A                      A
 Frequencies --    970.9006               977.7242               982.9928
 Red. masses --      1.2425                 3.3512                 1.1956
 Frc consts  --      0.6901                 1.8875                 0.6807
 IR Inten    --      0.0003                 5.2341                 0.0003

                     37                     38                     39
                      A                      A                      A
 Frequencies --   1004.8188              1052.1407              1064.8938
 Red. masses --      1.0505                 3.8640                 3.2679
 Frc consts  --      0.6249                 2.5202                 2.1834
 IR Inten    --      0.0510                 0.2597                11.7271

                     40                     41                     42
                      A                      A                      A
 Frequencies --   1075.0825              1086.7542              1125.7142
 Red. masses --      4.3129                 2.6279                 2.6326
 Frc consts  --      2.9370                 1.8286                 1.9656
 IR Inten    --     35.4302                 8.3208                68.2233

                     43                     44                     45
                      A                      A                      A
 Frequencies --   1135.3179              1136.0494              1156.6562
 Red. masses --      1.3311                 1.7122                 1.5030
 Frc consts  --      1.0109                 1.3020                 1.1847
 IR Inten    --      0.0876               104.1282                 3.2312

                     46                     47                     48
                      A                      A                      A
 Frequencies --   1165.3044              1174.2563              1175.7475
 Red. masses --      1.5281                 1.4681                 1.7459
 Frc consts  --      1.2226                 1.1927                 1.4220
 IR Inten    --      1.0984                 5.2778                 1.0830

                     49                     50                     51
                      A                      A                      A
 Frequencies --   1179.0332              1186.5258              1198.5015
 Red. masses --      2.1767                 1.2717                 1.0961
 Frc consts  --      1.7828                 1.0549                 0.9277
 IR Inten    --     18.9310                 1.0126                 3.2200

                     52                     53                     54
                      A                      A                      A
 Frequencies --   1216.4431              1222.9098              1281.2274
 Red. masses --      1.7055                 1.5595                 1.8837
 Frc consts  --      1.4869                 1.3741                 1.8218
 IR Inten    --     70.6303                76.0993                 8.3008

                     55                     56                     57
                      A                      A                      A
 Frequencies --   1290.9592              1319.7812              1364.4944
 Red. masses --      3.3841                 1.6882                 6.5571
 Frc consts  --      3.3229                 1.7325                 7.1930
 IR Inten    --    158.1418                40.6713                20.6292

                     58                     59                     60
                      A                      A                      A
 Frequencies --   1367.8282              1423.7447              1489.2077
 Red. masses --      3.2324                 3.8784                 1.5101
 Frc consts  --      3.5632                 4.6320                 1.9732
 IR Inten    --      0.2660                99.2900                39.0425

                     61                     62                     63
                      A                      A                      A
 Frequencies --   1511.4447              1520.8168              1527.6826
 Red. masses --      1.6969                 1.0479                 1.0929
 Frc consts  --      2.2840                 1.4280                 1.5028
 IR Inten    --      2.8662                 4.8372                 0.0798

                     64                     65                     66
                      A                      A                      A
 Frequencies --   1529.4410              1533.7548              1551.4591
 Red. masses --      1.1004                 1.1549                 2.0280
 Frc consts  --      1.5165                 1.6007                 2.8760
 IR Inten    --      0.0948                58.5877                31.6631

                     67                     68                     69
                      A                      A                      A
 Frequencies --   1588.2029              1645.3403              1662.9714
 Red. masses --      1.2717                 6.2884                 5.9998
 Frc consts  --      1.8899                10.0300                 9.7759
 IR Inten    --      2.2855                 9.9264                23.9324

                     70                     71                     72
                      A                      A                      A
 Frequencies --   1840.2549              3027.6191              3071.9615
 Red. masses --     10.0652                 1.0345                 1.0547
 Frc consts  --     20.0829                 5.5870                 5.8644
 IR Inten    --    302.8246                59.2114                29.1190

                     73                     74                     75
                      A                      A                      A
 Frequencies --   3079.2209              3084.8145              3087.2174
 Red. masses --      1.0568                 1.0583                 1.1066
 Frc consts  --      5.9038                 5.9335                 6.2143
 IR Inten    --     62.3487                 0.5381                42.8507

                     76                     77                     78
                      A                      A                      A
 Frequencies --   3136.2060              3159.0400              3159.1452
 Red. masses --      1.1118                 1.1098                 1.1001
 Frc consts  --      6.4432                 6.5255                 6.4685
 IR Inten    --     32.4462                 8.2842                20.2060

                     79                     80                     81
                      A                      A                      A
 Frequencies --   3163.1481              3186.8871              3195.2213
 Red. masses --      1.1076                 1.0853                 1.0901
 Frc consts  --      6.5292                 6.4945                 6.5569
 IR Inten    --     37.6814                 0.1190                16.7299

                     82                     83                     84
                      A                      A                      A
 Frequencies --   3211.6328              3228.8644              3683.4147
 Red. masses --      1.0955                 1.0921                 1.0639
 Frc consts  --      6.6575                 6.7081                 8.5044
 IR Inten    --     28.4297                12.9842                49.3021

 - Thermochemistry -
 -------------------
 Temperature   298.150 Kelvin.  Pressure   1.00000 Atm.
 Atom     1 has atomic number  6 and mass  12.00000

 Molecular mass:   218.09429 amu.
 Principal axes and moments of inertia in atomic units:
                           1         2         3
     Eigenvalues --  1583.537115871.019097154.49698
           X            0.99999   0.00503  -0.00000
           Y           -0.00503   0.99999  -0.00000
           Z            0.00000   0.00000   1.00000
 This molecule is an asymmetric top.
 Rotational symmetry number  1.
 Warning -- assumption of classical behavior for rotation
           may cause significant error
 Rotational temperatures (Kelvin)      0.05470     0.01475     0.01211
 Rotational constants (GHZ):           1.13969     0.30740     0.25225
 Zero-point vibrational energy     647343.8 (Joules/Mol)
                                  154.71888 (Kcal/Mol)
 Warning -- explicit consideration of  22 degrees of freedom as
           vibrations may cause significant error
 Vibrational temperatures:     32.94    74.60    97.79   100.39   137.60
          (Kelvin)            224.75   228.22   321.20   337.52   400.27
                              419.91   493.37   506.63   621.15   681.11
                              702.47   756.19   779.50   828.96   837.16
                              851.21   883.25   978.78   992.51  1055.84
                             1077.50  1101.12  1166.44  1203.66  1223.43
                             1246.53  1335.62  1346.78  1396.91  1406.73
                             1414.31  1445.71  1513.80  1532.14  1546.80
                             1563.60  1619.65  1633.47  1634.52  1664.17
                             1676.61  1689.49  1691.64  1696.37  1707.15
                             1724.38  1750.19  1759.49  1843.40  1857.40
                             1898.87  1963.20  1968.00  2048.45  2142.64
                             2174.63  2188.12  2197.99  2200.52  2206.73
                             2232.20  2285.07  2367.28  2392.64  2647.72
                             4356.07  4419.87  4430.31  4438.36  4441.82
                             4512.30  4545.15  4545.31  4551.06  4585.22
                             4597.21  4620.82  4645.62  5299.61

 Zero-point correction=                           0.246560 (Hartree/Particle)
 Thermal correction to Energy=                    0.260653
 Thermal correction to Enthalpy=                  0.261597
 Thermal correction to Gibbs Free Energy=         0.204075
 Sum of electronic and zero-point Energies=           -729.221138
 Sum of electronic and thermal Energies=              -729.207046
 Sum of electronic and thermal Enthalpies=            -729.206101
 Sum of electronic and thermal Free Energies=         -729.263623

                     E (Thermal)             CV                S
                      KCal/Mol        Cal/Mol-Kelvin    Cal/Mol-Kelvin
 Total                  163.562             54.425            121.065
 Electronic               0.000              0.000              0.000
 Translational            0.889              2.981             42.042
 Rotational               0.889              2.981             32.564
 Vibrational            161.785             48.463             46.459
 Vibration     1          0.593              1.985              6.366
 Vibration     2          0.596              1.977              4.746
 Vibration     3          0.598              1.969              4.211
 Vibration     4          0.598              1.969              4.160
 Vibration     5          0.603              1.952              3.541
 Vibration     6          0.620              1.896              2.595
 Vibration     7          0.621              1.893              2.566
 Vibration     8          0.649              1.806              1.933
 Vibration     9          0.654              1.788              1.844
 Vibration    10          0.679              1.714              1.545
 Vibration    11          0.687              1.689              1.463
 Vibration    12          0.722              1.590              1.199
 Vibration    13          0.729              1.571              1.157
 Vibration    14          0.793              1.401              0.853
 Vibration    15          0.830              1.309              0.728
 Vibration    16          0.844              1.276              0.688
 Vibration    17          0.881              1.193              0.597
 Vibration    18          0.897              1.158              0.561
 Vibration    19          0.933              1.083              0.493
 Vibration    20          0.939              1.071              0.482
 Vibration    21          0.949              1.050              0.464
 Vibration    22          0.973              1.002              0.426

 Optimization completed.
    -- Stationary point found.
 Normal termination of Gaussian 16 at Thu Dec 10 23:49:29 2020.

 ----------------------------------------------------------------------
 # B3LYP/6-311++G(d,p) empiricaldispersion=gd3bj scf=xqc pop=npa geom=c
 heck
 ----------------------------------------------------------------------

 ---------------------------------------
 CID_137946042_JID_6529_Energie_neutraal
 ---------------------------------------
 Structure from the checkpoint file:  "JID_6529.chk"
 Charge =  0 Multiplicity = 1

 SCF Done:  E(RB3LYP) =  -729.673364019     A.U. after   14 cycles
 Normal termination of Gaussian 16 at Thu Dec 10 23:54:02 2020.

 ----------------------------------------------------------------------
 # B3LYP/6-311++G(d,p) empiricaldispersion=gd3bj scf=xqc pop=npa geom=c
 heck
 ----------------------------------------------------------------------

 -------------------------------------
 CID_137946042_JID_6529_Energie_kation
 -------------------------------------
 Structure from the checkpoint file:  "JID_6529.chk"
 Charge =  1 Multiplicity = 2

 SCF Done:  E(UB3LYP) =  -729.376969172     A.U. after   23 cycles
 Normal termination of Gaussian 16 at Fri Dec 11 00:04:31 2020.
 Gaussian 16:  ES64L-G16RevA.03 25-Dec-2016

 ----------------------------------------------------------------------
 # B3LYP/6-311++G(d,p) empiricaldispersion=gd3bj scf=xqc pop=npa geom=c
 heck
 ----------------------------------------------------------------------

 ------------------------------------
 CID_137946042_JID_6529_Energie_anion
 ------------------------------------
 Structure from the checkpoint file:  "JID_6529.chk"
 Charge = -1 Multiplicity = 2

                         Standard orientation:
 ---------------------------------------------------------------------
 Center     Atomic      Atomic             Coordinates (Angstroms)
 Number     Number       Type             X           Y           Z
 ---------------------------------------------------------------------
      1          6           0        2.262020    2.897158   -0.000164
      2          8           0        1.440757    1.742109    0.000349
      3          6           0        2.049327    0.516931    0.000120
      4          6           0        3.433853    0.333282   -0.000026
      5          6           0        3.961812   -0.961394   -0.000166
      6          6           0        3.118939   -2.067993   -0.000152
      7          6           0        1.735547   -1.872474   -0.000015
      8          6           0        1.179678   -0.593785    0.000113
      9          6           0       -0.292711   -0.402238    0.000178
     10          6           0       -1.166485    0.331360    1.072433
     11          6           0       -2.164344   -0.196702    0.000035
     12          6           0       -1.166309    0.331580   -1.072105
     13          6           0       -1.375158   -1.525070   -0.000038
     14          6           0       -3.647260   -0.056102   -0.000080
     15          8           0       -4.443561   -0.969900   -0.000033
     16          8           0       -4.027643    1.248371   -0.000270
     17          1           0        2.897093    2.938600   -0.894625
     18          1           0        2.897033    2.939383    0.894305
     19          1           0        1.580159    3.749146   -0.000573
     20          1           0        4.105454    1.183477   -0.000012
     21          1           0        5.040189   -1.093222   -0.000280
     22          1           0        3.528507   -3.073433   -0.000219
     23          1           0        1.065899   -2.727984   -0.000034
     24          1           0       -1.222838   -0.142741    2.057572
     25          1           0       -1.044875    1.413709    1.140808
     26          1           0       -1.044697    1.413932   -1.140251
     27          1           0       -1.222486   -0.142370   -2.057322
     28          1           0       -1.453043   -2.135310    0.904983
     29          1           0       -1.452870   -2.135099   -0.905222
     30          1           0       -5.003403    1.239966   -0.000289
 ---------------------------------------------------------------------

 SCF Done:  E(UB3LYP) =  -729.661331635     A.U. after   33 cycles
 SCF Done:  E(UB3LYP) =  -729.661331635     a.u. after    1 cycles

 The electronic state is 2-A.
 Alpha  occ. eigenvalues --  -19.08099 -19.06345 -19.03023 -10.21898 -10.14659
 Alpha  occ. eigenvalues --  -10.12543 -10.11950 -10.11636 -10.09296 -10.09295
 Alpha  occ. eigenvalues --  -10.09250 -10.09181 -10.08872 -10.08773 -10.08294
 Alpha  occ. eigenvalues --  -10.08185  -1.02130  -0.97946  -0.93345  -0.84152
 Alpha  occ. eigenvalues --   -0.76773  -0.67998  -0.66298  -0.61679  -0.60424
 Alpha  occ. eigenvalues --   -0.58976  -0.58753  -0.54349  -0.50703  -0.48557
 Alpha  occ. eigenvalues --   -0.45677  -0.45160  -0.42214  -0.40169  -0.39775
 Alpha  occ. eigenvalues --   -0.37860  -0.37613  -0.37508  -0.36828  -0.36073
 Alpha  occ. eigenvalues --   -0.35457  -0.33287  -0.32743  -0.29965  -0.29692
 Alpha  occ. eigenvalues --   -0.27623  -0.27238  -0.26538  -0.25274  -0.24682
 Alpha  occ. eigenvalues --   -0.24188  -0.23957  -0.23755  -0.23463  -0.23038
 Alpha  occ. eigenvalues --   -0.18918  -0.16356  -0.13571   0.04032
 Alpha virt. eigenvalues --    0.05423   0.06379   0.06430   0.07314   0.07915
 Alpha virt. eigenvalues --    0.08502   0.08504   0.08945   0.09147   0.09867
 Alpha virt. eigenvalues --    0.10251   0.11117   0.11831   0.11990   0.12814

  Beta  occ. eigenvalues --  -19.08056 -19.06336 -19.03012 -10.21897 -10.14659
  Beta  occ. eigenvalues --  -10.12484 -10.11945 -10.11635 -10.09288 -10.09286
  Beta  occ. eigenvalues --  -10.09243 -10.09181 -10.08869 -10.08759 -10.08275
  Beta  occ. eigenvalues --  -10.08178  -1.02078  -0.97926  -0.93300  -0.84146
  Beta  occ. eigenvalues --   -0.76759  -0.67975  -0.66274  -0.61628  -0.60365
  Beta  occ. eigenvalues --   -0.58957  -0.58737  -0.54318  -0.50658  -0.48505
  Beta  occ. eigenvalues --   -0.45647  -0.45116  -0.42173  -0.40144  -0.39747
  Beta  occ. eigenvalues --   -0.37832  -0.37580  -0.37486  -0.36814  -0.36052
  Beta  occ. eigenvalues --   -0.35425  -0.33249  -0.32700  -0.29946  -0.29660
  Beta  occ. eigenvalues --   -0.27598  -0.27227  -0.26511  -0.25258  -0.24661
  Beta  occ. eigenvalues --   -0.24168  -0.23938  -0.23736  -0.23441  -0.23017
  Beta  occ. eigenvalues --   -0.18881  -0.16346  -0.13562
  Beta virt. eigenvalues --    0.06130   0.06427   0.06664   0.07245   0.07843
  Beta virt. eigenvalues --    0.07943   0.08499   0.09042   0.09071   0.09584
  Beta virt. eigenvalues --    0.10450   0.10611   0.11364   0.11876   0.12415

 Mulliken charges and spin densities:
               1          2
     1  C    1.238901  -1.490401
     2  O   -0.164184   0.059584
     3  C   -0.314468   0.129579
     4  C   -0.848773   0.398440
     5  C    0.975124  -1.326730
     6  C    0.031178  -0.639695
     7  C   -0.822696   0.595995
     8  C    1.070341  -0.082296
     9  C    0.811550   0.246054
    10  C   -0.158469  -0.839863
    11  C    0.601135   0.500683
    12  C   -0.157605  -0.840633
    13  C   -0.953666  -0.024204
    14  C    0.315898  -0.338804
    15  O   -0.305344   0.006222
    16  O   -0.148742   0.025972
    17  H   -0.351224   0.504327
    18  H   -0.351191   0.504359
    19  H   -0.495429   0.670861
    20  H   -0.481654   0.666202
    21  H   -0.527116   0.690348
    22  H   -0.067429   0.222536
    23  H    0.031616   0.104795
    24  H    0.051645   0.122549
    25  H    0.035588   0.142106
    26  H    0.035768   0.141918
    27  H    0.051492   0.122706
    28  H    0.104258   0.063933
    29  H    0.104270   0.063929
    30  H   -0.310773   0.599528
 Sum of Mulliken charges =  -1.00000   1.00000

 Dipole moment (field-independent basis, Debye):
    X=             -1.8706    Y=             -5.2762    Z=              0.0012  Tot=              5.5980
 Quadrupole moment (field-independent basis, Debye-Ang):
   XX=           -203.0282   YY=           -146.8133   ZZ=           -119.2417
   XY=             -7.5319   XZ=              0.0005   YZ=              0.0020

 Summary of Natural Population Analysis:

                                       Natural Population
                Natural  -----------------------------------------------
    Atom  No    Charge         Core      Valence    Rydberg      Total
 -----------------------------------------------------------------------
      C    1   -0.10007      0.99960     2.09141    0.00906     3.10007
      O    2   -0.27510      0.99986     3.26417    0.01107     4.27510
      C    3    0.17300      0.99935     1.81315    0.01450     2.82700
      C    4   -0.13989      0.99952     2.13103    0.00934     3.13989
      C    5   -0.09127      0.99957     2.08131    0.01038     3.09127
      C    6   -0.11788      0.99956     2.10756    0.01075     3.11788
      C    7   -0.08720      0.99953     2.07985    0.00782     3.08720
      C    8   -0.06806      0.99946     2.05025    0.01835     3.06806
      C    9    0.01280      0.99954     1.97360    0.01405     2.98720
      C   10   -0.15720      0.99961     2.14722    0.01037     3.15720
      C   11   -0.08915      0.99946     2.07076    0.01893     3.08915
      C   12   -0.15719      0.99961     2.14721    0.01037     3.15719
      C   13   -0.17454      0.99963     2.16443    0.01048     3.17454
      C   14    0.40435      0.99957     1.57075    0.02534     2.59565
      O   15   -0.30311      0.99987     3.29763    0.00560     4.30311
      O   16   -0.33995      0.99988     3.33355    0.00652     4.33995
      H   17    0.08692      0.00000     0.41085    0.00222     0.41308
      H   18    0.08692      0.00000     0.41086    0.00222     0.41308
      H   19    0.09650      0.00000     0.40194    0.00156     0.40350
      H   20    0.11074      0.00000     0.38713    0.00213     0.38926
      H   21    0.10230      0.00000     0.39637    0.00134     0.39770
      H   22    0.10028      0.00000     0.39890    0.00082     0.39972
      H   23    0.10062      0.00000     0.39813    0.00125     0.39938
      H   24    0.09238      0.00000     0.40640    0.00122     0.40762
      H   25    0.10374      0.00000     0.39444    0.00182     0.39626
      H   26    0.10374      0.00000     0.39444    0.00182     0.39626
      H   27    0.09238      0.00000     0.40640    0.00122     0.40762
      H   28    0.09656      0.00000     0.40228    0.00116     0.40344
      H   29    0.09656      0.00000     0.40228    0.00116     0.40344
      H   30    0.24096      0.00000     0.24671    0.01233     0.25904
 =======================================================================
   * Total *    0.00019     15.99365    41.78097    0.22519    57.99981

 Normal termination of Gaussian 16 at Fri Dec 11 00:19:40 2020.
