 Gaussian 16, Revision A.03,

 -----------------------------------------------------------
 # opt freq B3LYP/6-31G(d) empiricaldispersion=gd3bj scf=xqc
 -----------------------------------------------------------

 ------------------------------
 CID_64320823_JID_4982_neutraal
 ------------------------------
 Symbolic Z-matrix:
 Charge =  0 Multiplicity = 1

 SCF Done:  E(RB3LYP) =  -682.781325679     A.U. after   15 cycles
 SCF Done:  E(RB3LYP) =  -682.787377836     A.U. after   12 cycles
 SCF Done:  E(RB3LYP) =  -682.788190550     A.U. after   11 cycles
 SCF Done:  E(RB3LYP) =  -682.788398185     A.U. after   11 cycles
 SCF Done:  E(RB3LYP) =  -682.788463826     A.U. after   11 cycles
 SCF Done:  E(RB3LYP) =  -682.788482825     A.U. after   10 cycles
 SCF Done:  E(RB3LYP) =  -682.788492665     A.U. after   10 cycles
 SCF Done:  E(RB3LYP) =  -682.788495803     A.U. after    9 cycles
 SCF Done:  E(RB3LYP) =  -682.788496477     A.U. after    8 cycles
 SCF Done:  E(RB3LYP) =  -682.788496764     A.U. after    8 cycles
 SCF Done:  E(RB3LYP) =  -682.788496894     A.U. after    7 cycles
 SCF Done:  E(RB3LYP) =  -682.788497022     A.U. after    8 cycles
 SCF Done:  E(RB3LYP) =  -682.788497066     A.U. after    8 cycles
 SCF Done:  E(RB3LYP) =  -682.788497077     A.U. after    7 cycles
 Optimization completed.
    -- Stationary point found.
 Normal termination of Gaussian 16 at Thu Dec 10 11:01:14 2020.

 --------------------------------------------------------------------
 #N Geom=AllCheck Guess=TCheck SCRF=Check GenChk RB3LYP/6-31G(d) Freq
 --------------------------------------------------------------------

 Structure from the checkpoint file:  "JID_4982.chk"
 ------------------------------
 CID_64320823_JID_4982_neutraal
 ------------------------------
 Charge =  0 Multiplicity = 1

 SCF Done:  E(RB3LYP) =  -682.788497077     A.U. after    1 cycles

  Exact polarizability: 147.609  12.411 114.549   8.754  -7.959  82.885
 Approx polarizability: 191.790  14.069 184.032  18.942 -24.096 123.858

                      1                      2                      3
                      A                      A                      A
 Frequencies --     21.7231                24.9405                53.6311
 Red. masses --      4.7469                 3.9913                 3.0209
 Frc consts  --      0.0013                 0.0015                 0.0051
 IR Inten    --      0.2899                 0.0171                 0.2647

                      4                      5                      6
                      A                      A                      A
 Frequencies --     74.1097                89.8891               115.9428
 Red. masses --      6.2784                 4.6487                 3.1968
 Frc consts  --      0.0203                 0.0221                 0.0253
 IR Inten    --      2.2150                 1.0789                 1.4009

                      7                      8                      9
                      A                      A                      A
 Frequencies --    169.8096               189.9153               227.4715
 Red. masses --      2.4708                 4.5892                 1.6666
 Frc consts  --      0.0420                 0.0975                 0.0508
 IR Inten    --      0.1620                 1.4673                 0.2585

                     10                     11                     12
                      A                      A                      A
 Frequencies --    258.9600               293.2812               306.0385
 Red. masses --      3.4016                 1.5696                 1.2732
 Frc consts  --      0.1344                 0.0795                 0.0703
 IR Inten    --      4.7350                 2.2229                37.1345

                     13                     14                     15
                      A                      A                      A
 Frequencies --    325.2086               348.5125               368.9558
 Red. masses --      2.5885                 4.7081                 3.7641
 Frc consts  --      0.1613                 0.3369                 0.3019
 IR Inten    --      2.6225                20.6147                 0.6478

                     16                     17                     18
                      A                      A                      A
 Frequencies --    392.3032               430.2609               521.0361
 Red. masses --      3.5617                 2.2327                 3.1121
 Frc consts  --      0.3230                 0.2435                 0.4978
 IR Inten    --      5.7581                 0.4852                 0.2533

                     19                     20                     21
                      A                      A                      A
 Frequencies --    560.4801               561.4181               618.4469
 Red. masses --      2.1478                 2.9572                 1.4575
 Frc consts  --      0.3975                 0.5492                 0.3285
 IR Inten    --     87.9547                22.7218               282.8381

                     22                     23                     24
                      A                      A                      A
 Frequencies --    664.7837               735.5355               748.9081
 Red. masses --      2.2358                 1.2784                 6.7899
 Frc consts  --      0.5822                 0.4075                 2.2437
 IR Inten    --     13.6283                12.9397                16.3277

                     25                     26                     27
                      A                      A                      A
 Frequencies --    762.3030               778.4684               783.5799
 Red. masses --      5.9324                 5.1098                 2.0264
 Frc consts  --      2.0311                 1.8245                 0.7331
 IR Inten    --     25.8700                32.7473                12.5925

                     28                     29                     30
                      A                      A                      A
 Frequencies --    849.0902               868.6028               914.8581
 Red. masses --      2.0967                 3.5313                 2.0470
 Frc consts  --      0.8906                 1.5697                 1.0094
 IR Inten    --      7.3316                14.6214                 6.5410

                     31                     32                     33
                      A                      A                      A
 Frequencies --    918.8638              1002.4253              1021.9176
 Red. masses --      2.1283                 1.8541                 1.7653
 Frc consts  --      1.0587                 1.0977                 1.0862
 IR Inten    --      2.1187                11.4475                 5.9653

                     34                     35                     36
                      A                      A                      A
 Frequencies --   1029.0373              1045.8282              1075.4060
 Red. masses --      6.1672                 1.8139                 4.7012
 Frc consts  --      3.8477                 1.1689                 3.2034
 IR Inten    --      9.0144                 1.8963               127.4116

                     37                     38                     39
                      A                      A                      A
 Frequencies --   1100.3593              1103.2911              1156.5897
 Red. masses --      1.8338                 1.8436                 2.0455
 Frc consts  --      1.3082                 1.3222                 1.6122
 IR Inten    --     15.6562                 2.9615                 1.5147

                     40                     41                     42
                      A                      A                      A
 Frequencies --   1159.8994              1191.2583              1241.5066
 Red. masses --      2.0209                 4.9542                 2.8396
 Frc consts  --      1.6019                 4.1422                 2.5787
 IR Inten    --      2.4565               125.2438               224.1576

                     43                     44                     45
                      A                      A                      A
 Frequencies --   1250.6653              1265.9244              1306.1450
 Red. masses --      1.2596                 1.2720                 1.1794
 Frc consts  --      1.1608                 1.2010                 1.1855
 IR Inten    --      1.2628                 3.4807                 2.2708

                     46                     47                     48
                      A                      A                      A
 Frequencies --   1344.4253              1345.8306              1386.0198
 Red. masses --      1.1496                 2.6460                 1.4320
 Frc consts  --      1.2243                 2.8237                 1.6208
 IR Inten    --     29.1658               326.0964                 4.3823

                     49                     50                     51
                      A                      A                      A
 Frequencies --   1400.1486              1416.1816              1425.8833
 Red. masses --      1.6214                 1.4997                 1.8757
 Frc consts  --      1.8728                 1.7721                 2.2469
 IR Inten    --      7.4129                15.5283                43.0628

                     52                     53                     54
                      A                      A                      A
 Frequencies --   1444.3414              1448.2125              1492.3186
 Red. masses --      1.3365                 1.9734                 5.9097
 Frc consts  --      1.6427                 2.4385                 7.7542
 IR Inten    --      3.5083                56.0977                 7.1144

                     55                     56                     57
                      A                      A                      A
 Frequencies --   1507.1552              1520.8893              1522.1361
 Red. masses --      1.0751                 1.0884                 1.0764
 Frc consts  --      1.4389                 1.4833                 1.4693
 IR Inten    --      1.9087                 5.1831                 2.5568

                     58                     59                     60
                      A                      A                      A
 Frequencies --   1533.9191              1537.3067              1545.9539
 Red. masses --      1.0599                 1.0605                 1.0917
 Frc consts  --      1.4694                 1.4766                 1.5372
 IR Inten    --     10.6418                 1.6796                 9.5399

                     61                     62                     63
                      A                      A                      A
 Frequencies --   1569.8628              1592.6069              1677.4970
 Red. masses --      3.2191                 4.8670                 1.4406
 Frc consts  --      4.6741                 7.2732                 2.3884
 IR Inten    --    218.9267                93.3716               233.9826

                     64                     65                     66
                      A                      A                      A
 Frequencies --   1790.9345              3038.8021              3040.8013
 Red. masses --     12.2598                 1.0670                 1.0601
 Frc consts  --     23.1682                 5.8054                 5.7752
 IR Inten    --    204.5560                16.5713                21.0209

                     67                     68                     69
                      A                      A                      A
 Frequencies --   3044.0980              3055.0328              3069.9197
 Red. masses --      1.0394                 1.0620                 1.0970
 Frc consts  --      5.6745                 5.8399                 6.0912
 IR Inten    --     24.8812                23.1821                29.6612

                     70                     71                     72
                      A                      A                      A
 Frequencies --   3079.3510              3086.2010              3100.0963
 Red. masses --      1.0684                 1.0921                 1.0996
 Frc consts  --      5.9689                 6.1284                 6.2264
 IR Inten    --     14.6784                11.8268                53.1546

                     73                     74                     75
                      A                      A                      A
 Frequencies --   3108.6870              3115.0390              3128.2338
 Red. masses --      1.1022                 1.1015                 1.1075
 Frc consts  --      6.2755                 6.2974                 6.3857
 IR Inten    --     65.2059                45.4384                28.7424

                     76                     77                     78
                      A                      A                      A
 Frequencies --   3568.8182              3657.3194              3675.3436
 Red. masses --      1.0472                 1.0819                 1.0993
 Frc consts  --      7.8586                 8.5266                 8.7489
 IR Inten    --     29.8288                99.2926                27.3825

 - Thermochemistry -
 -------------------
 Temperature   298.150 Kelvin.  Pressure   1.00000 Atm.
 Atom     1 has atomic number  6 and mass  12.00000

 Molecular mass:   198.11168 amu.
 Principal axes and moments of inertia in atomic units:
                           1         2         3
     Eigenvalues --  1363.157526010.736226625.56108
           X            0.99999  -0.00135  -0.00421
           Y            0.00141   0.99989   0.01456
           Z            0.00419  -0.01456   0.99989
 This molecule is an asymmetric top.
 Rotational symmetry number  1.
 Warning -- assumption of classical behavior for rotation
           may cause significant error
 Rotational temperatures (Kelvin)      0.06354     0.01441     0.01307
 Rotational constants (GHZ):           1.32394     0.30025     0.27239
 Zero-point vibrational energy     617254.8 (Joules/Mol)
                                  147.52744 (Kcal/Mol)
 Warning -- explicit consideration of  21 degrees of freedom as
           vibrations may cause significant error
 Vibrational temperatures:     31.25    35.88    77.16   106.63   129.33
          (Kelvin)            166.82   244.32   273.25   327.28   372.59
                              421.97   440.32   467.90   501.43   530.85
                              564.44   619.05   749.65   806.41   807.76
                              889.81   956.48  1058.27  1077.51  1096.78
                             1120.04  1127.40  1221.65  1249.73  1316.28
                             1322.04  1442.27  1470.31  1480.56  1504.71
                             1547.27  1583.17  1587.39  1664.07  1668.84
                             1713.95  1786.25  1799.43  1821.38  1879.25
                             1934.33  1936.35  1994.17  2014.50  2037.57
                             2051.53  2078.09  2083.65  2147.11  2168.46
                             2188.22  2190.01  2206.97  2211.84  2224.28
                             2258.68  2291.41  2413.54  2576.76  4372.16
                             4375.03  4379.78  4395.51  4416.93  4430.50
                             4440.35  4460.35  4472.71  4481.85  4500.83
                             5134.73  5262.07  5288.00

 Zero-point correction=                           0.235100 (Hartree/Particle)
 Thermal correction to Energy=                    0.249453
 Thermal correction to Enthalpy=                  0.250397
 Thermal correction to Gibbs Free Energy=         0.191453
 Sum of electronic and zero-point Energies=           -682.553397
 Sum of electronic and thermal Energies=              -682.539044
 Sum of electronic and thermal Enthalpies=            -682.538100
 Sum of electronic and thermal Free Energies=         -682.597044

                     E (Thermal)             CV                S
                      KCal/Mol        Cal/Mol-Kelvin    Cal/Mol-Kelvin
 Total                  156.534             52.125            124.059
 Electronic               0.000              0.000              0.000
 Translational            0.889              2.981             41.756
 Rotational               0.889              2.981             32.362
 Vibrational            154.757             46.163             49.940
 Vibration     1          0.593              1.985              6.470
 Vibration     2          0.593              1.985              6.196
 Vibration     3          0.596              1.976              4.679
 Vibration     4          0.599              1.966              4.041
 Vibration     5          0.602              1.956              3.662
 Vibration     6          0.608              1.936              3.167
 Vibration     7          0.625              1.880              2.438
 Vibration     8          0.633              1.854              2.229
 Vibration     9          0.651              1.799              1.899
 Vibration    10          0.668              1.748              1.669
 Vibration    11          0.688              1.686              1.455
 Vibration    12          0.696              1.662              1.384
 Vibration    13          0.709              1.625              1.284
 Vibration    14          0.726              1.578              1.173
 Vibration    15          0.741              1.536              1.084
 Vibration    16          0.760              1.487              0.991
 Vibration    17          0.791              1.404              0.858
 Vibration    18          0.876              1.203              0.608
 Vibration    19          0.916              1.117              0.523
 Vibration    20          0.917              1.115              0.521
 Vibration    21          0.978              0.993              0.419

 Optimization completed.
    -- Stationary point found.
 Normal termination of Gaussian 16 at Thu Dec 10 11:07:40 2020.

 ----------------------------------------------------------------------
 # B3LYP/6-311++G(d,p) empiricaldispersion=gd3bj scf=xqc pop=npa geom=c
 heck
 ----------------------------------------------------------------------

 --------------------------------------
 CID_64320823_JID_4982_Energie_neutraal
 --------------------------------------
 Structure from the checkpoint file:  "JID_4982.chk"
 Charge =  0 Multiplicity = 1

 SCF Done:  E(RB3LYP) =  -682.992390489     A.U. after   14 cycles
 Normal termination of Gaussian 16 at Thu Dec 10 11:10:06 2020.

 ----------------------------------------------------------------------
 # B3LYP/6-311++G(d,p) empiricaldispersion=gd3bj scf=xqc pop=npa geom=c
 heck
 ----------------------------------------------------------------------

 ------------------------------------
 CID_64320823_JID_4982_Energie_kation
 ------------------------------------
 Structure from the checkpoint file:  "JID_4982.chk"
 Charge =  1 Multiplicity = 2

 SCF Done:  E(UB3LYP) =  -682.675234639     A.U. after   24 cycles
 Normal termination of Gaussian 16 at Thu Dec 10 11:15:22 2020.
 Gaussian 16:  ES64L-G16RevA.03 25-Dec-2016

 ----------------------------------------------------------------------
 # B3LYP/6-311++G(d,p) empiricaldispersion=gd3bj scf=xqc pop=npa geom=c
 heck
 ----------------------------------------------------------------------

 -----------------------------------
 CID_64320823_JID_4982_Energie_anion
 -----------------------------------
 Structure from the checkpoint file:  "JID_4982.chk"
 Charge = -1 Multiplicity = 2

                         Standard orientation:
 ---------------------------------------------------------------------
 Center     Atomic      Atomic             Coordinates (Angstroms)
 Number     Number       Type             X           Y           Z
 ---------------------------------------------------------------------
      1          6           0        4.634876   -0.396330   -1.201163
      2          6           0        3.271056   -1.067356   -1.012686
      3          6           0        2.886802   -1.310477    0.454401
      4          6           0        2.817150   -0.048982    1.329903
      5          6           0        1.871652    1.017723    0.804955
      6          8           0        0.561602    0.412137    0.680033
      7          6           0       -0.376940    1.163820    0.102846
      8          8           0       -0.224861    2.304626   -0.297883
      9          6           0       -1.669959    0.462243   -0.017235
     10          7           0       -2.016589   -0.770376    0.340849
     11          6           0       -3.327077   -0.828587   -0.029290
     12          7           0       -3.809613    0.285062   -0.598090
     13          7           0       -2.723825    1.094507   -0.571206
     14          7           0       -4.111433   -1.935828    0.215738
     15          1           0        4.652634    0.618006   -0.786029
     16          1           0        4.894334   -0.318997   -2.262654
     17          1           0        5.427209   -0.969596   -0.703940
     18          1           0        2.493830   -0.467419   -1.504573
     19          1           0        3.270617   -2.034539   -1.531359
     20          1           0        1.912994   -1.811592    0.488801
     21          1           0        3.612283   -2.000475    0.905893
     22          1           0        2.507113   -0.330773    2.343289
     23          1           0        3.808255    0.412732    1.423292
     24          1           0        1.797064    1.871646    1.485580
     25          1           0        2.171751    1.398259   -0.175261
     26          1           0       -2.754641    2.036085   -0.936296
     27          1           0       -3.580991   -2.794777    0.280811
     28          1           0       -4.921527   -2.008541   -0.386171
 ---------------------------------------------------------------------

 SCF Done:  E(UB3LYP) =  -682.993011906     A.U. after   33 cycles
 SCF Done:  E(UB3LYP) =  -682.993011952     a.u. after    2 cycles

 The electronic state is 2-A.
 Alpha  occ. eigenvalues --  -19.02185 -18.95082 -14.23789 -14.20966 -14.18903
 Alpha  occ. eigenvalues --  -14.15726 -10.13527 -10.11959 -10.10576 -10.08714
 Alpha  occ. eigenvalues --  -10.06282 -10.06275 -10.05936 -10.05789  -0.96514
 Alpha  occ. eigenvalues --   -0.93507  -0.87155  -0.80866  -0.74886  -0.70224
 Alpha  occ. eigenvalues --   -0.67700  -0.64829  -0.58636  -0.54119  -0.50897
 Alpha  occ. eigenvalues --   -0.48123  -0.47006  -0.43922  -0.42160  -0.40110
 Alpha  occ. eigenvalues --   -0.38211  -0.35158  -0.34985  -0.34203  -0.33501
 Alpha  occ. eigenvalues --   -0.32706  -0.32493  -0.30245  -0.28865  -0.28402
 Alpha  occ. eigenvalues --   -0.26634  -0.25427  -0.23618  -0.22375  -0.22290
 Alpha  occ. eigenvalues --   -0.21688  -0.21108  -0.19971  -0.17320  -0.15724
 Alpha  occ. eigenvalues --   -0.14833  -0.13785  -0.09971   0.04887
 Alpha virt. eigenvalues --    0.06297   0.07877   0.08376   0.08753   0.09693
 Alpha virt. eigenvalues --    0.10861   0.11303   0.11689   0.12100   0.12474
 Alpha virt. eigenvalues --    0.13105   0.13752   0.14873   0.15904   0.16534

  Beta  occ. eigenvalues --  -19.02061 -18.94734 -14.23491 -14.20979 -14.18706
  Beta  occ. eigenvalues --  -14.15540 -10.13199 -10.12031 -10.10580 -10.08568
  Beta  occ. eigenvalues --  -10.06277 -10.06267 -10.05910 -10.05782  -0.96117
  Beta  occ. eigenvalues --   -0.93172  -0.86605  -0.80805  -0.74493  -0.70186
  Beta  occ. eigenvalues --   -0.67291  -0.64763  -0.58485  -0.53720  -0.50649
  Beta  occ. eigenvalues --   -0.48066  -0.46832  -0.43770  -0.42029  -0.39894
  Beta  occ. eigenvalues --   -0.38029  -0.34969  -0.34917  -0.33621  -0.33202
  Beta  occ. eigenvalues --   -0.32321  -0.32117  -0.30113  -0.28492  -0.28256
  Beta  occ. eigenvalues --   -0.26301  -0.24928  -0.23484  -0.22307  -0.22106
  Beta  occ. eigenvalues --   -0.21258  -0.21018  -0.19652  -0.16068  -0.14590
  Beta  occ. eigenvalues --   -0.14381  -0.13434  -0.08954
  Beta virt. eigenvalues --    0.06900   0.07849   0.08626   0.08947   0.09883
  Beta virt. eigenvalues --    0.10851   0.10972   0.11409   0.11669   0.12216
  Beta virt. eigenvalues --    0.12546   0.13153   0.13808   0.14840   0.15912

 Mulliken charges and spin densities:
               1          2
     1  C    0.528258  -1.154809
     2  C   -0.581903   0.507413
     3  C   -0.086159  -0.149306
     4  C    0.033232  -0.396362
     5  C   -0.273232  -0.001990
     6  O   -0.009404   0.025400
     7  C   -0.105566   0.188558
     8  O   -0.376567   0.118354
     9  C    0.006408   0.108897
    10  N   -0.346542   0.092113
    11  C    0.087412  -0.032666
    12  N   -0.240506   0.104989
    13  N   -0.245831   0.101153
    14  N   -0.344632  -0.006601
    15  H   -0.030209   0.165761
    16  H   -0.142843   0.271292
    17  H   -0.210803   0.345770
    18  H    0.167125  -0.018797
    19  H   -0.060072   0.208077
    20  H    0.183680  -0.010716
    21  H   -0.098582   0.225980
    22  H    0.141179   0.026570
    23  H   -0.067253   0.201235
    24  H    0.143160   0.026164
    25  H    0.151800   0.055957
    26  H    0.306822  -0.006656
    27  H    0.232188   0.003949
    28  H    0.238843   0.000271
 Sum of Mulliken charges =  -1.00000   1.00000

 Dipole moment (field-independent basis, Debye):
    X=             -1.7136    Y=             -1.4405    Z=             -0.0045  Tot=              2.2387
 Quadrupole moment (field-independent basis, Debye-Ang):
   XX=           -156.3648   YY=           -102.5133   ZZ=           -100.4024
   XY=              9.8726   XZ=              7.2056   YZ=              2.4732

 Summary of Natural Population Analysis:

                                       Natural Population
                Natural  -----------------------------------------------
    Atom  No    Charge         Core      Valence    Rydberg      Total
 -----------------------------------------------------------------------
      C    1   -0.28857      0.99967     2.28373    0.00517     3.28857
      C    2   -0.19468      0.99964     2.18598    0.00906     3.19468
      C    3   -0.19307      0.99963     2.18355    0.00989     3.19307
      C    4   -0.20175      0.99962     2.19266    0.00946     3.20175
      C    5   -0.01872      0.99957     2.00618    0.01298     3.01872
      O    6   -0.26838      0.99985     3.25994    0.00858     4.26838
      C    7    0.42097      0.99965     1.55693    0.02245     2.57903
      O    8   -0.29890      0.99988     3.29377    0.00525     4.29890
      C    9    0.16663      0.99959     1.81797    0.01580     2.83337
      N   10   -0.25030      0.99967     2.74219    0.00844     3.75030
      C   11    0.22739      0.99969     1.75285    0.02007     2.77261
      N   12   -0.17876      0.99970     2.66502    0.01404     3.67876
      N   13   -0.13281      0.99965     2.62092    0.01224     3.63281
      N   14   -0.41393      0.99970     2.90360    0.01063     3.91393
      H   15    0.09523      0.00000     0.40376    0.00101     0.40477
      H   16    0.09738      0.00000     0.40180    0.00082     0.40262
      H   17    0.09560      0.00000     0.40305    0.00134     0.40440
      H   18    0.09737      0.00000     0.40127    0.00136     0.40263
      H   19    0.09438      0.00000     0.40467    0.00096     0.40562
      H   20    0.10712      0.00000     0.39129    0.00159     0.39288
      H   21    0.09203      0.00000     0.40701    0.00096     0.40797
      H   22    0.09894      0.00000     0.39996    0.00110     0.40106
      H   23    0.09653      0.00000     0.40249    0.00098     0.40347
      H   24    0.09010      0.00000     0.40879    0.00111     0.40990
      H   25    0.09022      0.00000     0.40853    0.00125     0.40978
      H   26    0.19947      0.00000     0.29893    0.00160     0.30053
      H   27    0.18649      0.00000     0.31192    0.00159     0.31351
      H   28    0.18403      0.00000     0.31447    0.00151     0.31597
 =======================================================================
   * Total *    0.00000     13.99553    38.82322    0.18125    53.00000

 Normal termination of Gaussian 16 at Thu Dec 10 11:28:39 2020.
