 Gaussian 16, Revision A.03,

 -----------------------------------------------------------
 # opt freq B3LYP/6-31G(d) empiricaldispersion=gd3bj scf=xqc
 -----------------------------------------------------------

 -------------------------------
 CID_115690987_JID_6074_neutraal
 -------------------------------
 Symbolic Z-matrix:
 Charge =  0 Multiplicity = 1

 SCF Done:  E(RB3LYP) =  -745.322964199     A.U. after   14 cycles
 SCF Done:  E(RB3LYP) =  -745.179301658     A.U. after   15 cycles
 SCF Done:  E(RB3LYP) =  -745.327912969     A.U. after   13 cycles
 SCF Done:  E(RB3LYP) =  -745.329990346     A.U. after   12 cycles
 SCF Done:  E(RB3LYP) =  -745.329939524     A.U. after   12 cycles
 SCF Done:  E(RB3LYP) =  -745.331861926     A.U. after   13 cycles
 SCF Done:  E(RB3LYP) =  -745.332942164     A.U. after   12 cycles
 SCF Done:  E(RB3LYP) =  -745.333457386     A.U. after   12 cycles
 SCF Done:  E(RB3LYP) =  -745.334311926     A.U. after   12 cycles
 SCF Done:  E(RB3LYP) =  -745.335239289     A.U. after   11 cycles
 SCF Done:  E(RB3LYP) =  -745.339591073     A.U. after    9 cycles
 SCF Done:  E(RB3LYP) =  -745.339604249     A.U. after    9 cycles
 SCF Done:  E(RB3LYP) =  -745.339608654     A.U. after    9 cycles
 SCF Done:  E(RB3LYP) =  -745.339610907     A.U. after    9 cycles
 SCF Done:  E(RB3LYP) =  -745.339612357     A.U. after    8 cycles
 SCF Done:  E(RB3LYP) =  -745.339612571     A.U. after    7 cycles
 Optimization completed.
    -- Stationary point found.
 Normal termination of Gaussian 16 at Thu Dec 10 21:24:42 2020.

 --------------------------------------------------------------------
 #N Geom=AllCheck Guess=TCheck SCRF=Check GenChk RB3LYP/6-31G(d) Freq
 --------------------------------------------------------------------

 Structure from the checkpoint file:  "JID_6074.chk"
 -------------------------------
 CID_115690987_JID_6074_neutraal
 -------------------------------
 Charge =  0 Multiplicity = 1

 SCF Done:  E(RB3LYP) =  -745.339612571     A.U. after    1 cycles

  Exact polarizability: 150.370   0.571 144.650  -2.906   5.945 107.920
 Approx polarizability: 207.730   3.958 200.223  -1.792  18.806 166.060

                      1                      2                      3
                      A                      A                      A
 Frequencies --     37.2128                46.2944                63.6331
 Red. masses --      4.5891                 3.5051                 5.2463
 Frc consts  --      0.0037                 0.0044                 0.0125
 IR Inten    --      1.7782                 0.9727                 0.6460

                      4                      5                      6
                      A                      A                      A
 Frequencies --     87.9539                98.9552               112.0755
 Red. masses --      3.9432                 2.5969                 5.1227
 Frc consts  --      0.0180                 0.0150                 0.0379
 IR Inten    --      0.7762                 1.8048                 1.0206

                      7                      8                      9
                      A                      A                      A
 Frequencies --    142.4488               168.6829               199.1305
 Red. masses --      3.8805                 3.4649                 3.0731
 Frc consts  --      0.0464                 0.0581                 0.0718
 IR Inten    --      4.3884                 0.6398                 8.2544

                     10                     11                     12
                      A                      A                      A
 Frequencies --    219.9304               249.5347               264.4356
 Red. masses --      2.8220                 2.3332                 3.9984
 Frc consts  --      0.0804                 0.0856                 0.1647
 IR Inten    --      2.1792                 4.6831                 0.5261

                     13                     14                     15
                      A                      A                      A
 Frequencies --    278.7015               296.4130               342.3903
 Red. masses --      2.9358                 2.2571                 2.9136
 Frc consts  --      0.1344                 0.1168                 0.2012
 IR Inten    --      8.6448                 2.6530                 0.4143

                     16                     17                     18
                      A                      A                      A
 Frequencies --    402.8446               447.5215               505.3358
 Red. masses --      2.2601                 3.1031                 3.3789
 Frc consts  --      0.2161                 0.3662                 0.5084
 IR Inten    --      1.1380                 6.7055                 2.9961

                     19                     20                     21
                      A                      A                      A
 Frequencies --    596.0874               624.0526               669.2795
 Red. masses --      2.9187                 3.8849                 3.0087
 Frc consts  --      0.6110                 0.8914                 0.7940
 IR Inten    --      0.9107                12.2428                 5.1648

                     22                     23                     24
                      A                      A                      A
 Frequencies --    677.1303               692.5672               753.9804
 Red. masses --      4.0672                 2.4437                 2.0992
 Frc consts  --      1.0987                 0.6906                 0.7031
 IR Inten    --     18.2890                21.0812                24.6868

                     25                     26                     27
                      A                      A                      A
 Frequencies --    758.5375               770.8948               829.5501
 Red. masses --      1.3832                 1.7455                 1.3419
 Frc consts  --      0.4689                 0.6112                 0.5441
 IR Inten    --     37.7570                 9.1082                15.3766

                     28                     29                     30
                      A                      A                      A
 Frequencies --    830.4527               835.2466               850.1319
 Red. masses --      1.4645                 1.5130                 1.8916
 Frc consts  --      0.5951                 0.6219                 0.8055
 IR Inten    --     16.3698                 6.9681                20.6540

                     31                     32                     33
                      A                      A                      A
 Frequencies --    882.1774               913.1534               922.8651
 Red. masses --      2.3251                 2.1147                 2.0577
 Frc consts  --      1.0661                 1.0389                 1.0326
 IR Inten    --      7.1338                12.0955                34.4779

                     34                     35                     36
                      A                      A                      A
 Frequencies --    946.9156               951.5547               958.1720
 Red. masses --      5.2605                 2.1639                 3.1725
 Frc consts  --      2.7790                 1.1544                 1.7161
 IR Inten    --     28.0643                 5.1473                10.0515

                     37                     38                     39
                      A                      A                      A
 Frequencies --    975.5716               986.7511              1022.2120
 Red. masses --      2.4069                 2.2557                 3.1975
 Frc consts  --      1.3497                 1.2940                 1.9685
 IR Inten    --      9.3148                19.4892                14.7214

                     40                     41                     42
                      A                      A                      A
 Frequencies --   1038.1318              1047.2680              1081.1596
 Red. masses --      1.6958                 2.0206                 2.2537
 Frc consts  --      1.0768                 1.3057                 1.5521
 IR Inten    --      2.3658                39.6335                 7.5277

                     43                     44                     45
                      A                      A                      A
 Frequencies --   1094.9999              1119.8490              1130.7630
 Red. masses --      2.0766                 2.4713                 2.2128
 Frc consts  --      1.4670                 1.8260                 1.6670
 IR Inten    --      7.2656                37.0656                44.1374

                     46                     47                     48
                      A                      A                      A
 Frequencies --   1134.7816              1149.3230              1153.9652
 Red. masses --      3.0253                 1.9411                 2.5174
 Frc consts  --      2.2953                 1.5107                 1.9751
 IR Inten    --     69.6450                 7.1196                26.7877

                     49                     50                     51
                      A                      A                      A
 Frequencies --   1158.9278              1162.7889              1245.0349
 Red. masses --      2.7451                 2.2311                 1.2053
 Frc consts  --      2.1723                 1.7773                 1.1008
 IR Inten    --     61.1271                34.0616                32.2705

                     52                     53                     54
                      A                      A                      A
 Frequencies --   1248.0639              1255.4237              1257.2432
 Red. masses --      1.3260                 1.2703                 1.3182
 Frc consts  --      1.2169                 1.1796                 1.2276
 IR Inten    --     36.1740                10.4720                 8.9284

                     55                     56                     57
                      A                      A                      A
 Frequencies --   1270.7918              1272.7608              1281.1820
 Red. masses --      1.4038                 1.7348                 1.6178
 Frc consts  --      1.3356                 1.6557                 1.5646
 IR Inten    --      6.9117                 1.0553                12.9284

                     58                     59                     60
                      A                      A                      A
 Frequencies --   1297.8289              1308.9306              1328.7451
 Red. masses --      1.2764                 1.1954                 1.1814
 Frc consts  --      1.2667                 1.2067                 1.2289
 IR Inten    --      6.5260                 6.7742                 0.3265

                     61                     62                     63
                      A                      A                      A
 Frequencies --   1334.7868              1368.8889              1377.4532
 Red. masses --      1.2466                 1.2661                 2.2912
 Frc consts  --      1.3085                 1.3978                 2.5613
 IR Inten    --      0.4850                 7.1748                20.3059

                     64                     65                     66
                      A                      A                      A
 Frequencies --   1394.6080              1404.1672              1412.0328
 Red. masses --      1.2922                 1.8296                 1.4408
 Frc consts  --      1.4808                 2.1255                 1.6926
 IR Inten    --     21.4227                20.2513                20.7719

                     67                     68                     69
                      A                      A                      A
 Frequencies --   1418.1803              1420.8203              1454.5146
 Red. masses --      1.5070                 1.3991                 2.6981
 Frc consts  --      1.7857                 1.6641                 3.3632
 IR Inten    --      5.6743                 5.3076                37.9227

                     70                     71                     72
                      A                      A                      A
 Frequencies --   1465.0993              1503.6376              1510.4794
 Red. masses --      1.4049                 1.3679                 2.2756
 Frc consts  --      1.7768                 1.8222                 3.0590
 IR Inten    --      1.9171                 8.0613                10.4161

                     73                     74                     75
                      A                      A                      A
 Frequencies --   1515.4412              1518.2362              1522.6335
 Red. masses --      1.0985                 1.2272                 1.0976
 Frc consts  --      1.4863                 1.6666                 1.4993
 IR Inten    --      6.3550                11.6726                 2.6268

                     76                     77                     78
                      A                      A                      A
 Frequencies --   1528.4030              1540.5825              1548.0492
 Red. masses --      1.0973                 1.0898                 1.1031
 Frc consts  --      1.5103                 1.5239                 1.5575
 IR Inten    --      0.1024                 4.1414                 4.0907

                     79                     80                     81
                      A                      A                      A
 Frequencies --   1555.7664              1621.9641              2954.0495
 Red. masses --      1.1065                 4.4377                 1.0730
 Frc consts  --      1.5780                 6.8784                 5.5169
 IR Inten    --      4.9513                 8.8827                63.2518

                     82                     83                     84
                      A                      A                      A
 Frequencies --   2961.6548              2994.7249              2997.4632
 Red. masses --      1.0749                 1.0722                 1.0670
 Frc consts  --      5.5548                 5.6654                 5.6482
 IR Inten    --    111.7841                47.7395                50.4518

                     85                     86                     87
                      A                      A                      A
 Frequencies --   3011.4494              3032.4458              3034.7673
 Red. masses --      1.0728                 1.0881                 1.0853
 Frc consts  --      5.7321                 5.8955                 5.8893
 IR Inten    --     88.0963                40.2720                80.9876

                     88                     89                     90
                      A                      A                      A
 Frequencies --   3040.8065              3060.0286              3086.0446
 Red. masses --      1.0673                 1.0930                 1.0616
 Frc consts  --      5.8148                 6.0303                 5.9566
 IR Inten    --     57.9666                13.6347                16.5921

                     91                     92                     93
                      A                      A                      A
 Frequencies --   3092.3244              3125.7352              3128.1398
 Red. masses --      1.0964                 1.0877                 1.1020
 Frc consts  --      6.1770                 6.2612                 6.3533
 IR Inten    --     36.6448                18.3987                12.8150

                     94                     95                     96
                      A                      A                      A
 Frequencies --   3141.4801              3148.5333              3246.8100
 Red. masses --      1.0988                 1.0939                 1.0961
 Frc consts  --      6.3889                 6.3892                 6.8081
 IR Inten    --     27.2383                13.7655                13.7729

                     97                     98                     99
                      A                      A                      A
 Frequencies --   3293.0135              3493.9742              3580.9419
 Red. masses --      1.0971                 1.0742                 1.0822
 Frc consts  --      7.0096                 7.7267                 8.1766
 IR Inten    --      0.0088                 1.0833               258.1650

 - Thermochemistry -
 -------------------
 Temperature   298.150 Kelvin.  Pressure   1.00000 Atm.
 Atom     1 has atomic number  6 and mass  12.00000

 Molecular mass:   225.14773 amu.
 Principal axes and moments of inertia in atomic units:
                           1         2         3
     Eigenvalues --  2877.150933729.065875697.49637
           X            0.99827  -0.05886   0.00018
           Y            0.05886   0.99823  -0.00840
           Z            0.00032   0.00840   0.99996
 This molecule is an asymmetric top.
 Rotational symmetry number  1.
 Warning -- assumption of classical behavior for rotation
           may cause significant error
 Rotational temperatures (Kelvin)      0.03010     0.02323     0.01520
 Rotational constants (GHZ):           0.62727     0.48397     0.31676
 Zero-point vibrational energy     809207.2 (Joules/Mol)
                                  193.40515 (Kcal/Mol)
 Warning -- explicit consideration of  19 degrees of freedom as
           vibrations may cause significant error
 Vibrational temperatures:     53.54    66.61    91.55   126.55   142.37
          (Kelvin)            161.25   204.95   242.70   286.50   316.43
                              359.02   380.46   400.99   426.47   492.62
                              579.60   643.88   727.07   857.64   897.87
                              962.94   974.24   996.45  1084.81  1091.37
                             1109.15  1193.54  1194.84  1201.73  1223.15
                             1269.26  1313.82  1327.80  1362.40  1369.07
                             1378.60  1403.63  1419.71  1470.74  1493.64
                             1506.79  1555.55  1575.46  1611.21  1626.92
                             1632.70  1653.62  1660.30  1667.44  1672.99
                             1791.33  1795.69  1806.27  1808.89  1828.39
                             1831.22  1843.34  1867.29  1883.26  1911.77
                             1920.46  1969.53  1981.85  2006.53  2020.28
                             2031.60  2040.45  2044.24  2092.72  2107.95
                             2163.40  2173.24  2180.38  2184.40  2190.73
                             2199.03  2216.55  2227.30  2238.40  2333.64
                             4250.22  4261.16  4308.74  4312.68  4332.80
                             4363.01  4366.35  4375.04  4402.70  4440.13
                             4449.17  4497.24  4500.70  4519.89  4530.04
                             4671.44  4737.91  5027.05  5152.18

 Zero-point correction=                           0.308211 (Hartree/Particle)
 Thermal correction to Energy=                    0.323234
 Thermal correction to Enthalpy=                  0.324178
 Thermal correction to Gibbs Free Energy=         0.264982
 Sum of electronic and zero-point Energies=           -745.031402
 Sum of electronic and thermal Energies=              -745.016379
 Sum of electronic and thermal Enthalpies=            -745.015435
 Sum of electronic and thermal Free Energies=         -745.074630

                     E (Thermal)             CV                S
                      KCal/Mol        Cal/Mol-Kelvin    Cal/Mol-Kelvin
 Total                  202.832             57.088            124.588
 Electronic               0.000              0.000              0.000
 Translational            0.889              2.981             42.137
 Rotational               0.889              2.981             32.480
 Vibrational            201.055             51.126             49.971
 Vibration     1          0.594              1.982              5.402
 Vibration     2          0.595              1.979              4.970
 Vibration     3          0.597              1.972              4.341
 Vibration     4          0.601              1.958              3.705
 Vibration     5          0.604              1.950              3.475
 Vibration     6          0.607              1.939              3.233
 Vibration     7          0.616              1.911              2.771
 Vibration     8          0.625              1.881              2.450
 Vibration     9          0.637              1.841              2.141
 Vibration    10          0.647              1.811              1.960
 Vibration    11          0.662              1.764              1.734
 Vibration    12          0.671              1.738              1.632
 Vibration    13          0.679              1.713              1.542
 Vibration    14          0.690              1.680              1.437
 Vibration    15          0.722              1.591              1.201
 Vibration    16          0.768              1.464              0.952
 Vibration    17          0.807              1.366              0.803
 Vibration    18          0.861              1.238              0.645
 Vibration    19          0.954              1.040              0.456

                           ! Non-Optimized Parameters !
 Normal termination of Gaussian 16 at Thu Dec 10 21:37:44 2020.

 ----------------------------------------------------------------------
 # B3LYP/6-311++G(d,p) empiricaldispersion=gd3bj scf=xqc pop=npa geom=c
 heck
 ----------------------------------------------------------------------

 ---------------------------------------
 CID_115690987_JID_6074_Energie_neutraal
 ---------------------------------------
 Structure from the checkpoint file:  "JID_6074.chk"
 Charge =  0 Multiplicity = 1

 SCF Done:  E(RB3LYP) =  -745.552780913     A.U. after   14 cycles
 Normal termination of Gaussian 16 at Thu Dec 10 21:43:11 2020.

 ----------------------------------------------------------------------
 # B3LYP/6-311++G(d,p) empiricaldispersion=gd3bj scf=xqc pop=npa geom=c
 heck
 ----------------------------------------------------------------------

 -------------------------------------
 CID_115690987_JID_6074_Energie_kation
 -------------------------------------
 Structure from the checkpoint file:  "JID_6074.chk"
 Charge =  1 Multiplicity = 2

 SCF Done:  E(UB3LYP) =  -745.268217660     A.U. after   25 cycles
 Normal termination of Gaussian 16 at Thu Dec 10 21:58:09 2020.
 Gaussian 16:  ES64L-G16RevA.03 25-Dec-2016

 ----------------------------------------------------------------------
 # B3LYP/6-311++G(d,p) empiricaldispersion=gd3bj scf=xqc pop=npa geom=c
 heck
 ----------------------------------------------------------------------

 ------------------------------------
 CID_115690987_JID_6074_Energie_anion
 ------------------------------------
 Structure from the checkpoint file:  "JID_6074.chk"
 Charge = -1 Multiplicity = 2

                         Standard orientation:
 ---------------------------------------------------------------------
 Center     Atomic      Atomic             Coordinates (Angstroms)
 Number     Number       Type             X           Y           Z
 ---------------------------------------------------------------------
      1          6           0        2.197717   -0.424999    1.339505
      2          6           0        1.900529   -1.924564    1.099789
      3          8           0        1.724590   -2.069861   -0.310033
      4          6           0        2.636134   -1.160859   -0.910721
      5          6           0        2.537653    0.116270   -0.075780
      6          8           0        1.485010    0.908466   -0.618468
      7          6           0        1.443368    2.223479   -0.075790
      8          6           0        0.299642    3.003264   -0.711103
      9          6           0       -1.058085    2.306174   -0.574728
     10          7           0       -1.261946    1.821906    0.789827
     11          6           0       -2.460246    1.001396    0.976928
     12          6           0       -2.341454   -0.317306    0.273341
     13          6           0       -3.275343   -1.250884   -0.113473
     14          7           0       -2.667180   -2.355555   -0.674388
     15          6           0       -1.376190   -2.089618   -0.639988
     16          7           0       -1.122916   -0.877744   -0.059723
     17          1           0        1.320997    0.100857    1.728284
     18          1           0        3.020163   -0.281961    2.046090
     19          1           0        2.740375   -2.550570    1.438077
     20          1           0        0.983431   -2.273889    1.578167
     21          1           0        2.338985   -1.003219   -1.949021
     22          1           0        3.663693   -1.559133   -0.876059
     23          1           0        3.471506    0.695231   -0.094204
     24          1           0        1.302364    2.177410    1.011360
     25          1           0        2.402791    2.728863   -0.271900
     26          1           0        0.272341    3.992357   -0.232367
     27          1           0        0.506457    3.172180   -1.774262
     28          1           0       -1.860358    2.985224   -0.916180
     29          1           0       -1.080652    1.439424   -1.239585
     30          1           0       -1.301884    2.612753    1.429622
     31          1           0       -2.566518    0.845962    2.059614
     32          1           0       -3.388254    1.497548    0.638327
     33          1           0       -4.351374   -1.194020   -0.009328
     34          1           0       -0.576716   -2.716507   -1.005960
     35          1           0       -0.232218   -0.391710   -0.050569
 ---------------------------------------------------------------------

 SCF Done:  E(UB3LYP) =  -745.545385186     A.U. after   31 cycles

 The electronic state is 2-A.
 Alpha  occ. eigenvalues --  -19.03970 -19.03777 -14.25679 -14.20762 -14.19266
 Alpha  occ. eigenvalues --  -10.13467 -10.12736 -10.12682 -10.11820 -10.11645
 Alpha  occ. eigenvalues --  -10.11326 -10.10296 -10.09734 -10.08053 -10.07892
 Alpha  occ. eigenvalues --  -10.07549  -0.96559  -0.94344  -0.91065  -0.81881
 Alpha  occ. eigenvalues --   -0.76490  -0.70230  -0.67602  -0.65789  -0.64562
 Alpha  occ. eigenvalues --   -0.59080  -0.55531  -0.51808  -0.50970  -0.50544
 Alpha  occ. eigenvalues --   -0.49093  -0.48360  -0.43601  -0.42295  -0.41660
 Alpha  occ. eigenvalues --   -0.39895  -0.38728  -0.37863  -0.36713  -0.36107
 Alpha  occ. eigenvalues --   -0.34547  -0.34064  -0.33377  -0.31814  -0.31507
 Alpha  occ. eigenvalues --   -0.30861  -0.30387  -0.29343  -0.28702  -0.27125
 Alpha  occ. eigenvalues --   -0.26331  -0.25492  -0.24732  -0.24093  -0.22911
 Alpha  occ. eigenvalues --   -0.18595  -0.18219  -0.17519  -0.16768  -0.14392
 Alpha  occ. eigenvalues --   -0.12450   0.03865
 Alpha virt. eigenvalues --    0.05789   0.07073   0.07587   0.08397   0.08663
 Alpha virt. eigenvalues --    0.08966   0.09624   0.10061   0.10826   0.11159
 Alpha virt. eigenvalues --    0.11505   0.11908   0.12018   0.12226   0.13255

  Beta  occ. eigenvalues --  -19.03966 -19.03769 -14.25675 -14.20727 -14.19266
  Beta  occ. eigenvalues --  -10.13447 -10.12723 -10.12667 -10.11797 -10.11643
  Beta  occ. eigenvalues --  -10.11308 -10.10296 -10.09724 -10.08051 -10.07869
  Beta  occ. eigenvalues --  -10.07527  -0.96547  -0.94333  -0.91061  -0.81836
  Beta  occ. eigenvalues --   -0.76484  -0.70188  -0.67566  -0.65761  -0.64529
  Beta  occ. eigenvalues --   -0.59044  -0.55474  -0.51760  -0.50930  -0.50528
  Beta  occ. eigenvalues --   -0.49067  -0.48315  -0.43578  -0.42263  -0.41599
  Beta  occ. eigenvalues --   -0.39847  -0.38694  -0.37824  -0.36687  -0.36061
  Beta  occ. eigenvalues --   -0.34531  -0.34024  -0.33359  -0.31786  -0.31489
  Beta  occ. eigenvalues --   -0.30852  -0.30360  -0.29310  -0.28672  -0.27093
  Beta  occ. eigenvalues --   -0.26291  -0.25441  -0.24704  -0.24064  -0.22859
  Beta  occ. eigenvalues --   -0.18564  -0.18214  -0.17516  -0.16744  -0.14351
  Beta  occ. eigenvalues --   -0.12434
  Beta virt. eigenvalues --    0.06395   0.06962   0.07566   0.08102   0.08850
  Beta virt. eigenvalues --    0.09217   0.09247   0.09974   0.10306   0.11056
  Beta virt. eigenvalues --    0.11398   0.11578   0.12170   0.12401   0.12593

 Mulliken charges and spin densities:
               1          2
     1  C    0.591099  -0.806935
     2  C   -0.080651  -0.355218
     3  O   -0.069238  -0.007166
     4  C   -0.035944  -0.503761
     5  C   -0.049401   0.159741
     6  O   -0.062123  -0.017580
     7  C    0.086296  -0.217216
     8  C    0.856675  -1.457394
     9  C   -0.546471   0.322459
    10  N   -0.128824  -0.027974
    11  C    0.601099  -1.346371
    12  C   -0.079375   0.667158
    13  C   -0.883880   0.297802
    14  N   -0.099784  -0.009564
    15  C   -0.265887   0.119852
    16  N   -0.147559  -0.037154
    17  H    0.090984   0.047085
    18  H   -0.696984   0.900957
    19  H   -0.092482   0.236022
    20  H    0.107048   0.071995
    21  H    0.140482   0.051115
    22  H   -0.244380   0.400614
    23  H   -0.546833   0.743052
    24  H   -0.022426   0.157214
    25  H   -0.238117   0.389023
    26  H   -0.346089   0.525787
    27  H    0.095069   0.063212
    28  H   -0.256233   0.395275
    29  H    0.078585   0.089757
    30  H   -0.161021   0.434146
    31  H   -0.165703   0.335065
    32  H   -0.011587   0.167517
    33  H    0.112667   0.020693
    34  H    0.176724   0.026563
    35  H    1.294262  -0.835771
 Sum of Mulliken charges =  -1.00000   1.00000

 Dipole moment (field-independent basis, Debye):
    X=             -2.5036    Y=             -2.3802    Z=             -2.3882  Tot=              4.1996
 Quadrupole moment (field-independent basis, Debye-Ang):
   XX=           -167.7289   YY=           -161.0797   ZZ=           -130.1149
   XY=             -6.6050   XZ=             -8.1994   YZ=             -9.4490

 Summary of Natural Population Analysis:

                                       Natural Population
                Natural  -----------------------------------------------
    Atom  No    Charge         Core      Valence    Rydberg      Total
 -----------------------------------------------------------------------
      C    1   -0.22562      0.99962     2.21727    0.00873     3.22562
      C    2   -0.01498      0.99961     2.00285    0.01252     3.01498
      O    3   -0.30352      0.99990     3.29431    0.00932     4.30352
      C    4   -0.01846      0.99956     2.00534    0.01356     3.01846
      C    5    0.05188      0.99955     1.93296    0.01562     2.94812
      O    6   -0.31189      0.99987     3.30194    0.01007     4.31189
      C    7   -0.00864      0.99956     1.99665    0.01243     3.00864
      C    8   -0.19943      0.99962     2.19009    0.00972     3.19943
      C    9   -0.08852      0.99962     2.07754    0.01136     3.08852
      N   10   -0.34518      0.99974     2.83215    0.01329     3.84518
      C   11   -0.09557      0.99959     2.08439    0.01159     3.09557
      C   12    0.04720      0.99953     1.94002    0.01325     2.95280
      C   13   -0.04282      0.99952     2.03006    0.01325     3.04282
      N   14   -0.26028      0.99973     2.75075    0.00979     3.76028
      C   15    0.09689      0.99967     1.88633    0.01711     2.90311
      N   16   -0.28076      0.99964     2.77275    0.00836     3.78076
      H   17    0.11082      0.00000     0.38738    0.00180     0.38918
      H   18    0.10892      0.00000     0.38861    0.00247     0.39108
      H   19    0.08078      0.00000     0.41781    0.00140     0.41922
      H   20    0.09336      0.00000     0.40542    0.00122     0.40664
      H   21    0.09823      0.00000     0.40056    0.00121     0.40177
      H   22    0.08293      0.00000     0.41556    0.00150     0.41707
      H   23    0.09262      0.00000     0.40445    0.00293     0.40738
      H   24    0.08698      0.00000     0.41060    0.00242     0.41302
      H   25    0.08353      0.00000     0.41479    0.00168     0.41647
      H   26    0.10144      0.00000     0.39689    0.00167     0.39856
      H   27    0.09894      0.00000     0.40007    0.00099     0.40106
      H   28    0.08290      0.00000     0.41578    0.00131     0.41710
      H   29    0.09598      0.00000     0.40215    0.00187     0.40402
      H   30    0.17990      0.00000     0.31457    0.00553     0.32010
      H   31    0.10187      0.00000     0.39693    0.00121     0.39813
      H   32    0.08723      0.00000     0.41131    0.00146     0.41277
      H   33    0.09312      0.00000     0.40558    0.00130     0.40688
      H   34    0.10050      0.00000     0.39776    0.00174     0.39950
      H   35    0.21963      0.00000     0.27556    0.00481     0.28037
 =======================================================================
   * Total *    0.00000     15.99434    44.77718    0.22848    61.00000

 Normal termination of Gaussian 16 at Thu Dec 10 22:15:59 2020.
