 Gaussian 16, Revision A.03,

 -----------------------------------------------------------
 # opt freq B3LYP/6-31G(d) empiricaldispersion=gd3bj scf=xqc
 -----------------------------------------------------------

 ----------------------------
 CID_282332_JID_4946_neutraal
 ----------------------------
 Symbolic Z-matrix:
 Charge =  0 Multiplicity = 1

 SCF Done:  E(RB3LYP) =  -611.174929770     A.U. after   16 cycles
 SCF Done:  E(RB3LYP) =  -611.177828821     A.U. after   13 cycles
 SCF Done:  E(RB3LYP) =  -611.178148932     A.U. after   13 cycles
 SCF Done:  E(RB3LYP) =  -611.178167832     A.U. after   12 cycles
 SCF Done:  E(RB3LYP) =  -611.178380713     A.U. after   11 cycles
 SCF Done:  E(RB3LYP) =  -611.178420750     A.U. after   10 cycles
 SCF Done:  E(RB3LYP) =  -611.178442950     A.U. after   11 cycles
 SCF Done:  E(RB3LYP) =  -611.178457995     A.U. after   10 cycles
 SCF Done:  E(RB3LYP) =  -611.178476970     A.U. after   11 cycles
 SCF Done:  E(RB3LYP) =  -611.178481449     A.U. after    9 cycles
 SCF Done:  E(RB3LYP) =  -611.178483939     A.U. after   10 cycles
 SCF Done:  E(RB3LYP) =  -611.178484175     A.U. after    8 cycles
 SCF Done:  E(RB3LYP) =  -611.178484273     A.U. after    8 cycles
 Optimization completed.
    -- Stationary point found.
 Normal termination of Gaussian 16 at Thu Dec 10 10:54:51 2020.

 --------------------------------------------------------------------
 #N Geom=AllCheck Guess=TCheck SCRF=Check GenChk RB3LYP/6-31G(d) Freq
 --------------------------------------------------------------------

 Structure from the checkpoint file:  "JID_4946.chk"
 ----------------------------
 CID_282332_JID_4946_neutraal
 ----------------------------
 Charge =  0 Multiplicity = 1

 SCF Done:  E(RB3LYP) =  -611.178484273     A.U. after    1 cycles

  Exact polarizability: 149.174   8.871 136.421  -2.206  -4.114  85.222
 Approx polarizability: 232.795  19.332 238.964  -7.465 -13.021 114.832

                      1                      2                      3
                      A                      A                      A
 Frequencies --     32.1590                54.0606                75.0615
 Red. masses --      4.9029                 2.7759                 5.6341
 Frc consts  --      0.0030                 0.0048                 0.0187
 IR Inten    --      1.8363                 0.4058                 0.9894

                      4                      5                      6
                      A                      A                      A
 Frequencies --     91.8116               104.4460               123.8000
 Red. masses --      3.4081                 2.7152                 1.4642
 Frc consts  --      0.0169                 0.0175                 0.0132
 IR Inten    --      1.2801                 3.3463                 0.6272

                      7                      8                      9
                      A                      A                      A
 Frequencies --    141.1576               158.6652               231.6271
 Red. masses --      4.4463                 3.7051                 1.2915
 Frc consts  --      0.0522                 0.0550                 0.0408
 IR Inten    --      3.8967                 1.0604                 1.2187

                     10                     11                     12
                      A                      A                      A
 Frequencies --    269.1511               307.2032               344.1859
 Red. masses --      2.8998                 3.3589                 2.8590
 Frc consts  --      0.1238                 0.1868                 0.1995
 IR Inten    --      0.9134                 0.3971                 0.7691

                     13                     14                     15
                      A                      A                      A
 Frequencies --    391.7576               402.4358               422.4841
 Red. masses --      5.2449                 4.2293                 4.5298
 Frc consts  --      0.4743                 0.4036                 0.4764
 IR Inten    --      7.0011                 0.4187                 6.7433

                     16                     17                     18
                      A                      A                      A
 Frequencies --    470.5961               522.7906               559.9905
 Red. masses --      3.3806                 7.0661                 3.5664
 Frc consts  --      0.4411                 1.1378                 0.6589
 IR Inten    --      1.7035                 1.5056                23.8279

                     19                     20                     21
                      A                      A                      A
 Frequencies --    583.5208               589.4089               607.5787
 Red. masses --      4.2710                 5.4620                 3.6972
 Frc consts  --      0.8568                 1.1180                 0.8041
 IR Inten    --      0.3629                 1.4430                 9.8749

                     22                     23                     24
                      A                      A                      A
 Frequencies --    632.2983               700.6618               765.5200
 Red. masses --      4.2894                 4.7008                 3.2337
 Frc consts  --      1.0104                 1.3597                 1.1165
 IR Inten    --      5.7941                 0.6582                 2.2261

                     25                     26                     27
                      A                      A                      A
 Frequencies --    780.4742               787.1727               796.9424
 Red. masses --      1.3352                 1.8441                 2.4115
 Frc consts  --      0.4792                 0.6733                 0.9024
 IR Inten    --     39.3095                 3.8246                 3.8344

                     28                     29                     30
                      A                      A                      A
 Frequencies --    897.0776               936.2165               963.7977
 Red. masses --      1.3909                 2.3512                 1.7155
 Frc consts  --      0.6595                 1.2142                 0.9389
 IR Inten    --      0.6339                 7.0639                 0.8610

                     31                     32                     33
                      A                      A                      A
 Frequencies --    967.5889               999.5797              1014.1136
 Red. masses --      2.2010                 1.2889                 1.8821
 Frc consts  --      1.2141                 0.7588                 1.1404
 IR Inten    --      0.2266                 0.0615                17.3915

                     34                     35                     36
                      A                      A                      A
 Frequencies --   1064.6906              1070.6559              1102.8905
 Red. masses --      1.7543                 2.1445                 2.4924
 Frc consts  --      1.1717                 1.4484                 1.7862
 IR Inten    --      6.0550                 1.8839                 5.5644

                     37                     38                     39
                      A                      A                      A
 Frequencies --   1122.3062              1139.9290              1181.5349
 Red. masses --      2.0832                 2.1278                 1.7745
 Frc consts  --      1.5460                 1.6290                 1.4595
 IR Inten    --     11.5882                16.9333                20.5234

                     40                     41                     42
                      A                      A                      A
 Frequencies --   1197.6834              1227.6496              1292.2734
 Red. masses --      1.1035                 2.7209                 1.8533
 Frc consts  --      0.9326                 2.4160                 1.8235
 IR Inten    --      0.4068                 1.2821                14.2280

                     43                     44                     45
                      A                      A                      A
 Frequencies --   1313.9847              1332.7682              1341.1809
 Red. masses --      1.5170                 3.7092                 5.3557
 Frc consts  --      1.5432                 3.8818                 5.6760
 IR Inten    --     67.0779               131.6978                33.0723

                     46                     47                     48
                      A                      A                      A
 Frequencies --   1408.5389              1415.9263              1429.5189
 Red. masses --      1.2907                 1.4579                 1.6467
 Frc consts  --      1.5087                 1.7220                 1.9827
 IR Inten    --      6.9054                25.3727               112.0823

                     49                     50                     51
                      A                      A                      A
 Frequencies --   1437.9942              1495.0759              1499.5538
 Red. masses --      1.3302                 1.9636                 1.1186
 Frc consts  --      1.6206                 2.5860                 1.4820
 IR Inten    --     26.8370                 7.3483                15.1958

                     52                     53                     54
                      A                      A                      A
 Frequencies --   1505.2953              1513.2479              1522.9582
 Red. masses --      1.1378                 1.0664                 1.0541
 Frc consts  --      1.5189                 1.4388                 1.4405
 IR Inten    --     14.2662                11.9523                 9.5867

                     55                     56                     57
                      A                      A                      A
 Frequencies --   1534.6006              1536.7733              1625.8254
 Red. masses --      1.0560                 2.7198                 5.9131
 Frc consts  --      1.4652                 3.7845                 9.2091
 IR Inten    --      1.9723                70.4781                 8.5409

                     58                     59                     60
                      A                      A                      A
 Frequencies --   1655.0119              1779.8191              2353.7022
 Red. masses --      5.8521                 9.9242                12.6792
 Frc consts  --      9.4442                18.5223                41.3852
 IR Inten    --     17.6012               313.6989                16.5517

                     61                     62                     63
                      A                      A                      A
 Frequencies --   3054.1493              3070.3327              3094.0984
 Red. masses --      1.0358                 1.0380                 1.0656
 Frc consts  --      5.6926                 5.7653                 6.0105
 IR Inten    --     18.4360                 5.0368                12.6035

                     64                     65                     66
                      A                      A                      A
 Frequencies --   3117.7254              3133.9552              3138.9149
 Red. masses --      1.1020                 1.0998                 1.0998
 Frc consts  --      6.3112                 6.3643                 6.3845
 IR Inten    --     25.3756                 7.2184                18.4901

                     67                     68                     69
                      A                      A                      A
 Frequencies --   3162.2741              3177.7730              3199.6861
 Red. masses --      1.1031                 1.1024                 1.0866
 Frc consts  --      6.4992                 6.5591                 6.5545
 IR Inten    --     10.3493                10.0976                 1.4009

                     70                     71                     72
                      A                      A                      A
 Frequencies --   3211.5704              3219.3735              3227.2773
 Red. masses --      1.0899                 1.0942                 1.0972
 Frc consts  --      6.6234                 6.6818                 6.7331
 IR Inten    --      6.9735                 8.0788                 7.8220

 - Thermochemistry -
 -------------------
 Temperature   298.150 Kelvin.  Pressure   1.00000 Atm.
 Atom     1 has atomic number  6 and mass  12.00000

 Molecular mass:   188.09496 amu.
 Principal axes and moments of inertia in atomic units:
                           1         2         3
     Eigenvalues --  1965.155563159.707793600.95071
           X            0.99970   0.01184   0.02134
           Y           -0.01259   0.99930   0.03525
           Z           -0.02091  -0.03551   0.99915
 This molecule is an asymmetric top.
 Rotational symmetry number  1.
 Warning -- assumption of classical behavior for rotation
           may cause significant error
 Rotational temperatures (Kelvin)      0.04407     0.02741     0.02405
 Rotational constants (GHZ):           0.91837     0.57117     0.50118
 Zero-point vibrational energy     554073.5 (Joules/Mol)
                                  132.42674 (Kcal/Mol)
 Warning -- explicit consideration of  21 degrees of freedom as
           vibrations may cause significant error
 Vibrational temperatures:     46.27    77.78   108.00   132.10   150.27
          (Kelvin)            178.12   203.09   228.28   333.26   387.25
                              442.00   495.21   563.65   579.02   607.86
                              677.08   752.18   805.70   839.56   848.03
                              874.17   909.74  1008.10  1101.41  1122.93
                             1132.57  1146.62  1290.69  1347.01  1386.69
                             1392.14  1438.17  1459.08  1531.85  1540.44
                             1586.81  1614.75  1640.10  1699.97  1723.20
                             1766.31  1859.29  1890.53  1917.56  1929.66
                             2026.57  2037.20  2056.76  2068.95  2151.08
                             2157.52  2165.78  2177.23  2191.20  2207.95
                             2211.07  2339.20  2381.19  2560.76  3386.45
                             4394.24  4417.52  4451.72  4485.71  4509.06
                             4516.20  4549.81  4572.11  4603.63  4620.73
                             4631.96  4643.33

 Zero-point correction=                           0.211035 (Hartree/Particle)
 Thermal correction to Energy=                    0.224729
 Thermal correction to Enthalpy=                  0.225673
 Thermal correction to Gibbs Free Energy=         0.169654
 Sum of electronic and zero-point Energies=           -610.967449
 Sum of electronic and thermal Energies=              -610.953755
 Sum of electronic and thermal Enthalpies=            -610.952811
 Sum of electronic and thermal Free Energies=         -611.008830

                     E (Thermal)             CV                S
                      KCal/Mol        Cal/Mol-Kelvin    Cal/Mol-Kelvin
 Total                  141.020             50.058            117.901
 Electronic               0.000              0.000              0.000
 Translational            0.889              2.981             41.601
 Rotational               0.889              2.981             31.481
 Vibrational            139.242             44.097             44.819
 Vibration     1          0.594              1.983              5.692
 Vibration     2          0.596              1.976              4.663
 Vibration     3          0.599              1.966              4.016
 Vibration     4          0.602              1.955              3.621
 Vibration     5          0.605              1.946              3.370
 Vibration     6          0.610              1.929              3.040
 Vibration     7          0.615              1.912              2.788
 Vibration     8          0.621              1.893              2.566
 Vibration     9          0.653              1.793              1.866
 Vibration    10          0.674              1.730              1.602
 Vibration    11          0.697              1.660              1.377
 Vibration    12          0.723              1.587              1.193
 Vibration    13          0.759              1.488              0.993
 Vibration    14          0.768              1.465              0.954
 Vibration    15          0.785              1.421              0.884
 Vibration    16          0.828              1.315              0.736
 Vibration    17          0.878              1.200              0.604
 Vibration    18          0.916              1.118              0.524
 Vibration    19          0.940              1.067              0.479
 Vibration    20          0.947              1.054              0.468
 Vibration    21          0.966              1.016              0.437

                           ! Non-Optimized Parameters !
 Normal termination of Gaussian 16 at Thu Dec 10 11:02:01 2020.

 ----------------------------------------------------------------------
 # B3LYP/6-311++G(d,p) empiricaldispersion=gd3bj scf=xqc pop=npa geom=c
 heck
 ----------------------------------------------------------------------

 ------------------------------------
 CID_282332_JID_4946_Energie_neutraal
 ------------------------------------
 Structure from the checkpoint file:  "JID_4946.chk"
 Charge =  0 Multiplicity = 1

 SCF Done:  E(RB3LYP) =  -611.344643782     A.U. after   16 cycles
 Normal termination of Gaussian 16 at Thu Dec 10 11:05:11 2020.

 ----------------------------------------------------------------------
 # B3LYP/6-311++G(d,p) empiricaldispersion=gd3bj scf=xqc pop=npa geom=c
 heck
 ----------------------------------------------------------------------

 ----------------------------------
 CID_282332_JID_4946_Energie_kation
 ----------------------------------
 Structure from the checkpoint file:  "JID_4946.chk"
 Charge =  1 Multiplicity = 2

 SCF Done:  E(UB3LYP) =  -611.018238009     A.U. after   30 cycles
 Normal termination of Gaussian 16 at Thu Dec 10 11:12:12 2020.
 Gaussian 16:  ES64L-G16RevA.03 25-Dec-2016

 ----------------------------------------------------------------------
 # B3LYP/6-311++G(d,p) empiricaldispersion=gd3bj scf=xqc pop=npa geom=c
 heck
 ----------------------------------------------------------------------

 ---------------------------------
 CID_282332_JID_4946_Energie_anion
 ---------------------------------
 Structure from the checkpoint file:  "JID_4946.chk"
 Charge = -1 Multiplicity = 2

                         Standard orientation:
 ---------------------------------------------------------------------
 Center     Atomic      Atomic             Coordinates (Angstroms)
 Number     Number       Type             X           Y           Z
 ---------------------------------------------------------------------
      1          6           0        1.937630   -0.377809    2.336821
      2          6           0        1.574864    0.664159    1.281404
      3          7           0        0.993307    0.055703    0.071763
      4          6           0       -0.391119   -0.257390    0.080174
      5          6           0       -0.832708   -1.569142    0.264397
      6          6           0       -2.195470   -1.865277    0.283339
      7          6           0       -3.138936   -0.846960    0.135245
      8          6           0       -2.718554    0.468235   -0.038698
      9          6           0       -1.348466    0.768259   -0.072597
     10          6           0       -0.918175    2.118219   -0.277669
     11          7           0       -0.581364    3.219370   -0.439600
     12          6           0        1.853874   -0.366854   -0.929650
     13          8           0        3.064884   -0.246191   -0.813803
     14          6           0        1.215600   -0.949670   -2.179572
     15          1           0        1.056721   -0.951621    2.646665
     16          1           0        2.354501    0.109267    3.225261
     17          1           0        2.686864   -1.068520    1.939044
     18          1           0        0.851829    1.386012    1.671159
     19          1           0        2.462119    1.210830    0.959694
     20          1           0       -0.092896   -2.351597    0.398168
     21          1           0       -2.520284   -2.891542    0.425684
     22          1           0       -4.199579   -1.075951    0.156516
     23          1           0       -3.438683    1.270656   -0.158091
     24          1           0        0.904230   -1.986549   -2.013606
     25          1           0        0.333294   -0.385544   -2.495404
     26          1           0        1.967973   -0.936044   -2.968979
 ---------------------------------------------------------------------

 SCF Done:  E(UB3LYP) =  -611.361760250     A.U. after   27 cycles

 The electronic state is 2-A.
 Alpha  occ. eigenvalues --  -18.96592 -14.21495 -14.14130 -10.14935 -10.08108
 Alpha  occ. eigenvalues --  -10.06472 -10.05614 -10.05209 -10.04440 -10.03909
 Alpha  occ. eigenvalues --  -10.03877 -10.03735 -10.03398 -10.02068  -0.91904
 Alpha  occ. eigenvalues --   -0.81608  -0.74708  -0.71278  -0.65209  -0.62518
 Alpha  occ. eigenvalues --   -0.61601  -0.59970  -0.51881  -0.50060  -0.48728
 Alpha  occ. eigenvalues --   -0.42983  -0.39673  -0.37929  -0.35952  -0.34430
 Alpha  occ. eigenvalues --   -0.32816  -0.31700  -0.31655  -0.30260  -0.29872
 Alpha  occ. eigenvalues --   -0.28403  -0.28023  -0.26267  -0.25342  -0.24231
 Alpha  occ. eigenvalues --   -0.23832  -0.22839  -0.22527  -0.20781  -0.19904
 Alpha  occ. eigenvalues --   -0.17653  -0.15019  -0.12999  -0.12202  -0.11182
 Alpha  occ. eigenvalues --    0.04436
 Alpha virt. eigenvalues --    0.08310   0.09053   0.09601   0.10332   0.11158
 Alpha virt. eigenvalues --    0.11624   0.12134   0.12565   0.12922   0.13515
 Alpha virt. eigenvalues --    0.14040   0.14327   0.15179   0.15405   0.16469

  Beta  occ. eigenvalues --  -18.96568 -14.21527 -14.13748 -10.14898 -10.08083
  Beta  occ. eigenvalues --  -10.06194 -10.05619 -10.05206 -10.04455 -10.04008
  Beta  occ. eigenvalues --  -10.03641 -10.03505 -10.03385 -10.01629  -0.91847
  Beta  occ. eigenvalues --   -0.81440  -0.74146  -0.70821  -0.65126  -0.61902
  Beta  occ. eigenvalues --   -0.61327  -0.59738  -0.51758  -0.49462  -0.48371
  Beta  occ. eigenvalues --   -0.42783  -0.39479  -0.37750  -0.35807  -0.34271
  Beta  occ. eigenvalues --   -0.32668  -0.31572  -0.31513  -0.30203  -0.29757
  Beta  occ. eigenvalues --   -0.28352  -0.27982  -0.26189  -0.24530  -0.23845
  Beta  occ. eigenvalues --   -0.23415  -0.22623  -0.22338  -0.20232  -0.18415
  Beta  occ. eigenvalues --   -0.17435  -0.14611  -0.12782  -0.11076  -0.09365
  Beta virt. eigenvalues --    0.08198   0.09003   0.09542   0.10264   0.10694
  Beta virt. eigenvalues --    0.11493   0.11577   0.12082   0.12541   0.13105
  Beta virt. eigenvalues --    0.13490   0.13998   0.14432   0.15140   0.15407

 Mulliken charges and spin densities:
               1          2
     1  C   -0.499126  -0.023843
     2  C   -0.004145   0.007362
     3  N    0.422115  -0.011201
     4  C   -0.505806   0.149851
     5  C    0.049898  -0.076182
     6  C   -0.386286   0.368772
     7  C   -0.337943  -0.021690
     8  C   -0.248568   0.130154
     9  C    1.207530   0.301758
    10  C   -1.399653  -0.101529
    11  N   -0.326460   0.199508
    12  C    0.257324   0.032874
    13  O   -0.359963   0.007302
    14  C   -0.493577  -0.033565
    15  H    0.139048   0.000195
    16  H    0.107814   0.010335
    17  H    0.157202   0.010284
    18  H    0.124459   0.004456
    19  H    0.179902   0.009765
    20  H    0.130517   0.016835
    21  H    0.103906  -0.015218
    22  H    0.100573  -0.001661
    23  H    0.140590  -0.000610
    24  H    0.119585   0.033570
    25  H    0.156045   0.004743
    26  H    0.165020  -0.002265
 Sum of Mulliken charges =  -1.00000   1.00000

 Dipole moment (field-independent basis, Debye):
    X=              0.1649    Y=             -4.6458    Z=              1.4377  Tot=              4.8660
 Quadrupole moment (field-independent basis, Debye-Ang):
   XX=           -116.2064   YY=           -116.3720   ZZ=            -92.4435
   XY=              0.4582   XZ=              3.9885   YZ=              3.7638

 Summary of Natural Population Analysis:

                                       Natural Population
                Natural  -----------------------------------------------
    Atom  No    Charge         Core      Valence    Rydberg      Total
 -----------------------------------------------------------------------
      C    1   -0.29204      0.99966     2.28878    0.00360     3.29204
      C    2   -0.08019      0.99962     2.07114    0.00943     3.08019
      N    3   -0.26100      0.99961     2.74892    0.01247     3.76100
      C    4    0.13344      0.99944     1.85458    0.01254     2.86656
      C    5   -0.13223      0.99952     2.12509    0.00762     3.13223
      C    6   -0.02245      0.99958     2.01352    0.00936     3.02245
      C    7   -0.11279      0.99957     2.10422    0.00900     3.11279
      C    8   -0.05818      0.99955     2.05080    0.00783     3.05818
      C    9   -0.04286      0.99937     2.03276    0.01072     3.04286
      C   10    0.14010      0.99965     1.84145    0.01881     2.85990
      N   11   -0.15295      0.99978     2.64173    0.01144     3.65295
      C   12    0.35361      0.99967     1.62439    0.02233     2.64639
      O   13   -0.33389      0.99987     3.32800    0.00602     4.33389
      C   14   -0.33095      0.99963     2.32668    0.00464     3.33095
      H   15    0.09967      0.00000     0.39945    0.00087     0.40033
      H   16    0.09276      0.00000     0.40643    0.00081     0.40724
      H   17    0.10068      0.00000     0.39841    0.00091     0.39932
      H   18    0.10070      0.00000     0.39801    0.00128     0.39930
      H   19    0.10449      0.00000     0.39386    0.00165     0.39551
      H   20    0.09506      0.00000     0.40372    0.00123     0.40494
      H   21    0.08531      0.00000     0.41317    0.00152     0.41469
      H   22    0.09054      0.00000     0.40843    0.00103     0.40946
      H   23    0.09528      0.00000     0.40381    0.00091     0.40472
      H   24    0.10891      0.00000     0.38954    0.00155     0.39109
      H   25    0.11393      0.00000     0.38510    0.00098     0.38607
      H   26    0.10505      0.00000     0.39404    0.00091     0.39495
 =======================================================================
   * Total *   -0.00000     13.99453    35.84603    0.15944    50.00000

 Normal termination of Gaussian 16 at Thu Dec 10 11:18:18 2020.
