 Gaussian 16, Revision A.03,

 -----------------------------------------------------------
 # opt freq B3LYP/6-31G(d) empiricaldispersion=gd3bj scf=xqc
 -----------------------------------------------------------

 ------------------------------
 CID_64386330_JID_7649_neutraal
 ------------------------------
 Symbolic Z-matrix:
 Charge =  0 Multiplicity = 1

 SCF Done:  E(RB3LYP) =  -771.008175573     A.U. after   13 cycles
 SCF Done:  E(RB3LYP) =  -771.015568237     A.U. after   11 cycles
 SCF Done:  E(RB3LYP) =  -771.014194189     A.U. after   11 cycles
 SCF Done:  E(RB3LYP) =  -771.016906585     A.U. after   11 cycles
 SCF Done:  E(RB3LYP) =  -771.017671614     A.U. after   11 cycles
 SCF Done:  E(RB3LYP) =  -771.018032198     A.U. after   11 cycles
 SCF Done:  E(RB3LYP) =  -771.018270620     A.U. after   11 cycles
 SCF Done:  E(RB3LYP) =  -771.018619749     A.U. after   11 cycles
 SCF Done:  E(RB3LYP) =  -771.018680015     A.U. after   11 cycles
 SCF Done:  E(RB3LYP) =  -771.018751341     A.U. after    9 cycles
 SCF Done:  E(RB3LYP) =  -771.018768422     A.U. after    9 cycles
 SCF Done:  E(RB3LYP) =  -771.018773677     A.U. after    9 cycles
 SCF Done:  E(RB3LYP) =  -771.018773866     A.U. after    9 cycles
 SCF Done:  E(RB3LYP) =  -771.018776092     A.U. after    9 cycles
 SCF Done:  E(RB3LYP) =  -771.018776037     A.U. after    7 cycles
 SCF Done:  E(RB3LYP) =  -771.018776041     A.U. after    6 cycles
 Optimization completed.
    -- Stationary point found.
 Normal termination of Gaussian 16 at Fri Dec 11 13:12:53 2020.

 --------------------------------------------------------------------
 #N Geom=AllCheck Guess=TCheck SCRF=Check GenChk RB3LYP/6-31G(d) Freq
 --------------------------------------------------------------------

 Structure from the checkpoint file:  "JID_7649.chk"
 ------------------------------
 CID_64386330_JID_7649_neutraal
 ------------------------------
 Charge =  0 Multiplicity = 1

 SCF Done:  E(RB3LYP) =  -771.018776041     A.U. after    1 cycles

  Exact polarizability: 180.335   4.251 143.682   0.529  -3.420 130.726
 Approx polarizability: 215.042   1.079 206.121  -0.746  -3.481 204.480

                      1                      2                      3
                      A                      A                      A
 Frequencies --     24.6421                40.5032                60.4684
 Red. masses --      3.6179                 3.8454                 3.6152
 Frc consts  --      0.0013                 0.0037                 0.0078
 IR Inten    --      0.5138                 0.5482                 0.2549

                      4                      5                      6
                      A                      A                      A
 Frequencies --     83.5500               111.0094               137.9756
 Red. masses --      2.9102                 2.1083                 1.2223
 Frc consts  --      0.0120                 0.0153                 0.0137
 IR Inten    --      0.4054                 5.6875                 1.3405

                      7                      8                      9
                      A                      A                      A
 Frequencies --    154.0553               171.2189               184.7138
 Red. masses --      3.2979                 1.9848                 1.6981
 Frc consts  --      0.0461                 0.0343                 0.0341
 IR Inten    --      1.4217                 3.4042                 1.5345

                     10                     11                     12
                      A                      A                      A
 Frequencies --    198.2515               207.3875               217.6561
 Red. masses --      2.3549                 1.9893                 1.2510
 Frc consts  --      0.0545                 0.0504                 0.0349
 IR Inten    --      5.9858                 2.0099                 0.6382

                     13                     14                     15
                      A                      A                      A
 Frequencies --    238.7388               258.0498               274.8604
 Red. masses --      2.7801                 1.6547                 1.7468
 Frc consts  --      0.0934                 0.0649                 0.0778
 IR Inten    --      4.2296                 0.0533                 1.7892

                     16                     17                     18
                      A                      A                      A
 Frequencies --    287.1852               308.1495               318.1161
 Red. masses --      1.9814                 3.0331                 3.6899
 Frc consts  --      0.0963                 0.1697                 0.2200
 IR Inten    --      0.8968                 3.6067                 8.9579

                     19                     20                     21
                      A                      A                      A
 Frequencies --    349.1560               365.3222               373.5499
 Red. masses --      3.1688                 2.2545                 2.0741
 Frc consts  --      0.2276                 0.1773                 0.1705
 IR Inten    --      0.4024                 0.5005                 0.9618

                     22                     23                     24
                      A                      A                      A
 Frequencies --    410.4296               441.4597               489.6314
 Red. masses --      3.2302                 2.5876                 3.0911
 Frc consts  --      0.3206                 0.2971                 0.4366
 IR Inten    --      2.9275                 1.6245                 1.4249

                     25                     26                     27
                      A                      A                      A
 Frequencies --    513.9577               529.8162               616.6477
 Red. masses --      3.1841                 2.5835                 3.8015
 Frc consts  --      0.4956                 0.4273                 0.8517
 IR Inten    --      2.4065                11.3337                 1.2418

                     28                     29                     30
                      A                      A                      A
 Frequencies --    662.4253               701.5311               752.5744
 Red. masses --      3.6478                 3.6402                 3.9644
 Frc consts  --      0.9431                 1.0555                 1.3229
 IR Inten    --      2.2926                 3.2069                 0.3969

                     31                     32                     33
                      A                      A                      A
 Frequencies --    757.7077               781.7084               798.3926
 Red. masses --      3.7151                 2.3279                 1.8967
 Frc consts  --      1.2567                 0.8381                 0.7123
 IR Inten    --      3.5910                33.5178                14.4814

                     34                     35                     36
                      A                      A                      A
 Frequencies --    814.8746               843.1684               864.7540
 Red. masses --      2.5643                 2.1289                 2.1954
 Frc consts  --      1.0032                 0.8918                 0.9673
 IR Inten    --      3.0222                10.5323                 9.8254

                     37                     38                     39
                      A                      A                      A
 Frequencies --    895.3734               905.4915               924.9021
 Red. masses --      2.1066                 1.9803                 3.3991
 Frc consts  --      0.9950                 0.9567                 1.7132
 IR Inten    --     19.0063                 3.3630                11.9700

                     40                     41                     42
                      A                      A                      A
 Frequencies --    927.5393               962.6939               963.5716
 Red. masses --      2.3109                 2.1604                 2.1403
 Frc consts  --      1.1714                 1.1797                 1.1709
 IR Inten    --     14.4720                 0.5760                39.3798

                     43                     44                     45
                      A                      A                      A
 Frequencies --    992.5065               997.9387              1002.6082
 Red. masses --      2.3266                 2.2837                 2.2329
 Frc consts  --      1.3503                 1.3400                 1.3224
 IR Inten    --      1.7823                 2.1005                 5.8651

                     46                     47                     48
                      A                      A                      A
 Frequencies --   1009.8986              1062.5744              1084.6773
 Red. masses --      2.3184                 1.9741                 1.9411
 Frc consts  --      1.3931                 1.3132                 1.3456
 IR Inten    --      4.0333                 3.7568                17.2208

                     49                     50                     51
                      A                      A                      A
 Frequencies --   1099.9784              1109.7650              1114.7955
 Red. masses --      2.4151                 2.6404                 3.5229
 Frc consts  --      1.7217                 1.9160                 2.5796
 IR Inten    --     87.0015               118.3658               104.2863

                     52                     53                     54
                      A                      A                      A
 Frequencies --   1133.3469              1146.3914              1167.2190
 Red. masses --      1.7814                 2.0573                 2.0997
 Frc consts  --      1.3482                 1.5930                 1.6854
 IR Inten    --      5.7370                40.9406                19.0569

                     55                     56                     57
                      A                      A                      A
 Frequencies --   1169.4449              1172.0549              1174.5495
 Red. masses --      1.8982                 1.3548                 1.5500
 Frc consts  --      1.5295                 1.0965                 1.2598
 IR Inten    --     89.6216                23.8672                 3.5818

                     58                     59                     60
                      A                      A                      A
 Frequencies --   1190.6434              1196.0974              1200.4588
 Red. masses --      1.2764                 1.3724                 1.4894
 Frc consts  --      1.0661                 1.1568                 1.2646
 IR Inten    --      2.6523                 6.0455                 2.2642

                     61                     62                     63
                      A                      A                      A
 Frequencies --   1222.5909              1229.5952              1237.8282
 Red. masses --      1.5187                 1.6276                 2.1477
 Frc consts  --      1.3375                 1.4498                 1.9389
 IR Inten    --      2.5705                21.2654                76.0233

                     64                     65                     66
                      A                      A                      A
 Frequencies --   1248.3493              1264.0269              1277.8407
 Red. masses --      1.2450                 1.6591                 1.8317
 Frc consts  --      1.1431                 1.5619                 1.7622
 IR Inten    --      1.0677                14.1340                 6.4535

                     67                     68                     69
                      A                      A                      A
 Frequencies --   1279.7732              1307.6209              1316.3413
 Red. masses --      1.4961                 1.3004                 1.3197
 Frc consts  --      1.4437                 1.3100                 1.3473
 IR Inten    --      0.7105                21.9589                 0.2060

                     70                     71                     72
                      A                      A                      A
 Frequencies --   1334.9053              1357.5780              1364.9207
 Red. masses --      1.4142                 1.4120                 1.4381
 Frc consts  --      1.4847                 1.5332                 1.5785
 IR Inten    --      0.5899                 8.8596                 6.5036

                     73                     74                     75
                      A                      A                      A
 Frequencies --   1382.0586              1383.5110              1393.8405
 Red. masses --      1.2750                 1.4171                 1.4565
 Frc consts  --      1.4349                 1.5981                 1.6672
 IR Inten    --     12.4517                 1.4529                 3.8676

                     76                     77                     78
                      A                      A                      A
 Frequencies --   1401.8366              1408.7252              1411.9345
 Red. masses --      1.5106                 1.4093                 1.2681
 Frc consts  --      1.7490                 1.6478                 1.4895
 IR Inten    --      0.8660                10.2586                 0.8439

                     79                     80                     81
                      A                      A                      A
 Frequencies --   1416.3071              1431.5319              1437.2489
 Red. masses --      1.4038                 1.3341                 1.2681
 Frc consts  --      1.6590                 1.6107                 1.5434
 IR Inten    --     31.7786                63.4163                 7.6286

                     82                     83                     84
                      A                      A                      A
 Frequencies --   1482.4163              1497.8043              1498.7277
 Red. masses --      1.1839                 1.1203                 1.1000
 Frc consts  --      1.5329                 1.4808                 1.4557
 IR Inten    --      0.0835                 1.8449                 4.0038

                     85                     86                     87
                      A                      A                      A
 Frequencies --   1504.9172              1509.6224              1514.6482
 Red. masses --      1.1708                 1.1076                 1.0501
 Frc consts  --      1.5622                 1.4872                 1.4195
 IR Inten    --      1.4614                 2.3506                 3.4348

                     88                     89                     90
                      A                      A                      A
 Frequencies --   1518.0106              1520.4926              1522.6578
 Red. masses --      1.1090                 1.0714                 1.0556
 Frc consts  --      1.5056                 1.4594                 1.4419
 IR Inten    --     42.0526                 0.3463                 7.6278

                     91                     92                     93
                      A                      A                      A
 Frequencies --   1523.9281              1532.0161              1536.7314
 Red. masses --      1.0588                 1.0618                 1.0764
 Frc consts  --      1.4487                 1.4683                 1.4978
 IR Inten    --      2.8072                 5.4657                 6.3231

                     94                     95                     96
                      A                      A                      A
 Frequencies --   1541.7928              1544.6714              1550.1319
 Red. masses --      1.0566                 1.0822                 1.0588
 Frc consts  --      1.4798                 1.5214                 1.4989
 IR Inten    --      4.8216                 2.0528                 0.7953

                     97                     98                     99
                      A                      A                      A
 Frequencies --   1559.8503              2927.1628              2963.3059
 Red. masses --      1.1083                 1.0803                 1.0585
 Frc consts  --      1.5888                 5.4535                 5.4766
 IR Inten    --     22.4963                44.3333                71.8107

                    100                    101                    102
                      A                      A                      A
 Frequencies --   3000.2986              3017.0534              3038.7023
 Red. masses --      1.0816                 1.0421                 1.0394
 Frc consts  --      5.7366                 5.5887                 5.6547
 IR Inten    --     47.8453                83.2798                63.9610

                    103                    104                    105
                      A                      A                      A
 Frequencies --   3052.4739              3056.4234              3061.1432
 Red. masses --      1.0647                 1.0624                 1.0401
 Frc consts  --      5.8452                 5.8473                 5.7425
 IR Inten    --      9.5488                10.5996                11.0831

                    106                    107                    108
                      A                      A                      A
 Frequencies --   3068.3358              3071.2332              3074.9828
 Red. masses --      1.0684                 1.0780                 1.0762
 Frc consts  --      5.9261                 5.9910                 5.9954
 IR Inten    --      0.4516                10.4554                55.6042

                    109                    110                    111
                      A                      A                      A
 Frequencies --   3075.9953              3078.8552              3080.0351
 Red. masses --      1.0995                 1.0717                 1.0779
 Frc consts  --      6.1294                 5.9858                 6.0249
 IR Inten    --     59.1344                79.6165                97.9879

                    112                    113                    114
                      A                      A                      A
 Frequencies --   3089.3438              3094.0698              3102.8363
 Red. masses --      1.0757                 1.1030                 1.1040
 Frc consts  --      6.0486                 6.2215                 6.2623
 IR Inten    --     11.5769                32.3514                 7.4101

                    115                    116                    117
                      A                      A                      A
 Frequencies --   3105.9247              3108.2745              3119.3743
 Red. masses --      1.1039                 1.0953                 1.1037
 Frc consts  --      6.2743                 6.2350                 6.3275
 IR Inten    --     32.9413                42.1740                33.6679

                    118                    119                    120
                      A                      A                      A
 Frequencies --   3121.0104              3121.6660              3147.4266
 Red. masses --      1.1048                 1.1006                 1.1003
 Frc consts  --      6.3406                 6.3191                 6.4222
 IR Inten    --     55.9788                49.6307                23.6030

                    121                    122                    123
                      A                      A                      A
 Frequencies --   3148.1773              3152.9997              3581.4496
 Red. masses --      1.1068                 1.1021                 1.0715
 Frc consts  --      6.4632                 6.4551                 8.0975
 IR Inten    --     18.2412                15.7082                 2.1098

 - Thermochemistry -
 -------------------
 Temperature   298.150 Kelvin.  Pressure   1.00000 Atm.
 Atom     1 has atomic number  6 and mass  12.00000

 Molecular mass:   242.19943 amu.
 Principal axes and moments of inertia in atomic units:
                           1         2         3
     Eigenvalues --  1786.000176905.423007576.51184
           X            0.99998   0.00589   0.00242
           Y           -0.00583   0.99961  -0.02713
           Z           -0.00258   0.02712   0.99963
 This molecule is an asymmetric top.
 Rotational symmetry number  1.
 Warning -- assumption of classical behavior for rotation
           may cause significant error
 Rotational temperatures (Kelvin)      0.04850     0.01254     0.01143
 Rotational constants (GHZ):           1.01049     0.26135     0.23820
 Zero-point vibrational energy    1034013.1 (Joules/Mol)
                                  247.13507 (Kcal/Mol)
 Warning -- explicit consideration of  27 degrees of freedom as
           vibrations may cause significant error
 Vibrational temperatures:     35.45    58.28    87.00   120.21   159.72
          (Kelvin)            198.52   221.65   246.35   265.76   285.24
                              298.38   313.16   343.49   371.28   395.46
                              413.20   443.36   457.70   502.36   525.62
                              537.45   590.52   635.16   704.47   739.47
                              762.29   887.22   953.08  1009.35  1082.79
                             1090.17  1124.70  1148.71  1172.42  1213.13
                             1244.19  1288.24  1302.80  1330.73  1334.52
                             1385.10  1386.36  1428.00  1435.81  1442.53
                             1453.02  1528.81  1560.61  1582.62  1596.70
                             1603.94  1630.63  1649.40  1679.37  1682.57
                             1686.33  1689.91  1713.07  1720.92  1727.19
                             1759.04  1769.11  1780.96  1796.10  1818.65
                             1838.53  1841.31  1881.37  1893.92  1920.63
                             1953.25  1963.82  1988.47  1990.56  2005.43
                             2016.93  2026.84  2031.46  2037.75  2059.66
                             2067.88  2132.87  2155.01  2156.33  2165.24
                             2172.01  2179.24  2184.08  2187.65  2190.76
                             2192.59  2204.23  2211.01  2218.30  2222.44
                             2230.29  2244.28  4211.53  4263.54  4316.76
                             4340.87  4372.01  4391.83  4397.51  4404.30
                             4414.65  4418.82  4424.21  4425.67  4429.79
                             4431.48  4444.88  4451.68  4464.29  4468.73
                             4472.11  4488.08  4490.44  4491.38  4528.44
                             4529.52  4536.46  5152.91

 Zero-point correction=                           0.393835 (Hartree/Particle)
 Thermal correction to Energy=                    0.411739
 Thermal correction to Enthalpy=                  0.412683
 Thermal correction to Gibbs Free Energy=         0.348136
 Sum of electronic and zero-point Energies=           -770.624941
 Sum of electronic and thermal Energies=              -770.607037
 Sum of electronic and thermal Enthalpies=            -770.606093
 Sum of electronic and thermal Free Energies=         -770.670640

                     E (Thermal)             CV                S
                      KCal/Mol        Cal/Mol-Kelvin    Cal/Mol-Kelvin
 Total                  258.370             69.147            135.850
 Electronic               0.000              0.000              0.000
 Translational            0.889              2.981             42.355
 Rotational               0.889              2.981             32.902
 Vibrational            256.593             63.185             60.594
 Vibration     1          0.593              1.985              6.220
 Vibration     2          0.594              1.981              5.234
 Vibration     3          0.597              1.973              4.442
 Vibration     4          0.600              1.961              3.806
 Vibration     5          0.607              1.940              3.251
 Vibration     6          0.614              1.915              2.832
 Vibration     7          0.620              1.898              2.622
 Vibration     8          0.626              1.878              2.422
 Vibration     9          0.631              1.861              2.280
 Vibration    10          0.637              1.842              2.149
 Vibration    11          0.641              1.829              2.067
 Vibration    12          0.646              1.814              1.979
 Vibration    13          0.657              1.781              1.812
 Vibration    14          0.667              1.749              1.675
 Vibration    15          0.677              1.720              1.565
 Vibration    16          0.684              1.698              1.490
 Vibration    17          0.698              1.658              1.372
 Vibration    18          0.705              1.639              1.320
 Vibration    19          0.726              1.577              1.170
 Vibration    20          0.739              1.544              1.099
 Vibration    21          0.745              1.526              1.065
 Vibration    22          0.775              1.448              0.925
 Vibration    23          0.801              1.380              0.822
 Vibration    24          0.845              1.273              0.685
 Vibration    25          0.869              1.219              0.624
 Vibration    26          0.885              1.184              0.588
 Vibration    27          0.976              0.997              0.422

 Optimization completed.
    -- Stationary point found.
 Normal termination of Gaussian 16 at Fri Dec 11 13:35:13 2020.

 ----------------------------------------------------------------------
 # B3LYP/6-311++G(d,p) empiricaldispersion=gd3bj scf=xqc pop=npa geom=c
 heck
 ----------------------------------------------------------------------

 --------------------------------------
 CID_64386330_JID_7649_Energie_neutraal
 --------------------------------------
 Structure from the checkpoint file:  "JID_7649.chk"
 Charge =  0 Multiplicity = 1

 SCF Done:  E(RB3LYP) =  -771.236807554     A.U. after   15 cycles
 Normal termination of Gaussian 16 at Fri Dec 11 13:45:54 2020.

 ----------------------------------------------------------------------
 # B3LYP/6-311++G(d,p) empiricaldispersion=gd3bj scf=xqc pop=npa geom=c
 heck
 ----------------------------------------------------------------------

 ------------------------------------
 CID_64386330_JID_7649_Energie_kation
 ------------------------------------
 Structure from the checkpoint file:  "JID_7649.chk"
 Charge =  1 Multiplicity = 2

 SCF Done:  E(UB3LYP) =  -770.957574988     A.U. after   25 cycles
 Normal termination of Gaussian 16 at Fri Dec 11 14:11:15 2020.
 Gaussian 16:  ES64L-G16RevA.03 25-Dec-2016

 ----------------------------------------------------------------------
 # B3LYP/6-311++G(d,p) empiricaldispersion=gd3bj scf=xqc pop=npa geom=c
 heck
 ----------------------------------------------------------------------

 -----------------------------------
 CID_64386330_JID_7649_Energie_anion
 -----------------------------------
 Structure from the checkpoint file:  "JID_7649.chk"
 Charge = -1 Multiplicity = 2

                         Standard orientation:
 ---------------------------------------------------------------------
 Center     Atomic      Atomic             Coordinates (Angstroms)
 Number     Number       Type             X           Y           Z
 ---------------------------------------------------------------------
      1          6           0        1.994949    2.355124   -0.126809
      2          6           0        1.514462    0.955320   -0.505035
      3          6           0        2.708465   -0.013023   -0.616974
      4          8           0        3.547870    0.116525    0.494969
      5          6           0        4.879185   -0.311181    0.255486
      6          8           0        2.276743   -1.355311   -0.832498
      7          6           0        2.175150   -2.180113    0.329103
      8          7           0        0.534235    0.430643    0.441781
      9          6           0       -0.699772    1.213803    0.632307
     10          6           0       -1.514114    1.521868   -0.653372
     11          6           0       -2.513854    0.414917   -1.019769
     12          6           0       -1.854547   -0.988581   -1.192526
     13          6           0       -1.944517   -1.609051    0.230045
     14          6           0       -2.601313   -0.481408    1.077938
     15          6           0       -1.592349    0.510467    1.680955
     16          7           0       -3.438808    0.270470    0.122515
     17          6           0       -4.680453   -0.410928   -0.221822
     18          1           0        2.331814    2.366205    0.912600
     19          1           0        1.200902    3.097286   -0.253786
     20          1           0        2.833184    2.655108   -0.765631
     21          1           0        1.107692    0.999781   -1.533170
     22          1           0        3.261482    0.248405   -1.532778
     23          1           0        5.353627    0.296728   -0.529088
     24          1           0        5.426337   -0.179795    1.191765
     25          1           0        4.923551   -1.365866   -0.044970
     26          1           0        3.150938   -2.592657    0.616017
     27          1           0        1.758451   -1.642819    1.184533
     28          1           0        1.515179   -3.006343    0.049703
     29          1           0        0.288789   -0.497475    0.118523
     30          1           0       -0.381946    2.169177    1.061779
     31          1           0       -2.093887    2.437468   -0.489345
     32          1           0       -0.839896    1.716465   -1.495462
     33          1           0       -3.075469    0.715332   -1.910543
     34          1           0       -0.832038   -0.927728   -1.576728
     35          1           0       -2.422230   -1.589480   -1.909480
     36          1           0       -0.980783   -1.930133    0.636516
     37          1           0       -2.585225   -2.496221    0.221498
     38          1           0       -3.228337   -0.884272    1.880326
     39          1           0       -0.942588    0.011983    2.409147
     40          1           0       -2.175678    1.268660    2.214448
     41          1           0       -4.554802   -1.418431   -0.658405
     42          1           0       -5.296213   -0.510778    0.678433
     43          1           0       -5.235488    0.198616   -0.942897
 ---------------------------------------------------------------------

 SCF Done:  E(UB3LYP) =  -771.223105852     A.U. after   29 cycles

 The electronic state is 2-A.
 Alpha  occ. eigenvalues --  -19.04295 -19.03560 -14.20310 -14.19702 -10.17642
 Alpha  occ. eigenvalues --  -10.12396 -10.11646 -10.10668 -10.10297 -10.10031
 Alpha  occ. eigenvalues --  -10.09991 -10.08931 -10.07069 -10.06973 -10.06723
 Alpha  occ. eigenvalues --  -10.06641 -10.06620  -0.98372  -0.91918  -0.84647
 Alpha  occ. eigenvalues --   -0.81346  -0.70269  -0.67362  -0.66453  -0.65197
 Alpha  occ. eigenvalues --   -0.62441  -0.60125  -0.58509  -0.55175  -0.54308
 Alpha  occ. eigenvalues --   -0.50949  -0.48437  -0.47276  -0.43948  -0.43136
 Alpha  occ. eigenvalues --   -0.42064  -0.41546  -0.39833  -0.38179  -0.36794
 Alpha  occ. eigenvalues --   -0.35859  -0.35473  -0.34685  -0.33684  -0.33235
 Alpha  occ. eigenvalues --   -0.32857  -0.32013  -0.31318  -0.30758  -0.30038
 Alpha  occ. eigenvalues --   -0.29842  -0.28853  -0.28455  -0.27880  -0.26543
 Alpha  occ. eigenvalues --   -0.26337  -0.26208  -0.23827  -0.23444  -0.22772
 Alpha  occ. eigenvalues --   -0.22290  -0.21891  -0.21304  -0.19181  -0.17208
 Alpha  occ. eigenvalues --   -0.12916  -0.12561   0.04056
 Alpha virt. eigenvalues --    0.05467   0.06565   0.07230   0.07570   0.07792
 Alpha virt. eigenvalues --    0.08523   0.09102   0.09339   0.09825   0.09916
 Alpha virt. eigenvalues --    0.10625   0.10893   0.11467   0.11994   0.12135

  Beta  occ. eigenvalues --  -19.04288 -19.03558 -14.20306 -14.19697 -10.17633
  Beta  occ. eigenvalues --  -10.12357 -10.11627 -10.10664 -10.10295 -10.10023
  Beta  occ. eigenvalues --  -10.09983 -10.08899 -10.07052 -10.06960 -10.06718
  Beta  occ. eigenvalues --  -10.06632 -10.06604  -0.98362  -0.91909  -0.84632
  Beta  occ. eigenvalues --   -0.81338  -0.70250  -0.67336  -0.66432  -0.65174
  Beta  occ. eigenvalues --   -0.62410  -0.60068  -0.58461  -0.55144  -0.54269
  Beta  occ. eigenvalues --   -0.50918  -0.48406  -0.47246  -0.43926  -0.43092
  Beta  occ. eigenvalues --   -0.42028  -0.41510  -0.39812  -0.38153  -0.36773
  Beta  occ. eigenvalues --   -0.35834  -0.35447  -0.34660  -0.33656  -0.33203
  Beta  occ. eigenvalues --   -0.32835  -0.31985  -0.31294  -0.30730  -0.30011
  Beta  occ. eigenvalues --   -0.29818  -0.28833  -0.28433  -0.27856  -0.26523
  Beta  occ. eigenvalues --   -0.26313  -0.26183  -0.23805  -0.23420  -0.22750
  Beta  occ. eigenvalues --   -0.22264  -0.21867  -0.21283  -0.19165  -0.17195
  Beta  occ. eigenvalues --   -0.12902  -0.12539
  Beta virt. eigenvalues --    0.05972   0.06495   0.07085   0.07577   0.07996
  Beta virt. eigenvalues --    0.08425   0.08865   0.09378   0.09553   0.10097
  Beta virt. eigenvalues --    0.10364   0.10944   0.11148   0.11606   0.12258

 Mulliken charges and spin densities:
               1          2
     1  C   -0.139558  -0.569410
     2  C    0.048581   0.115219
     3  C   -0.932879   0.232181
     4  O   -0.092747   0.038727
     5  C    0.874593  -1.083719
     6  O   -0.092563   0.002451
     7  C    0.030242  -0.344754
     8  N    0.217959  -0.023590
     9  C   -0.362110   0.452940
    10  C   -0.200177  -0.418422
    11  C   -0.014508   0.047809
    12  C    0.112386  -0.609440
    13  C   -0.382685  -0.196881
    14  C    0.767353  -0.574644
    15  C   -1.041122   0.103218
    16  N    0.009592   0.080215
    17  C    0.804148  -1.003232
    18  H    0.143684   0.051049
    19  H   -0.073082   0.213116
    20  H   -0.071675   0.230581
    21  H    0.169021  -0.019055
    22  H   -0.165243   0.343215
    23  H   -0.311100   0.443192
    24  H   -0.239730   0.389537
    25  H   -0.117191   0.263091
    26  H   -0.214411   0.334948
    27  H    0.161662   0.047065
    28  H    0.011172   0.141341
    29  H    1.015513  -0.966398
    30  H    0.151539   0.045005
    31  H    0.045370   0.120437
    32  H    0.019651   0.088800
    33  H   -0.094439   0.335657
    34  H   -0.009361   0.200637
    35  H   -0.183244   0.381891
    36  H   -0.032293   0.138538
    37  H   -0.371806   0.572449
    38  H   -0.003800   0.231103
    39  H    0.017785   0.148486
    40  H    0.003487   0.148573
    41  H   -0.073103   0.219742
    42  H   -0.193006   0.323395
    43  H   -0.191904   0.324938
 Sum of Mulliken charges =  -1.00000   1.00000

 Dipole moment (field-independent basis, Debye):
    X=             -0.2213    Y=              1.6106    Z=              0.9415  Tot=              1.8787
 Quadrupole moment (field-independent basis, Debye-Ang):
   XX=           -215.3962   YY=           -151.5922   ZZ=           -143.3650
   XY=             -5.6410   XZ=             -1.3302   YZ=             -0.3249

 Summary of Natural Population Analysis:

                                       Natural Population
                Natural  -----------------------------------------------
    Atom  No    Charge         Core      Valence    Rydberg      Total
 -----------------------------------------------------------------------
      C    1   -0.29178      0.99964     2.28602    0.00612     3.29178
      C    2   -0.02313      0.99957     2.01055    0.01301     3.02313
      C    3    0.23005      0.99953     1.75061    0.01981     2.76995
      O    4   -0.29865      0.99987     3.28991    0.00888     4.29865
      C    5   -0.09889      0.99961     2.09036    0.00893     3.09889
      O    6   -0.31244      0.99989     3.30348    0.00908     4.31244
      C    7   -0.10875      0.99959     2.09975    0.00942     3.10875
      N    8   -0.35440      0.99972     2.84426    0.01042     3.85440
      C    9   -0.00882      0.99959     1.99714    0.01209     3.00882
      C   10   -0.20045      0.99958     2.19115    0.00972     3.20045
      C   11   -0.00691      0.99959     1.99345    0.01387     3.00691
      C   12   -0.21040      0.99962     2.20205    0.00873     3.21040
      C   13   -0.20967      0.99962     2.20136    0.00869     3.20967
      C   14   -0.00683      0.99959     1.99328    0.01396     3.00683
      C   15   -0.19223      0.99959     2.18227    0.01038     3.19223
      N   16   -0.28599      0.99972     2.77295    0.01332     3.78599
      C   17   -0.17762      0.99964     2.16925    0.00873     3.17762
      H   18    0.10771      0.00000     0.39105    0.00125     0.39229
      H   19    0.09848      0.00000     0.40065    0.00087     0.40152
      H   20    0.10169      0.00000     0.39740    0.00092     0.39831
      H   21    0.08065      0.00000     0.41728    0.00208     0.41935
      H   22    0.07639      0.00000     0.42189    0.00173     0.42361
      H   23    0.08229      0.00000     0.41588    0.00183     0.41771
      H   24    0.09160      0.00000     0.40733    0.00107     0.40840
      H   25    0.08270      0.00000     0.41575    0.00155     0.41730
      H   26    0.08102      0.00000     0.41787    0.00111     0.41898
      H   27    0.09397      0.00000     0.40451    0.00152     0.40603
      H   28    0.08904      0.00000     0.40993    0.00103     0.41096
      H   29    0.18184      0.00000     0.31290    0.00525     0.31816
      H   30    0.09589      0.00000     0.40248    0.00163     0.40411
      H   31    0.10403      0.00000     0.39456    0.00141     0.39597
      H   32    0.09894      0.00000     0.40000    0.00106     0.40106
      H   33    0.10008      0.00000     0.39879    0.00112     0.39992
      H   34    0.10241      0.00000     0.39595    0.00164     0.39759
      H   35    0.10353      0.00000     0.39534    0.00114     0.39647
      H   36    0.09933      0.00000     0.39943    0.00124     0.40067
      H   37    0.10447      0.00000     0.39421    0.00132     0.39553
      H   38    0.10030      0.00000     0.39859    0.00111     0.39970
      H   39    0.10399      0.00000     0.39487    0.00115     0.39601
      H   40    0.10343      0.00000     0.39543    0.00114     0.39657
      H   41    0.08220      0.00000     0.41610    0.00170     0.41780
      H   42    0.09537      0.00000     0.40346    0.00116     0.40463
      H   43    0.09559      0.00000     0.40324    0.00117     0.40441
 =======================================================================
   * Total *   -0.00000     16.99395    49.78270    0.22336    67.00000

 Normal termination of Gaussian 16 at Fri Dec 11 14:39:17 2020.
