 Gaussian 16, Revision A.03,

 -----------------------------------------------------------
 # opt freq B3LYP/6-31G(d) empiricaldispersion=gd3bj scf=xqc
 -----------------------------------------------------------

 ------------------------------
 CID_67831879_JID_1887_neutraal
 ------------------------------
 Symbolic Z-matrix:
 Charge =  0 Multiplicity = 1

 SCF Done:  E(RB3LYP) =  -500.389720844     A.U. after   13 cycles
 SCF Done:  E(RB3LYP) =  -500.392630662     A.U. after   11 cycles
 SCF Done:  E(RB3LYP) =  -500.392867765     A.U. after   10 cycles
 SCF Done:  E(RB3LYP) =  -500.392855404     A.U. after   10 cycles
 SCF Done:  E(RB3LYP) =  -500.392950182     A.U. after   10 cycles
 SCF Done:  E(RB3LYP) =  -500.392990472     A.U. after   10 cycles
 SCF Done:  E(RB3LYP) =  -500.393506465     A.U. after   12 cycles
 SCF Done:  E(RB3LYP) =  -500.377064675     A.U. after   13 cycles
 SCF Done:  E(RB3LYP) =  -500.394439688     A.U. after   13 cycles
 SCF Done:  E(RB3LYP) =  -500.394695165     A.U. after   10 cycles
 SCF Done:  E(RB3LYP) =  -500.394858423     A.U. after   10 cycles
 SCF Done:  E(RB3LYP) =  -500.394868371     A.U. after   10 cycles
 SCF Done:  E(RB3LYP) =  -500.394870200     A.U. after    9 cycles
 SCF Done:  E(RB3LYP) =  -500.394870103     A.U. after    9 cycles
 SCF Done:  E(RB3LYP) =  -500.394870137     A.U. after    6 cycles
 SCF Done:  E(RB3LYP) =  -500.394870158     A.U. after    6 cycles
 Optimization completed.
    -- Stationary point found.
 Normal termination of Gaussian 16 at Tue Dec  8 21:36:53 2020.

 --------------------------------------------------------------------
 #N Geom=AllCheck Guess=TCheck SCRF=Check GenChk RB3LYP/6-31G(d) Freq
 --------------------------------------------------------------------

 Structure from the checkpoint file:  "JID_1887.chk"
 ------------------------------
 CID_67831879_JID_1887_neutraal
 ------------------------------
 Charge =  0 Multiplicity = 1

 SCF Done:  E(RB3LYP) =  -500.394870158     A.U. after    1 cycles

  Exact polarizability: 117.784   0.374  99.339  -1.828   3.365  87.040
 Approx polarizability: 147.161  -1.055 134.474  -4.636   3.976 129.338

                      1                      2                      3
                      A                      A                      A
 Frequencies --     22.4028                42.3769                64.3912
 Red. masses --      3.2000                 3.2682                 2.8805
 Frc consts  --      0.0009                 0.0035                 0.0070
 IR Inten    --      0.0766                 0.5052                 0.9339

                      4                      5                      6
                      A                      A                      A
 Frequencies --     90.8105               157.2851               224.8628
 Red. masses --      3.1656                 1.7606                 1.9155
 Frc consts  --      0.0154                 0.0257                 0.0571
 IR Inten    --      0.4842                 0.3308                 1.7080

                      7                      8                      9
                      A                      A                      A
 Frequencies --    231.4100               281.0901               294.4974
 Red. masses --      2.2308                 1.4002                 3.8822
 Frc consts  --      0.0704                 0.0652                 0.1984
 IR Inten    --      0.8531                 0.3244                 1.7122

                     10                     11                     12
                      A                      A                      A
 Frequencies --    311.2323               375.1709               428.2608
 Red. masses --      2.1865                 1.8359                 2.4354
 Frc consts  --      0.1248                 0.1523                 0.2632
 IR Inten    --      9.2090                 4.2152                 3.4030

                     13                     14                     15
                      A                      A                      A
 Frequencies --    437.3105               514.1027               523.2800
 Red. masses --      1.9827                 2.9591                 2.7313
 Frc consts  --      0.2234                 0.4608                 0.4407
 IR Inten    --      2.1201                 0.5046                 2.1971

                     16                     17                     18
                      A                      A                      A
 Frequencies --    535.4450               651.6455               750.8157
 Red. masses --      2.6553                 1.7572                 1.2198
 Frc consts  --      0.4485                 0.4396                 0.4052
 IR Inten    --      1.5674                 3.9193                 5.3131

                     19                     20                     21
                      A                      A                      A
 Frequencies --    807.5916               818.9853               822.4102
 Red. masses --      2.7995                 2.3629                 1.6734
 Frc consts  --      1.0757                 0.9338                 0.6668
 IR Inten    --      0.5737               133.4987                 4.0724

                     22                     23                     24
                      A                      A                      A
 Frequencies --    843.9155               858.2151               894.2406
 Red. masses --      3.0903                 1.8285                 2.6685
 Frc consts  --      1.2967                 0.7935                 1.2573
 IR Inten    --     30.4808                40.9554                 1.9907

                     25                     26                     27
                      A                      A                      A
 Frequencies --    898.6824               952.7039               979.2353
 Red. masses --      1.6423                 2.1641                 1.9559
 Frc consts  --      0.7815                 1.1573                 1.1050
 IR Inten    --      4.7265                10.2687                 0.5733

                     28                     29                     30
                      A                      A                      A
 Frequencies --   1000.7627              1018.8801              1021.9365
 Red. masses --      1.5007                 1.6892                 2.2176
 Frc consts  --      0.8856                 1.0332                 1.3645
 IR Inten    --      4.5836                15.7617                 1.9061

                     31                     32                     33
                      A                      A                      A
 Frequencies --   1042.7819              1054.4556              1108.1393
 Red. masses --      2.1258                 2.3870                 2.6602
 Frc consts  --      1.3619                 1.5637                 1.9246
 IR Inten    --     32.3929                17.9737                32.1126

                     34                     35                     36
                      A                      A                      A
 Frequencies --   1124.3678              1157.1054              1157.8913
 Red. masses --      2.2060                 2.1660                 2.9514
 Frc consts  --      1.6431                 1.7087                 2.3313
 IR Inten    --      8.8893                 7.8827                10.0731

                     37                     38                     39
                      A                      A                      A
 Frequencies --   1173.8047              1198.8178              1233.2913
 Red. masses --      2.1511                 2.3399                 1.3844
 Frc consts  --      1.7462                 1.9814                 1.2406
 IR Inten    --      2.7193                14.8701                 0.1726

                     40                     41                     42
                      A                      A                      A
 Frequencies --   1258.5715              1289.9086              1298.5324
 Red. masses --      1.1728                 1.3080                 1.2805
 Frc consts  --      1.0945                 1.2822                 1.2722
 IR Inten    --      3.6285                 2.5413                 5.7571

                     43                     44                     45
                      A                      A                      A
 Frequencies --   1331.0080              1334.7010              1354.2134
 Red. masses --      1.2227                 1.1450                 1.3211
 Frc consts  --      1.2763                 1.2018                 1.4274
 IR Inten    --     15.7730                 0.3133                 1.0550

                     46                     47                     48
                      A                      A                      A
 Frequencies --   1370.2395              1385.2777              1389.3078
 Red. masses --      1.2917                 1.3373                 1.3397
 Frc consts  --      1.4289                 1.5120                 1.5235
 IR Inten    --      0.9199                 6.0865                11.5534

                     49                     50                     51
                      A                      A                      A
 Frequencies --   1404.2258              1409.0164              1417.4405
 Red. masses --      1.4433                 1.3542                 1.3435
 Frc consts  --      1.6768                 1.5841                 1.5903
 IR Inten    --      9.0347                 1.4146                 5.9912

                     52                     53                     54
                      A                      A                      A
 Frequencies --   1430.9798              1442.7427              1488.6620
 Red. masses --      1.3442                 1.3075                 1.0987
 Frc consts  --      1.6217                 1.6035                 1.4346
 IR Inten    --     19.4741                 4.7311                 7.3686

                     55                     56                     57
                      A                      A                      A
 Frequencies --   1500.9277              1504.4745              1505.3828
 Red. masses --      1.0965                 1.0968                 1.0872
 Frc consts  --      1.4555                 1.4627                 1.4517
 IR Inten    --      5.4512                 2.4391                 3.9885

                     58                     59                     60
                      A                      A                      A
 Frequencies --   1510.8002              1516.7410              1520.6539
 Red. masses --      1.1609                 1.0957                 1.0697
 Frc consts  --      1.5612                 1.4851                 1.4574
 IR Inten    --      2.8586                 2.7691                 2.7520

                     61                     62                     63
                      A                      A                      A
 Frequencies --   1530.3596              1536.7144              1557.9200
 Red. masses --      1.0529                 1.0657                 1.0781
 Frc consts  --      1.4528                 1.4828                 1.5416
 IR Inten    --      3.2827                 6.2450                13.8078

                     64                     65                     66
                      A                      A                      A
 Frequencies --   3020.8280              3033.2244              3035.9845
 Red. masses --      1.0577                 1.0642                 1.0613
 Frc consts  --      5.6867                 5.7688                 5.7638
 IR Inten    --     27.2336                14.7686                26.0583

                     67                     68                     69
                      A                      A                      A
 Frequencies --   3042.0515              3044.0441              3048.5514
 Red. masses --      1.0639                 1.0416                 1.0646
 Frc consts  --      5.8010                 5.6866                 5.8294
 IR Inten    --     53.9773                36.7702                28.8350

                     70                     71                     72
                      A                      A                      A
 Frequencies --   3055.3848              3057.7076              3059.8356
 Red. masses --      1.1039                 1.0596                 1.0624
 Frc consts  --      6.0718                 5.8370                 5.8605
 IR Inten    --     39.3651                55.5824                21.8089

                     73                     74                     75
                      A                      A                      A
 Frequencies --   3078.4570              3090.1117              3092.6080
 Red. masses --      1.1004                 1.0987                 1.0996
 Frc consts  --      6.1445                 6.1812                 6.1961
 IR Inten    --     35.4025                17.1189                58.0584

                     76                     77                     78
                      A                      A                      A
 Frequencies --   3097.8810              3106.8829              3109.4226
 Red. masses --      1.0995                 1.1061                 1.1053
 Frc consts  --      6.2167                 6.2909                 6.2964
 IR Inten    --     31.8490                13.5099                77.2075

                     79                     80                     81
                      A                      A                      A
 Frequencies --   3111.2200              3117.5555              3450.3871
 Red. masses --      1.1007                 1.1023                 1.0734
 Frc consts  --      6.2773                 6.3119                 7.5292
 IR Inten    --     49.3687                56.2094                 5.4045

 - Thermochemistry -
 -------------------
 Temperature   298.150 Kelvin.  Pressure   1.00000 Atm.
 Atom     1 has atomic number  6 and mass  12.00000

 Molecular mass:   158.14191 amu.
 Principal axes and moments of inertia in atomic units:
                           1         2         3
     Eigenvalues --   937.755842942.607053251.75989
           X            0.99994   0.01102  -0.00202
           Y           -0.01094   0.99928   0.03631
           Z            0.00242  -0.03628   0.99934
 This molecule is an asymmetric top.
 Rotational symmetry number  1.
 Warning -- assumption of classical behavior for rotation
           may cause significant error
 Rotational temperatures (Kelvin)      0.09236     0.02943     0.02664
 Rotational constants (GHZ):           1.92453     0.61331     0.55500
 Zero-point vibrational energy     700087.8 (Joules/Mol)
                                  167.32500 (Kcal/Mol)
 Warning -- explicit consideration of  16 degrees of freedom as
           vibrations may cause significant error
 Vibrational temperatures:     32.23    60.97    92.64   130.66   226.30
          (Kelvin)            323.53   332.95   404.43   423.72   447.79
                              539.79   616.17   629.19   739.68   752.88
                              770.39   937.57  1080.26  1161.94  1178.34
                             1183.26  1214.21  1234.78  1286.61  1293.00
                             1370.73  1408.90  1439.87  1465.94  1470.34
                             1500.33  1517.13  1594.37  1617.71  1664.82
                             1665.95  1688.84  1724.83  1774.43  1810.80
                             1855.89  1868.30  1915.02  1920.34  1948.41
                             1971.47  1993.11  1998.90  2020.37  2027.26
                             2039.38  2058.86  2075.78  2141.85  2159.50
                             2164.60  2165.91  2173.70  2182.25  2187.88
                             2201.85  2210.99  2241.50  4346.30  4364.13
                             4368.10  4376.83  4379.70  4386.19  4396.02
                             4399.36  4402.42  4429.21  4445.98  4449.57
                             4457.16  4470.11  4473.77  4476.35  4485.47
                             4964.34

 Zero-point correction=                           0.266649 (Hartree/Particle)
 Thermal correction to Energy=                    0.278485
 Thermal correction to Enthalpy=                  0.279429
 Thermal correction to Gibbs Free Energy=         0.227336
 Sum of electronic and zero-point Energies=           -500.128221
 Sum of electronic and thermal Energies=              -500.116385
 Sum of electronic and thermal Enthalpies=            -500.115441
 Sum of electronic and thermal Free Energies=         -500.167534

                     E (Thermal)             CV                S
                      KCal/Mol        Cal/Mol-Kelvin    Cal/Mol-Kelvin
 Total                  174.752             44.570            109.639
 Electronic               0.000              0.000              0.000
 Translational            0.889              2.981             41.084
 Rotational               0.889              2.981             30.574
 Vibrational            172.975             38.609             37.981
 Vibration     1          0.593              1.985              6.409
 Vibration     2          0.595              1.980              5.145
 Vibration     3          0.597              1.971              4.318
 Vibration     4          0.602              1.956              3.643
 Vibration     5          0.621              1.894              2.582
 Vibration     6          0.650              1.803              1.920
 Vibration     7          0.653              1.793              1.868
 Vibration     8          0.681              1.709              1.527
 Vibration     9          0.689              1.684              1.448
 Vibration    10          0.700              1.652              1.356
 Vibration    11          0.746              1.523              1.059
 Vibration    12          0.790              1.409              0.864
 Vibration    13          0.798              1.389              0.835
 Vibration    14          0.869              1.219              0.624
 Vibration    15          0.878              1.198              0.602
 Vibration    16          0.890              1.172              0.575

 Optimization completed.
    -- Stationary point found.
 Normal termination of Gaussian 16 at Tue Dec  8 21:44:46 2020.

 ----------------------------------------------------------------------
 # B3LYP/6-311++G(d,p) empiricaldispersion=gd3bj scf=xqc pop=npa geom=c
 heck
 ----------------------------------------------------------------------

 --------------------------------------
 CID_67831879_JID_1887_Energie_neutraal
 --------------------------------------
 Structure from the checkpoint file:  "JID_1887.chk"
 Charge =  0 Multiplicity = 1

 SCF Done:  E(RB3LYP) =  -500.539323683     A.U. after   12 cycles
 Normal termination of Gaussian 16 at Tue Dec  8 21:48:09 2020.

 ----------------------------------------------------------------------
 # B3LYP/6-311++G(d,p) empiricaldispersion=gd3bj scf=xqc pop=npa geom=c
 heck
 ----------------------------------------------------------------------

 ------------------------------------
 CID_67831879_JID_1887_Energie_kation
 ------------------------------------
 Structure from the checkpoint file:  "JID_1887.chk"
 Charge =  1 Multiplicity = 2

 SCF Done:  E(UB3LYP) =  -500.258652657     A.U. after   17 cycles
 Normal termination of Gaussian 16 at Tue Dec  8 21:54:03 2020.
 Gaussian 16:  ES64L-G16RevA.03 25-Dec-2016

 ----------------------------------------------------------------------
 # B3LYP/6-311++G(d,p) empiricaldispersion=gd3bj scf=xqc pop=npa geom=c
 heck
 ----------------------------------------------------------------------

 -----------------------------------
 CID_67831879_JID_1887_Energie_anion
 -----------------------------------
 Structure from the checkpoint file:  "JID_1887.chk"
 Charge = -1 Multiplicity = 2

                         Standard orientation:
 ---------------------------------------------------------------------
 Center     Atomic      Atomic             Coordinates (Angstroms)
 Number     Number       Type             X           Y           Z
 ---------------------------------------------------------------------
      1          6           0        3.228717    1.354335    0.239037
      2          6           0        2.867320    0.387040   -0.891554
      3          6           0        2.566323   -1.043595   -0.418995
      4          6           0        1.415403   -1.144060    0.575038
      5          8           0        0.265045   -0.579115   -0.045009
      6          7           0       -0.824339   -0.577399    0.914091
      7          6           0       -1.155362    0.838976    1.148394
      8          6           0       -1.684698    1.556275   -0.101063
      9          7           0       -2.807005    0.853747   -0.735387
     10          6           0       -2.463704   -0.550798   -0.991087
     11          6           0       -1.938378   -1.278358    0.254778
     12          1           0        2.384353    1.509218    0.919791
     13          1           0        3.512757    2.334831   -0.158863
     14          1           0        4.071404    0.978007    0.832776
     15          1           0        1.996138    0.770997   -1.434016
     16          1           0        3.693201    0.346844   -1.613481
     17          1           0        2.336128   -1.671700   -1.288824
     18          1           0        3.457422   -1.475497    0.057598
     19          1           0        1.221805   -2.191582    0.846067
     20          1           0        1.641263   -0.600739    1.502370
     21          1           0       -1.916452    0.847624    1.941164
     22          1           0       -0.258323    1.327239    1.545125
     23          1           0       -0.877506    1.631176   -0.838191
     24          1           0       -1.999148    2.576531    0.148231
     25          1           0       -3.609599    0.884243   -0.104820
     26          1           0       -1.690947   -0.570035   -1.767568
     27          1           0       -3.345774   -1.064936   -1.390506
     28          1           0       -1.596709   -2.291357    0.017366
     29          1           0       -2.734703   -1.361282    1.007642
 ---------------------------------------------------------------------

 SCF Done:  E(UB3LYP) =  -500.523072498     A.U. after   26 cycles

 The electronic state is 2-A.
 Alpha  occ. eigenvalues --  -19.03892 -14.24809 -14.19170 -10.10761 -10.08685
 Alpha  occ. eigenvalues --  -10.08638 -10.08432 -10.08363 -10.06632 -10.06336
 Alpha  occ. eigenvalues --  -10.05642  -0.96157  -0.81312  -0.75436  -0.68717
 Alpha  occ. eigenvalues --   -0.65747  -0.61375  -0.55442  -0.53827  -0.53461
 Alpha  occ. eigenvalues --   -0.48174  -0.45661  -0.41002  -0.38388  -0.36812
 Alpha  occ. eigenvalues --   -0.35773  -0.35442  -0.35238  -0.33561  -0.31637
 Alpha  occ. eigenvalues --   -0.30696  -0.29993  -0.28549  -0.28258  -0.27201
 Alpha  occ. eigenvalues --   -0.25314  -0.24388  -0.24062  -0.23294  -0.23182
 Alpha  occ. eigenvalues --   -0.21857  -0.16652  -0.16000  -0.10154   0.04620
 Alpha virt. eigenvalues --    0.06345   0.07406   0.08107   0.08880   0.08922
 Alpha virt. eigenvalues --    0.09525   0.10539   0.11199   0.11311   0.11795
 Alpha virt. eigenvalues --    0.11923   0.12423   0.13764   0.14422   0.14877

  Beta  occ. eigenvalues --  -19.03881 -14.24805 -14.19144 -10.10746 -10.08659
  Beta  occ. eigenvalues --  -10.08612 -10.08419 -10.08350 -10.06617 -10.06323
  Beta  occ. eigenvalues --  -10.05609  -0.96134  -0.81269  -0.75402  -0.68682
  Beta  occ. eigenvalues --   -0.65708  -0.61327  -0.55394  -0.53772  -0.53405
  Beta  occ. eigenvalues --   -0.48106  -0.45601  -0.40956  -0.38359  -0.36764
  Beta  occ. eigenvalues --   -0.35725  -0.35402  -0.35213  -0.33536  -0.31609
  Beta  occ. eigenvalues --   -0.30647  -0.29962  -0.28506  -0.28211  -0.27166
  Beta  occ. eigenvalues --   -0.25273  -0.24351  -0.24023  -0.23264  -0.23148
  Beta  occ. eigenvalues --   -0.21822  -0.16632  -0.15975  -0.10119
  Beta virt. eigenvalues --    0.06815   0.07658   0.08036   0.08479   0.09415
  Beta virt. eigenvalues --    0.09570   0.10049   0.10850   0.11302   0.11841
  Beta virt. eigenvalues --    0.12177   0.12388   0.12891   0.14125   0.14632

 Mulliken charges and spin densities:
               1          2
     1  C    1.029027  -1.553139
     2  C   -1.084138   0.989167
     3  C    0.005767  -0.370214
     4  C    0.622306  -0.921588
     5  O    0.020425   0.046482
     6  N   -0.240308   0.172885
     7  C   -0.179144  -0.108739
     8  C    0.676013  -1.118563
     9  N   -0.314960   0.200690
    10  C    0.329608  -0.757395
    11  C    0.155435  -0.428059
    12  H    0.096732   0.034736
    13  H   -0.338275   0.474440
    14  H   -0.146713   0.276756
    15  H    0.210766  -0.083682
    16  H   -0.374824   0.526864
    17  H   -0.012710   0.162526
    18  H   -0.146369   0.281993
    19  H   -0.085724   0.229076
    20  H   -0.060299   0.226788
    21  H   -0.494950   0.671837
    22  H   -0.019551   0.156523
    23  H    0.136499   0.048270
    24  H   -0.187644   0.356867
    25  H   -0.055233   0.284984
    26  H    0.127789   0.044336
    27  H   -0.215787   0.384708
    28  H    0.051563   0.101433
    29  H   -0.505304   0.670018
 Sum of Mulliken charges =  -1.00000   1.00000

 Dipole moment (field-independent basis, Debye):
    X=              1.2722    Y=             -1.2471    Z=             -1.5577  Tot=              2.3665
 Quadrupole moment (field-independent basis, Debye-Ang):
   XX=           -152.2976   YY=           -107.3785   ZZ=           -102.8267
   XY=             -1.8878   XZ=              4.9127   YZ=              0.5547

 Summary of Natural Population Analysis:

                                       Natural Population
                Natural  -----------------------------------------------
    Atom  No    Charge         Core      Valence    Rydberg      Total
 -----------------------------------------------------------------------
      C    1   -0.28771      0.99967     2.28266    0.00538     3.28771
      C    2   -0.19230      0.99964     2.18377    0.00889     3.19230
      C    3   -0.19920      0.99962     2.19056    0.00902     3.19920
      C    4   -0.00382      0.99959     1.99160    0.01263     3.00382
      O    5   -0.24596      0.99989     3.23611    0.00995     4.24596
      N    6   -0.11809      0.99973     2.60290    0.01546     3.61809
      C    7   -0.10109      0.99960     2.08905    0.01244     3.10109
      C    8   -0.10064      0.99962     2.08938    0.01164     3.10064
      N    9   -0.33708      0.99976     2.82370    0.01362     3.83708
      C   10   -0.10074      0.99962     2.08947    0.01165     3.10074
      C   11   -0.10004      0.99960     2.08810    0.01234     3.10004
      H   12    0.09690      0.00000     0.40168    0.00143     0.40310
      H   13    0.09887      0.00000     0.40009    0.00104     0.40113
      H   14    0.09494      0.00000     0.40383    0.00122     0.40506
      H   15    0.09879      0.00000     0.39964    0.00157     0.40121
      H   16    0.09369      0.00000     0.40520    0.00111     0.40631
      H   17    0.09774      0.00000     0.40107    0.00119     0.40226
      H   18    0.09766      0.00000     0.40114    0.00120     0.40234
      H   19    0.08274      0.00000     0.41582    0.00144     0.41726
      H   20    0.08165      0.00000     0.41653    0.00182     0.41835
      H   21    0.09760      0.00000     0.40021    0.00219     0.40240
      H   22    0.09874      0.00000     0.39986    0.00139     0.40126
      H   23    0.09454      0.00000     0.40370    0.00176     0.40546
      H   24    0.09598      0.00000     0.40296    0.00106     0.40402
      H   25    0.17036      0.00000     0.32580    0.00384     0.32964
      H   26    0.09457      0.00000     0.40391    0.00152     0.40543
      H   27    0.09543      0.00000     0.40351    0.00106     0.40457
      H   28    0.09879      0.00000     0.40005    0.00117     0.40121
      H   29    0.09766      0.00000     0.40009    0.00225     0.40234
 =======================================================================
   * Total *   -0.00000     10.99633    32.85240    0.15127    44.00000

 Normal termination of Gaussian 16 at Tue Dec  8 22:01:54 2020.
