 Gaussian 16, Revision A.03,

 -----------------------------------------------------------
 # opt freq B3LYP/6-31G(d) empiricaldispersion=gd3bj scf=xqc
 -----------------------------------------------------------

 ------------------------------
 CID_78849115_JID_5617_neutraal
 ------------------------------
 Symbolic Z-matrix:
 Charge =  0 Multiplicity = 1

 SCF Done:  E(RB3LYP) =  -980.907116335     A.U. after   14 cycles
 SCF Done:  E(RB3LYP) =  -980.909696017     A.U. after   12 cycles
 SCF Done:  E(RB3LYP) =  -980.905839009     A.U. after   14 cycles
 SCF Done:  E(RB3LYP) =  -980.909827360     A.U. after   12 cycles
 SCF Done:  E(RB3LYP) =  -980.910340565     A.U. after   12 cycles
 SCF Done:  E(RB3LYP) =  -980.910591862     A.U. after   13 cycles
 SCF Done:  E(RB3LYP) =  -980.910902780     A.U. after   12 cycles
 SCF Done:  E(RB3LYP) =  -980.911055032     A.U. after   11 cycles
 SCF Done:  E(RB3LYP) =  -980.911072888     A.U. after   10 cycles
 SCF Done:  E(RB3LYP) =  -980.911074786     A.U. after    8 cycles
 SCF Done:  E(RB3LYP) =  -980.911146176     A.U. after    8 cycles
 SCF Done:  E(RB3LYP) =  -980.911146394     A.U. after    8 cycles
 SCF Done:  E(RB3LYP) =  -980.911146465     A.U. after    7 cycles
 SCF Done:  E(RB3LYP) =  -980.911146480     A.U. after    6 cycles
 Optimization completed.
    -- Stationary point found.
 Normal termination of Gaussian 16 at Thu Dec 10 16:47:56 2020.

 --------------------------------------------------------------------
 #N Geom=AllCheck Guess=TCheck SCRF=Check GenChk RB3LYP/6-31G(d) Freq
 --------------------------------------------------------------------

 Structure from the checkpoint file:  "JID_5617.chk"
 ------------------------------
 CID_78849115_JID_5617_neutraal
 ------------------------------
 Charge =  0 Multiplicity = 1

 SCF Done:  E(RB3LYP) =  -980.911146480     A.U. after    1 cycles

  Exact polarizability: 196.442   1.760 155.028   2.179   9.000 114.696
 Approx polarizability: 255.800   2.575 248.901   4.376  19.521 177.755

                      1                      2                      3
                      A                      A                      A
 Frequencies --     17.8217                29.9698                31.7095
 Red. masses --      3.2656                 1.6982                 1.5304
 Frc consts  --      0.0006                 0.0009                 0.0009
 IR Inten    --      0.2729                 0.5801                 0.2556

                      4                      5                      6
                      A                      A                      A
 Frequencies --     38.7579                55.7723                86.8513
 Red. masses --      3.6371                 3.8831                 3.4183
 Frc consts  --      0.0032                 0.0071                 0.0152
 IR Inten    --      0.1970                 0.0759                 0.3055

                      7                      8                      9
                      A                      A                      A
 Frequencies --    106.5711               134.3758               185.7108
 Red. masses --      5.6525                 3.1377                 4.3820
 Frc consts  --      0.0378                 0.0334                 0.0890
 IR Inten    --      2.2100                 2.1510                 1.3970

                     10                     11                     12
                      A                      A                      A
 Frequencies --    217.5497               232.0228               256.5256
 Red. masses --      3.0257                 1.2333                 2.4254
 Frc consts  --      0.0844                 0.0391                 0.0940
 IR Inten    --      2.2512                 0.0904                 2.2955

                     13                     14                     15
                      A                      A                      A
 Frequencies --    260.7579               277.0129               293.6448
 Red. masses --      1.2331                 2.1832                 2.3551
 Frc consts  --      0.0494                 0.0987                 0.1196
 IR Inten    --      0.4465                 1.4388                 1.8271

                     16                     17                     18
                      A                      A                      A
 Frequencies --    316.4594               358.7981               402.1892
 Red. masses --      2.8792                 2.2732                 2.2567
 Frc consts  --      0.1699                 0.1724                 0.2151
 IR Inten    --      3.3740                 0.8450                 2.0382

                     19                     20                     21
                      A                      A                      A
 Frequencies --    420.3300               444.8265               451.6338
 Red. masses --      3.3218                 2.6641                 2.6983
 Frc consts  --      0.3458                 0.3106                 0.3243
 IR Inten    --      6.8726                 0.7846                 3.1208

                     22                     23                     24
                      A                      A                      A
 Frequencies --    512.7881               536.6898               577.5953
 Red. masses --      4.5811                 4.8045                 2.2565
 Frc consts  --      0.7097                 0.8153                 0.4435
 IR Inten    --      1.4897                 0.1399                 1.2441

                     25                     26                     27
                      A                      A                      A
 Frequencies --    594.9718               659.2541               694.5330
 Red. masses --      5.2054                 4.3480                 5.1546
 Frc consts  --      1.0857                 1.1134                 1.4650
 IR Inten    --      5.4067                 3.4773                 3.5308

                     28                     29                     30
                      A                      A                      A
 Frequencies --    730.5606               752.2432               776.2811
 Red. masses --      2.2276                 5.0787                 2.3436
 Frc consts  --      0.7005                 1.6932                 0.8321
 IR Inten    --     22.9863                 1.8520                 4.2157

                     31                     32                     33
                      A                      A                      A
 Frequencies --    811.7462               851.7953               901.4998
 Red. masses --      1.4921                 2.1264                 1.4661
 Frc consts  --      0.5793                 0.9090                 0.7020
 IR Inten    --     17.4135                 3.7371                 2.4392

                     34                     35                     36
                      A                      A                      A
 Frequencies --    905.7674               929.8275               932.8243
 Red. masses --      1.6612                 1.4007                 1.3305
 Frc consts  --      0.8030                 0.7135                 0.6821
 IR Inten    --      3.4154                 8.9303                 0.1563

                     37                     38                     39
                      A                      A                      A
 Frequencies --    947.0209               948.0247               978.6433
 Red. masses --      2.7434                 1.3054                 1.7962
 Frc consts  --      1.4496                 0.6913                 1.0136
 IR Inten    --      1.8593                 0.2003                18.7559

                     40                     41                     42
                      A                      A                      A
 Frequencies --    985.2392               990.2038              1021.2792
 Red. masses --      1.4894                 2.1446                 4.6341
 Frc consts  --      0.8518                 1.2389                 2.8478
 IR Inten    --      2.6374                19.7610                 0.3082

                     43                     44                     45
                      A                      A                      A
 Frequencies --   1033.1275              1052.9802              1076.2897
 Red. masses --      1.6245                 1.7928                 1.5202
 Frc consts  --      1.0216                 1.1712                 1.0376
 IR Inten    --      1.5429                31.9988                 7.5181

                     46                     47                     48
                      A                      A                      A
 Frequencies --   1107.2517              1130.9764              1153.1579
 Red. masses --      2.2825                 1.6275                 2.1328
 Frc consts  --      1.6487                 1.2265                 1.6710
 IR Inten    --     16.8865                 4.9600                13.9988

                     49                     50                     51
                      A                      A                      A
 Frequencies --   1190.9428              1192.7426              1199.9555
 Red. masses --      1.3209                 1.4296                 2.5881
 Frc consts  --      1.1039                 1.1983                 2.1956
 IR Inten    --      2.2661                 1.5744               171.6941

                     52                     53                     54
                      A                      A                      A
 Frequencies --   1208.3924              1211.5788              1247.8527
 Red. masses --      1.8250                 1.1413                 1.2430
 Frc consts  --      1.5701                 0.9871                 1.1404
 IR Inten    --     27.1299                 0.7413                 0.6586

                     55                     56                     57
                      A                      A                      A
 Frequencies --   1274.5582              1282.8965              1294.8637
 Red. masses --      1.3374                 2.0048                 1.5368
 Frc consts  --      1.2801                 1.9441                 1.5181
 IR Inten    --      3.3231                 4.9217                 7.4443

                     58                     59                     60
                      A                      A                      A
 Frequencies --   1348.0481              1352.9345              1367.5240
 Red. masses --      1.2448                 1.5384                 3.0633
 Frc consts  --      1.3328                 1.6591                 3.3753
 IR Inten    --     14.0210                 1.0698                 0.1363

                     61                     62                     63
                      A                      A                      A
 Frequencies --   1382.2093              1415.9547              1426.7424
 Red. masses --      1.3336                 1.1969                 1.3057
 Frc consts  --      1.5011                 1.4139                 1.5659
 IR Inten    --      4.3758                10.0070                17.8937

                     64                     65                     66
                      A                      A                      A
 Frequencies --   1432.5786              1442.4496              1448.2254
 Red. masses --      1.3259                 1.2494                 1.2581
 Frc consts  --      1.6033                 1.5317                 1.5547
 IR Inten    --      3.9592                 0.1568                26.4371

                     67                     68                     69
                      A                      A                      A
 Frequencies --   1481.8381              1484.5335              1501.6159
 Red. masses --      1.2374                 1.6825                 1.1377
 Frc consts  --      1.6009                 2.1846                 1.5114
 IR Inten    --      4.8498                 4.0141                 6.6765

                     70                     71                     72
                      A                      A                      A
 Frequencies --   1512.7801              1517.4188              1519.8098
 Red. masses --      1.0475                 1.0496                 1.0550
 Frc consts  --      1.4125                 1.4239                 1.4358
 IR Inten    --      0.7875                 4.5505                 0.2377

                     73                     74                     75
                      A                      A                      A
 Frequencies --   1526.7782              1527.9310              1535.5165
 Red. masses --      1.3797                 1.0562                 1.0610
 Frc consts  --      1.8950                 1.4529                 1.4740
 IR Inten    --     11.2155                 6.5678                 0.4631

                     76                     77                     78
                      A                      A                      A
 Frequencies --   1543.4582              1547.2659              1647.2032
 Red. masses --      1.8910                 1.0914                 5.3460
 Frc consts  --      2.6542                 1.5395                 8.5462
 IR Inten    --     11.7332                 7.3989                 2.5241

                     79                     80                     81
                      A                      A                      A
 Frequencies --   1671.0770              2991.2192              3041.6809
 Red. masses --      5.6672                 1.0658                 1.0396
 Frc consts  --      9.3242                 5.6186                 5.6667
 IR Inten    --     15.7452                61.1369                36.6633

                     82                     83                     84
                      A                      A                      A
 Frequencies --   3051.3649              3055.8442              3061.0125
 Red. masses --      1.0439                 1.0528                 1.0780
 Frc consts  --      5.7268                 5.7922                 5.9512
 IR Inten    --      8.3309                11.7975                25.4621

                     85                     86                     87
                      A                      A                      A
 Frequencies --   3064.0460              3078.5868              3087.2044
 Red. masses --      1.0735                 1.0619                 1.0652
 Frc consts  --      5.9378                 5.9297                 5.9817
 IR Inten    --     21.9065                22.3069                15.7483

                     88                     89                     90
                      A                      A                      A
 Frequencies --   3096.5572              3118.3307              3126.0406
 Red. masses --      1.0975                 1.1020                 1.1018
 Frc consts  --      6.2004                 6.3137                 6.3437
 IR Inten    --     21.6115                 0.2662                15.0297

                     91                     92                     93
                      A                      A                      A
 Frequencies --   3126.4510              3129.0574              3129.6888
 Red. masses --      1.1011                 1.1051                 1.1033
 Frc consts  --      6.3412                 6.3750                 6.3669
 IR Inten    --     66.1300                 7.1093                23.6875

                     94                     95                     96
                      A                      A                      A
 Frequencies --   3136.5499              3169.0135              3172.5143
 Red. masses --      1.1029                 1.0998                 1.0899
 Frc consts  --      6.3931                 6.5077                 6.4632
 IR Inten    --     29.1901                 2.5202                15.3392

                     97                     98                     99
                      A                      A                      A
 Frequencies --   3173.9008              3192.5755              3212.9307
 Red. masses --      1.0868                 1.0924                 1.0938
 Frc consts  --      6.4507                 6.5600                 6.6527
 IR Inten    --     11.4972                25.3305                 6.2390

 - Thermochemistry -
 -------------------
 Temperature   298.150 Kelvin.  Pressure   1.00000 Atm.
 Atom     1 has atomic number  6 and mass  12.00000

 Molecular mass:   224.12349 amu.
 Principal axes and moments of inertia in atomic units:
                           1         2         3
     Eigenvalues --  1795.238896857.812407737.03828
           X            0.99995  -0.00977   0.00250
           Y            0.00971   0.99972   0.02139
           Z           -0.00271  -0.02137   0.99977
 This molecule is an asymmetric top.
 Rotational symmetry number  1.
 Warning -- assumption of classical behavior for rotation
           may cause significant error
 Rotational temperatures (Kelvin)      0.04825     0.01263     0.01119
 Rotational constants (GHZ):           1.00529     0.26317     0.23326
 Zero-point vibrational energy     802479.6 (Joules/Mol)
                                  191.79722 (Kcal/Mol)
 Warning -- explicit consideration of  25 degrees of freedom as
           vibrations may cause significant error
 Vibrational temperatures:     25.64    43.12    45.62    55.76    80.24
          (Kelvin)            124.96   153.33   193.34   267.20   313.01
                              333.83   369.08   375.17   398.56   422.49
                              455.31   516.23   578.66   604.76   640.01
                              649.80   737.79   772.18   831.03   856.03
                              948.52   999.28  1051.11  1082.31  1116.90
                             1167.92  1225.54  1297.06  1303.20  1337.81
                             1342.13  1362.55  1364.00  1408.05  1417.54
                             1424.68  1469.39  1486.44  1515.00  1548.54
                             1593.09  1627.22  1659.14  1713.50  1716.09
                             1726.47  1738.61  1743.19  1795.38  1833.81
                             1845.80  1863.02  1939.54  1946.57  1967.56
                             1988.69  2037.24  2052.76  2061.16  2075.36
                             2083.67  2132.03  2135.91  2160.49  2176.55
                             2183.23  2186.67  2196.69  2198.35  2209.27
                             2220.69  2226.17  2369.96  2404.31  4303.70
                             4376.30  4390.23  4396.68  4404.11  4408.48
                             4429.40  4441.80  4455.26  4486.58  4497.68
                             4498.27  4502.02  4502.92  4512.80  4559.50
                             4564.54  4566.54  4593.40  4622.69

 Zero-point correction=                           0.305648 (Hartree/Particle)
 Thermal correction to Energy=                    0.322576
 Thermal correction to Enthalpy=                  0.323520
 Thermal correction to Gibbs Free Energy=         0.258059
 Sum of electronic and zero-point Energies=           -980.605498
 Sum of electronic and thermal Energies=              -980.588570
 Sum of electronic and thermal Enthalpies=            -980.587626
 Sum of electronic and thermal Free Energies=         -980.653087

                     E (Thermal)             CV                S
                      KCal/Mol        Cal/Mol-Kelvin    Cal/Mol-Kelvin
 Total                  202.419             62.070            137.774
 Electronic               0.000              0.000              0.000
 Translational            0.889              2.981             42.124
 Rotational               0.889              2.981             32.921
 Vibrational            200.642             56.108             62.729
 Vibration     1          0.593              1.986              6.863
 Vibration     2          0.594              1.984              5.831
 Vibration     3          0.594              1.983              5.719
 Vibration     4          0.594              1.981              5.322
 Vibration     5          0.596              1.975              4.601
 Vibration     6          0.601              1.958              3.730
 Vibration     7          0.605              1.944              3.330
 Vibration     8          0.613              1.919              2.882
 Vibration     9          0.632              1.859              2.270
 Vibration    10          0.646              1.814              1.979
 Vibration    11          0.653              1.792              1.863
 Vibration    12          0.666              1.752              1.685
 Vibration    13          0.669              1.745              1.657
 Vibration    14          0.678              1.716              1.552
 Vibration    15          0.688              1.686              1.453
 Vibration    16          0.703              1.642              1.328
 Vibration    17          0.734              1.557              1.127
 Vibration    18          0.768              1.465              0.955
 Vibration    19          0.783              1.426              0.891
 Vibration    20          0.804              1.372              0.812
 Vibration    21          0.810              1.357              0.791
 Vibration    22          0.868              1.222              0.627
 Vibration    23          0.892              1.169              0.572
 Vibration    24          0.934              1.080              0.490
 Vibration    25          0.953              1.042              0.458

 Optimization completed.
    -- Stationary point found.
 Normal termination of Gaussian 16 at Thu Dec 10 17:00:05 2020.

 ----------------------------------------------------------------------
 # B3LYP/6-311++G(d,p) empiricaldispersion=gd3bj scf=xqc pop=npa geom=c
 heck
 ----------------------------------------------------------------------

 --------------------------------------
 CID_78849115_JID_5617_Energie_neutraal
 --------------------------------------
 Structure from the checkpoint file:  "JID_5617.chk"
 Charge =  0 Multiplicity = 1

 SCF Done:  E(RB3LYP) =  -981.096841685     A.U. after   15 cycles
 Normal termination of Gaussian 16 at Thu Dec 10 17:07:29 2020.

 ----------------------------------------------------------------------
 # B3LYP/6-311++G(d,p) empiricaldispersion=gd3bj scf=xqc pop=npa geom=c
 heck
 ----------------------------------------------------------------------

 ------------------------------------
 CID_78849115_JID_5617_Energie_kation
 ------------------------------------
 Structure from the checkpoint file:  "JID_5617.chk"
 Charge =  1 Multiplicity = 2

 SCF Done:  E(UB3LYP) =  -980.810341479     A.U. after   33 cycles
 SCF Done:  E(UB3LYP) =  -980.810341479     a.u. after    1 cycles
 Normal termination of Gaussian 16 at Thu Dec 10 17:27:13 2020.
 Gaussian 16:  ES64L-G16RevA.03 25-Dec-2016

 ----------------------------------------------------------------------
 # B3LYP/6-311++G(d,p) empiricaldispersion=gd3bj scf=xqc pop=npa geom=c
 heck
 ----------------------------------------------------------------------

 -----------------------------------
 CID_78849115_JID_5617_Energie_anion
 -----------------------------------
 Structure from the checkpoint file:  "JID_5617.chk"
 Charge = -1 Multiplicity = 2

                         Standard orientation:
 ---------------------------------------------------------------------
 Center     Atomic      Atomic             Coordinates (Angstroms)
 Number     Number       Type             X           Y           Z
 ---------------------------------------------------------------------
      1          6           0       -5.191960    0.189624   -0.038645
      2          6           0       -3.765591   -0.295906    0.057448
      3          6           0       -2.746843    0.550497    0.497991
      4          6           0       -1.423609    0.107868    0.620760
      5          6           0       -1.117206   -1.214595    0.281349
      6          6           0       -2.125031   -2.071493   -0.166555
      7          6           0       -3.436720   -1.617925   -0.276578
      8          6           0       -0.342485    1.044723    1.083166
      9         16           0        0.289111    2.169203   -0.248103
     10          6           0        0.892321    0.969056   -1.492209
     11          6           0        2.256499    0.364904   -1.193564
     12          8           0        2.142472   -0.476083   -0.055767
     13          6           0        3.364731   -0.904413    0.559738
     14          6           0        4.267215   -1.670872   -0.408238
     15          6           0        4.089526    0.250215    1.254781
     16          1           0       -5.243573    1.282699   -0.019725
     17          1           0       -5.670541   -0.156148   -0.961861
     18          1           0       -5.797008   -0.184108    0.797805
     19          1           0       -2.982281    1.583343    0.746632
     20          1           0       -0.088871   -1.555497    0.352025
     21          1           0       -1.882862   -3.097020   -0.432965
     22          1           0       -4.216469   -2.290727   -0.626318
     23          1           0       -0.718565    1.736592    1.843263
     24          1           0        0.505621    0.496593    1.491909
     25          1           0        0.143256    0.181319   -1.617905
     26          1           0        0.947479    1.529372   -2.431396
     27          1           0        2.589389   -0.215304   -2.069654
     28          1           0        2.983866    1.168937   -1.023339
     29          1           0        3.013766   -1.601558    1.329289
     30          1           0        4.697786   -1.010593   -1.169334
     31          1           0        5.097408   -2.133012    0.136860
     32          1           0        3.703363   -2.461677   -0.913799
     33          1           0        3.395799    0.802884    1.895687
     34          1           0        4.905394   -0.137259    1.875063
     35          1           0        4.526415    0.952483    0.536876
 ---------------------------------------------------------------------

 SCF Done:  E(UB3LYP) =  -981.082824542     A.U. after   33 cycles
 SCF Done:  E(UB3LYP) =  -981.082824542     a.u. after    1 cycles

 The electronic state is 2-A.
 Alpha  occ. eigenvalues --  -88.74367 -19.02858 -10.12898 -10.12482 -10.10541
 Alpha  occ. eigenvalues --  -10.10447 -10.09371 -10.09047 -10.08246 -10.08232
 Alpha  occ. eigenvalues --  -10.07961 -10.07959 -10.07579 -10.06551 -10.06367
 Alpha  occ. eigenvalues --   -7.82964  -5.79359  -5.79003  -5.78323  -0.94103
 Alpha  occ. eigenvalues --   -0.77249  -0.72155  -0.69557  -0.67817  -0.66474
 Alpha  occ. eigenvalues --   -0.62429  -0.59825  -0.59738  -0.56707  -0.51889
 Alpha  occ. eigenvalues --   -0.50360  -0.47919  -0.46847  -0.41338  -0.40624
 Alpha  occ. eigenvalues --   -0.38934  -0.37911  -0.37595  -0.36068  -0.34223
 Alpha  occ. eigenvalues --   -0.33480  -0.33020  -0.32601  -0.31888  -0.31526
 Alpha  occ. eigenvalues --   -0.31359  -0.30134  -0.29568  -0.28953  -0.27997
 Alpha  occ. eigenvalues --   -0.26296  -0.26285  -0.25690  -0.25150  -0.25019
 Alpha  occ. eigenvalues --   -0.21775  -0.21268  -0.16854  -0.16160  -0.15191
 Alpha  occ. eigenvalues --   -0.13023   0.04129
 Alpha virt. eigenvalues --    0.05468   0.06482   0.06808   0.06914   0.07502
 Alpha virt. eigenvalues --    0.07794   0.08031   0.08819   0.09413   0.09472
 Alpha virt. eigenvalues --    0.09721   0.10543   0.10911   0.11356   0.11751

  Beta  occ. eigenvalues --  -88.74364 -19.02857 -10.12885 -10.12460 -10.10537
  Beta  occ. eigenvalues --  -10.10437 -10.09373 -10.09030 -10.08237 -10.08208
  Beta  occ. eigenvalues --  -10.07947 -10.07935 -10.07573 -10.06521 -10.06325
  Beta  occ. eigenvalues --   -7.82961  -5.79354  -5.79001  -5.78320  -0.94095
  Beta  occ. eigenvalues --   -0.77221  -0.72132  -0.69525  -0.67789  -0.66439
  Beta  occ. eigenvalues --   -0.62398  -0.59781  -0.59672  -0.56669  -0.51847
  Beta  occ. eigenvalues --   -0.50330  -0.47874  -0.46797  -0.41303  -0.40592
  Beta  occ. eigenvalues --   -0.38914  -0.37882  -0.37546  -0.36028  -0.34191
  Beta  occ. eigenvalues --   -0.33453  -0.32991  -0.32567  -0.31855  -0.31502
  Beta  occ. eigenvalues --   -0.31330  -0.30090  -0.29539  -0.28920  -0.27958
  Beta  occ. eigenvalues --   -0.26261  -0.26247  -0.25661  -0.25111  -0.24991
  Beta  occ. eigenvalues --   -0.21755  -0.21240  -0.16841  -0.16104  -0.15121
  Beta  occ. eigenvalues --   -0.13009
  Beta virt. eigenvalues --    0.05903   0.06450   0.06705   0.07278   0.07407
  Beta virt. eigenvalues --    0.07603   0.08093   0.08498   0.09261   0.09617
  Beta virt. eigenvalues --    0.09833   0.10095   0.10822   0.11095   0.11661

 Mulliken charges and spin densities:
               1          2
     1  C    1.179320  -1.628387
     2  C   -0.177754   0.520298
     3  C   -1.144549   0.649653
     4  C    0.969748   0.218229
     5  C    0.008522  -0.391648
     6  C   -0.205173  -0.174501
     7  C   -0.236084  -0.264711
     8  C   -0.596033  -0.182512
     9  S    0.240164  -0.247496
    10  C   -0.129320  -0.516097
    11  C    0.293715  -0.490856
    12  O   -0.019409  -0.013860
    13  C   -1.698549   1.674146
    14  C    1.333197  -1.841505
    15  C    1.011368  -1.492661
    16  H   -0.123609   0.264129
    17  H   -0.193264   0.339817
    18  H    0.050139   0.111832
    19  H    0.028283   0.089071
    20  H    0.455670  -0.251906
    21  H   -0.357645   0.540045
    22  H   -0.211043   0.356961
    23  H    0.106261   0.144854
    24  H    0.125973   0.114836
    25  H    0.286779  -0.090926
    26  H   -0.113701   0.370821
    27  H   -0.167969   0.305355
    28  H   -0.014163   0.104479
    29  H   -0.413567   0.593775
    30  H   -0.297085   0.455523
    31  H   -0.516085   0.673172
    32  H   -0.139948   0.291990
    33  H    0.074344   0.063800
    34  H   -0.253028   0.404474
    35  H   -0.155507   0.299806
 Sum of Mulliken charges =  -1.00000   1.00000

 Dipole moment (field-independent basis, Debye):
    X=             -4.1731    Y=              3.0058    Z=              0.8256  Tot=              5.2087
 Quadrupole moment (field-independent basis, Debye-Ang):
   XX=           -213.1600   YY=           -145.9886   ZZ=           -134.4202
   XY=              8.5699   XZ=             -6.2560   YZ=              1.1427

 Summary of Natural Population Analysis:

                                       Natural Population
                Natural  -----------------------------------------------
    Atom  No    Charge         Core      Valence    Rydberg      Total
 -----------------------------------------------------------------------
      C    1   -0.29055      0.99964     2.28598    0.00493     3.29055
      C    2   -0.01820      0.99952     2.00846    0.01022     3.01820
      C    3   -0.09600      0.99946     2.08818    0.00836     3.09600
      C    4   -0.02166      0.99950     2.01276    0.00941     3.02166
      C    5   -0.10880      0.99951     2.09944    0.00985     3.10880
      C    6   -0.09611      0.99957     2.08601    0.01053     3.09611
      C    7   -0.10184      0.99951     2.09287    0.00946     3.10184
      C    8   -0.24973      0.99953     2.23996    0.01024     3.24973
      S    9    0.08366      4.99964     2.90027    0.01643     7.91634
      C   10   -0.26252      0.99958     2.25177    0.01117     3.26252
      C   11   -0.01588      0.99954     2.00287    0.01347     3.01588
      O   12   -0.31559      0.99988     3.30323    0.01248     4.31559
      C   13    0.06791      0.99957     1.91856    0.01395     2.93209
      C   14   -0.30065      0.99964     2.29564    0.00537     3.30065
      C   15   -0.29967      0.99964     2.29450    0.00553     3.29967
      H   16    0.10137      0.00000     0.39756    0.00107     0.39863
      H   17    0.10406      0.00000     0.39452    0.00142     0.39594
      H   18    0.10254      0.00000     0.39620    0.00125     0.39746
      H   19    0.09772      0.00000     0.40063    0.00165     0.40228
      H   20    0.11288      0.00000     0.38514    0.00198     0.38712
      H   21    0.10086      0.00000     0.39824    0.00090     0.39914
      H   22    0.09891      0.00000     0.40007    0.00102     0.40109
      H   23    0.10617      0.00000     0.39278    0.00105     0.39383
      H   24    0.11556      0.00000     0.38262    0.00182     0.38444
      H   25    0.11104      0.00000     0.38722    0.00174     0.38896
      H   26    0.10786      0.00000     0.39121    0.00093     0.39214
      H   27    0.08350      0.00000     0.41487    0.00163     0.41650
      H   28    0.08370      0.00000     0.41425    0.00205     0.41630
      H   29    0.08804      0.00000     0.41030    0.00166     0.41196
      H   30    0.09813      0.00000     0.40038    0.00149     0.40187
      H   31    0.10576      0.00000     0.39247    0.00177     0.39424
      H   32    0.10383      0.00000     0.39483    0.00134     0.39617
      H   33    0.10257      0.00000     0.39617    0.00125     0.39743
      H   34    0.10398      0.00000     0.39480    0.00123     0.39602
      H   35    0.09717      0.00000     0.40149    0.00134     0.40283
 =======================================================================
   * Total *   -0.00000     18.99373    41.82626    0.18001    61.00000

 Normal termination of Gaussian 16 at Thu Dec 10 17:50:10 2020.
