 Gaussian 16, Revision A.03,

 -----------------------------------------------------------
 # opt freq B3LYP/6-31G(d) empiricaldispersion=gd3bj scf=xqc
 -----------------------------------------------------------

 ------------------------------
 CID_64580874_JID_9864_neutraal
 ------------------------------
 Symbolic Z-matrix:
 Charge =  0 Multiplicity = 1

 SCF Done:  E(RB3LYP) =  -1256.91703091     A.U. after   15 cycles
 SCF Done:  E(RB3LYP) =  -1256.92303417     A.U. after   12 cycles
 SCF Done:  E(RB3LYP) =  -1256.92302383     A.U. after   13 cycles
 SCF Done:  E(RB3LYP) =  -1256.92380919     A.U. after   13 cycles
 SCF Done:  E(RB3LYP) =  -1256.92439112     A.U. after   12 cycles
 SCF Done:  E(RB3LYP) =  -1256.92444834     A.U. after   12 cycles
 SCF Done:  E(RB3LYP) =  -1256.92464096     A.U. after   11 cycles
 SCF Done:  E(RB3LYP) =  -1256.92475249     A.U. after   11 cycles
 SCF Done:  E(RB3LYP) =  -1256.92486096     A.U. after   11 cycles
 SCF Done:  E(RB3LYP) =  -1256.92496799     A.U. after   11 cycles
 SCF Done:  E(RB3LYP) =  -1256.92622131     A.U. after    9 cycles
 SCF Done:  E(RB3LYP) =  -1256.92622244     A.U. after    9 cycles
 SCF Done:  E(RB3LYP) =  -1256.92622253     A.U. after    8 cycles
 SCF Done:  E(RB3LYP) =  -1256.92622252     A.U. after    7 cycles
 Optimization completed.
    -- Stationary point found.
 Normal termination of Gaussian 16 at Thu Dec 17 20:36:00 2020.

 --------------------------------------------------------------------
 #N Geom=AllCheck Guess=TCheck SCRF=Check GenChk RB3LYP/6-31G(d) Freq
 --------------------------------------------------------------------

 Structure from the checkpoint file:  "JID_9864.chk"
 ------------------------------
 CID_64580874_JID_9864_neutraal
 ------------------------------
 Charge =  0 Multiplicity = 1

 SCF Done:  E(RB3LYP) =  -1256.92622252     A.U. after    1 cycles

  Exact polarizability: 226.408   8.116 160.574  -0.006   7.390 125.259
 Approx polarizability: 294.985  17.802 261.280   9.219  24.134 199.624

                      1                      2                      3
                      A                      A                      A
 Frequencies --     17.5502                29.4658                38.2443
 Red. masses --      4.5316                 4.2104                 5.4575
 Frc consts  --      0.0008                 0.0022                 0.0047
 IR Inten    --      0.2114                 0.7713                 1.3844

                      4                      5                      6
                      A                      A                      A
 Frequencies --     56.1664                59.3369                72.6435
 Red. masses --      6.3861                 5.4384                 1.0656
 Frc consts  --      0.0119                 0.0113                 0.0033
 IR Inten    --      1.1336                 0.5614                 0.3102

                      7                      8                      9
                      A                      A                      A
 Frequencies --     75.1825                78.9580                95.0547
 Red. masses --      5.2791                 3.5990                 4.4957
 Frc consts  --      0.0176                 0.0132                 0.0239
 IR Inten    --      0.1474                 0.0258                 0.6432

                     10                     11                     12
                      A                      A                      A
 Frequencies --    124.8787               149.4947               171.0877
 Red. masses --      1.7096                 1.0800                 3.6894
 Frc consts  --      0.0157                 0.0142                 0.0636
 IR Inten    --      0.4689                 0.3299                 0.4579

                     13                     14                     15
                      A                      A                      A
 Frequencies --    179.1389               191.3375               212.3071
 Red. masses --      2.6449                 4.4365                 3.2578
 Frc consts  --      0.0500                 0.0957                 0.0865
 IR Inten    --      2.7272                 0.9587                 2.8703

                     16                     17                     18
                      A                      A                      A
 Frequencies --    221.1934               262.3920               269.3952
 Red. masses --      2.9413                 2.9791                 1.9978
 Frc consts  --      0.0848                 0.1208                 0.0854
 IR Inten    --      2.0836                 0.9144                 1.7066

                     19                     20                     21
                      A                      A                      A
 Frequencies --    279.3087               289.3714               305.0269
 Red. masses --      2.8798                 1.8991                 2.0987
 Frc consts  --      0.1324                 0.0937                 0.1150
 IR Inten    --      6.8917                 3.1931                 3.1393

                     22                     23                     24
                      A                      A                      A
 Frequencies --    334.1856               389.1189               392.3052
 Red. masses --      3.1533                 3.4089                 5.6202
 Frc consts  --      0.2075                 0.3041                 0.5096
 IR Inten    --      6.0084                 3.3256                 5.6107

                     25                     26                     27
                      A                      A                      A
 Frequencies --    399.8766               443.7388               494.7806
 Red. masses --      4.9370                 4.2447                 2.8843
 Frc consts  --      0.4651                 0.4924                 0.4160
 IR Inten    --      0.3788                 3.5487                 2.1596

                     28                     29                     30
                      A                      A                      A
 Frequencies --    505.3352               543.9292               545.5910
 Red. masses --      3.0984                 1.5905                 5.0817
 Frc consts  --      0.4662                 0.2772                 0.8912
 IR Inten    --     15.9921                16.1935                 2.6486

                     31                     32                     33
                      A                      A                      A
 Frequencies --    573.2062               594.9478               606.1444
 Red. masses --      5.1047                 4.2411                 1.7122
 Frc consts  --      0.9882                 0.8845                 0.3706
 IR Inten    --      3.2783                16.1518                19.6844

                     34                     35                     36
                      A                      A                      A
 Frequencies --    632.4602               633.9279               646.5139
 Red. masses --      2.2435                 1.8993                 2.5207
 Frc consts  --      0.5287                 0.4497                 0.6208
 IR Inten    --      4.4108                91.4571                12.1145

                     37                     38                     39
                      A                      A                      A
 Frequencies --    657.0041               669.7683               682.5208
 Red. masses --      2.2205                 5.7568                 3.6313
 Frc consts  --      0.5647                 1.5215                 0.9966
 IR Inten    --    141.2496                 9.2034                63.5787

                     40                     41                     42
                      A                      A                      A
 Frequencies --    747.7989               757.8160               823.9509
 Red. masses --      2.4782                 3.4129                 2.5779
 Frc consts  --      0.8165                 1.1548                 1.0311
 IR Inten    --      4.3057                39.3142                15.6490

                     43                     44                     45
                      A                      A                      A
 Frequencies --    862.1835               886.0615               943.0043
 Red. masses --      3.8839                 2.3068                 3.0275
 Frc consts  --      1.7011                 1.0670                 1.5862
 IR Inten    --      5.4729                26.6301                10.0692

                     46                     47                     48
                      A                      A                      A
 Frequencies --    980.6028               998.9494              1007.7895
 Red. masses --      3.5260                 1.8493                 2.4526
 Frc consts  --      1.9976                 1.0873                 1.4676
 IR Inten    --      8.5767                 6.6567                 3.8477

                     49                     50                     51
                      A                      A                      A
 Frequencies --   1040.0714              1049.6514              1063.0590
 Red. masses --      1.6805                 1.8129                 1.7236
 Frc consts  --      1.0710                 1.1768                 1.1476
 IR Inten    --     16.7994                 2.2813                 3.7834

                     52                     53                     54
                      A                      A                      A
 Frequencies --   1063.7082              1065.9798              1075.9451
 Red. masses --      1.4126                 1.8725                 1.5146
 Frc consts  --      0.9417                 1.2536                 1.0331
 IR Inten    --      1.3557                16.4033                 1.9547

                     55                     56                     57
                      A                      A                      A
 Frequencies --   1098.2841              1150.1556              1153.6690
 Red. masses --      2.3934                 2.6113                 2.3532
 Frc consts  --      1.7009                 2.0353                 1.8453
 IR Inten    --      6.4335                53.0866                56.1345

                     58                     59                     60
                      A                      A                      A
 Frequencies --   1176.8360              1197.1376              1203.9487
 Red. masses --      4.1453                 2.9106                 3.0772
 Frc consts  --      3.3825                 2.4577                 2.6280
 IR Inten    --    136.1339                15.0337               141.1204

                     61                     62                     63
                      A                      A                      A
 Frequencies --   1215.3047              1261.0647              1307.9708
 Red. masses --      3.0381                 1.4741                 1.3644
 Frc consts  --      2.6438                 1.3812                 1.3753
 IR Inten    --     17.1063                19.9757                 1.1076

                     64                     65                     66
                      A                      A                      A
 Frequencies --   1321.3629              1334.0450              1361.1837
 Red. masses --      1.2839                 2.8597                 2.0626
 Frc consts  --      1.3208                 2.9986                 2.2517
 IR Inten    --      0.7789                12.9413               115.8647

                     67                     68                     69
                      A                      A                      A
 Frequencies --   1382.2695              1391.2046              1402.3683
 Red. masses --      1.4953                 1.1926                 1.6546
 Frc consts  --      1.6833                 1.3600                 1.9172
 IR Inten    --     48.0491                22.9657                42.8313

                     70                     71                     72
                      A                      A                      A
 Frequencies --   1417.7875              1426.1343              1428.9027
 Red. masses --      1.4908                 1.6457                 1.2387
 Frc consts  --      1.7655                 1.9720                 1.4901
 IR Inten    --     34.1160                95.4487                15.7359

                     73                     74                     75
                      A                      A                      A
 Frequencies --   1433.4745              1445.0766              1499.6916
 Red. masses --      1.2624                 1.2652                 1.0731
 Frc consts  --      1.5284                 1.5567                 1.4220
 IR Inten    --      0.7921                 1.9927                 9.0827

                     76                     77                     78
                      A                      A                      A
 Frequencies --   1504.6940              1504.9903              1508.0394
 Red. masses --      1.1008                 1.1818                 1.0438
 Frc consts  --      1.4684                 1.5771                 1.3986
 IR Inten    --     11.3086                15.3763                 7.9831

                     79                     80                     81
                      A                      A                      A
 Frequencies --   1508.9966              1515.8989              1517.0935
 Red. masses --      1.7545                 1.1270                 1.0739
 Frc consts  --      2.3538                 1.5259                 1.4563
 IR Inten    --     46.2998                10.8219                22.8492

                     82                     83                     84
                      A                      A                      A
 Frequencies --   1518.5756              1525.7478              1537.4513
 Red. masses --      1.0637                 1.0808                 1.0719
 Frc consts  --      1.4453                 1.4824                 1.4928
 IR Inten    --      4.8136                16.8378                 4.2562

                     85                     86                     87
                      A                      A                      A
 Frequencies --   1543.1748              1568.3120              1609.8948
 Red. masses --      1.1684                 4.4132                 5.8562
 Frc consts  --      1.6393                 6.3954                 8.9425
 IR Inten    --     60.5875                15.4686                22.3411

                     88                     89                     90
                      A                      A                      A
 Frequencies --   1801.3324              1849.9680              3030.0835
 Red. masses --      8.4834                 9.5609                 1.0844
 Frc consts  --     16.2184                19.2787                 5.8663
 IR Inten    --    512.8716               280.2969                16.1859

                     91                     92                     93
                      A                      A                      A
 Frequencies --   3041.2077              3051.1133              3055.8277
 Red. masses --      1.0662                 1.0449                 1.0371
 Frc consts  --      5.8102                 5.7310                 5.7061
 IR Inten    --     38.1677                19.9949                22.8716

                     94                     95                     96
                      A                      A                      A
 Frequencies --   3057.3398              3064.1454              3102.7144
 Red. masses --      1.0402                 1.0358                 1.0984
 Frc consts  --      5.7285                 5.7301                 6.2298
 IR Inten    --     11.4630                16.5321                15.1461

                     97                     98                     99
                      A                      A                      A
 Frequencies --   3110.5343              3114.9160              3118.1179
 Red. masses --      1.1016                 1.0924                 1.0995
 Frc consts  --      6.2797                 6.2447                 6.2984
 IR Inten    --     10.9379                 9.6756                15.5443

                    100                    101                    102
                      A                      A                      A
 Frequencies --   3126.2212              3136.0620              3148.2531
 Red. masses --      1.0998                 1.0863                 1.1026
 Frc consts  --      6.3329                 6.2945                 6.4387
 IR Inten    --     48.0814                 5.1281                22.4582

                    103                    104                    105
                      A                      A                      A
 Frequencies --   3158.1042              3159.6372              3180.8422
 Red. masses --      1.1008                 1.1001                 1.0997
 Frc consts  --      6.4688                 6.4709                 6.5554
 IR Inten    --      5.0459                 7.6512                 9.7653

                    106                    107                    108
                      A                      A                      A
 Frequencies --   3568.3962              3586.9708              3670.5281
 Red. masses --      1.0740                 1.0758                 1.0641
 Frc consts  --      8.0576                 8.1553                 8.4465
 IR Inten    --      4.4805                52.9655                59.9518

 - Thermochemistry -
 -------------------
 Temperature   298.150 Kelvin.  Pressure   1.00000 Atm.
 Atom     1 has atomic number  6 and mass  12.00000

 Molecular mass:   285.11471 amu.
 Principal axes and moments of inertia in atomic units:
                           1         2         3
     Eigenvalues --  2542.94277********************
           X            0.99996   0.00853  -0.00372
           Y           -0.00855   0.99994  -0.00615
           Z            0.00367   0.00618   0.99997
 This molecule is an asymmetric top.
 Rotational symmetry number  1.
 Warning -- assumption of classical behavior for rotation
           may cause significant error
 Rotational temperatures (Kelvin)      0.03406     0.00720     0.00651
 Rotational constants (GHZ):           0.70971     0.15008     0.13559
 Zero-point vibrational energy     821789.8 (Joules/Mol)
                                  196.41246 (Kcal/Mol)
 Warning -- explicit consideration of  33 degrees of freedom as
           vibrations may cause significant error
 Vibrational temperatures:     25.25    42.39    55.03    80.81    85.37
          (Kelvin)            104.52   108.17   113.60   136.76   179.67
                              215.09   246.16   257.74   275.29   305.46
                              318.25   377.52   387.60   401.86   416.34
                              438.87   480.82   559.86   564.44   575.33
                              638.44   711.88   727.06   782.59   784.98
                              824.72   856.00   872.11   909.97   912.08
                              930.19   945.28   963.65   982.00  1075.92
                             1090.33  1185.48  1240.49  1274.84  1356.77
                             1410.87  1437.27  1449.98  1496.43  1510.21
                             1529.50  1530.44  1533.71  1548.05  1580.19
                             1654.82  1659.87  1693.20  1722.41  1732.21
                             1748.55  1814.39  1881.88  1901.15  1919.39
                             1958.44  1988.78  2001.63  2017.70  2039.88
                             2051.89  2055.87  2062.45  2079.14  2157.72
                             2164.92  2165.35  2169.73  2171.11  2181.04
                             2182.76  2184.89  2195.21  2212.05  2220.28
                             2256.45  2316.28  2591.72  2661.69  4359.61
                             4375.62  4389.87  4396.65  4398.83  4408.62
                             4464.11  4475.37  4481.67  4486.28  4497.93
                             4512.09  4529.63  4543.81  4546.01  4576.52
                             5134.13  5160.85  5281.07

 Zero-point correction=                           0.313003 (Hartree/Particle)
 Thermal correction to Energy=                    0.334344
 Thermal correction to Enthalpy=                  0.335288
 Thermal correction to Gibbs Free Energy=         0.260285
 Sum of electronic and zero-point Energies=          -1256.613219
 Sum of electronic and thermal Energies=             -1256.591879
 Sum of electronic and thermal Enthalpies=           -1256.590935
 Sum of electronic and thermal Free Energies=        -1256.665938

                     E (Thermal)             CV                S
                      KCal/Mol        Cal/Mol-Kelvin    Cal/Mol-Kelvin
 Total                  209.804             76.883            157.857
 Electronic               0.000              0.000              0.000
 Translational            0.889              2.981             42.841
 Rotational               0.889              2.981             34.364
 Vibrational            208.026             70.922             80.652
 Vibration     1          0.593              1.986              6.894
 Vibration     2          0.593              1.984              5.865
 Vibration     3          0.594              1.982              5.348
 Vibration     4          0.596              1.975              4.588
 Vibration     5          0.597              1.974              4.479
 Vibration     6          0.599              1.967              4.080
 Vibration     7          0.599              1.966              4.013
 Vibration     8          0.600              1.963              3.917
 Vibration     9          0.603              1.953              3.553
 Vibration    10          0.610              1.928              3.023
 Vibration    11          0.618              1.903              2.679
 Vibration    12          0.626              1.878              2.424
 Vibration    13          0.629              1.868              2.337
 Vibration    14          0.634              1.852              2.215
 Vibration    15          0.643              1.822              2.024
 Vibration    16          0.648              1.809              1.949
 Vibration    17          0.670              1.742              1.646
 Vibration    18          0.674              1.729              1.600
 Vibration    19          0.680              1.712              1.538
 Vibration    20          0.686              1.693              1.478
 Vibration    21          0.696              1.664              1.389
 Vibration    22          0.716              1.607              1.240
 Vibration    23          0.757              1.493              1.004
 Vibration    24          0.760              1.487              0.991
 Vibration    25          0.766              1.470              0.963
 Vibration    26          0.803              1.375              0.815
 Vibration    27          0.850              1.262              0.671
 Vibration    28          0.861              1.238              0.645
 Vibration    29          0.899              1.153              0.557
 Vibration    30          0.901              1.149              0.553
 Vibration    31          0.929              1.089              0.498
 Vibration    32          0.953              1.043              0.458
 Vibration    33          0.965              1.019              0.439

 Optimization completed.
    -- Stationary point found.
 Normal termination of Gaussian 16 at Thu Dec 17 20:54:14 2020.

 ----------------------------------------------------------------------
 # B3LYP/6-311++G(d,p) empiricaldispersion=gd3bj scf=xqc pop=npa geom=c
 heck
 ----------------------------------------------------------------------

 --------------------------------------
 CID_64580874_JID_9864_Energie_neutraal
 --------------------------------------
 Structure from the checkpoint file:  "JID_9864.chk"
 Charge =  0 Multiplicity = 1

 SCF Done:  E(RB3LYP) =  -1257.21153391     A.U. after   16 cycles
 Normal termination of Gaussian 16 at Thu Dec 17 21:03:30 2020.

 ----------------------------------------------------------------------
 # B3LYP/6-311++G(d,p) empiricaldispersion=gd3bj scf=xqc pop=npa geom=c
 heck
 ----------------------------------------------------------------------

 ------------------------------------
 CID_64580874_JID_9864_Energie_kation
 ------------------------------------
 Structure from the checkpoint file:  "JID_9864.chk"
 Charge =  1 Multiplicity = 2

 SCF Done:  E(UB3LYP) =  -1256.91740573     A.U. after   33 cycles
 SCF Done:  E(UB3LYP) =  -1256.91740573     a.u. after    1 cycles
 Normal termination of Gaussian 16 at Thu Dec 17 21:31:23 2020.
 Gaussian 16:  ES64L-G16RevA.03 25-Dec-2016

 ----------------------------------------------------------------------
 # B3LYP/6-311++G(d,p) empiricaldispersion=gd3bj scf=xqc pop=npa geom=c
 heck
 ----------------------------------------------------------------------

 -----------------------------------
 CID_64580874_JID_9864_Energie_anion
 -----------------------------------
 Structure from the checkpoint file:  "JID_9864.chk"
 Charge = -1 Multiplicity = 2

                         Standard orientation:
 ---------------------------------------------------------------------
 Center     Atomic      Atomic             Coordinates (Angstroms)
 Number     Number       Type             X           Y           Z
 ---------------------------------------------------------------------
      1          6           0        2.109705    1.863718    1.366830
      2          6           0        2.754661    0.729120    0.619279
      3          6           0        2.149936   -0.399196    0.125026
      4         16           0        3.344982   -1.395256   -0.668751
      5          6           0        4.578167   -0.213661   -0.255655
      6          7           0        4.119818    0.813393    0.398159
      7          6           0        6.013917   -0.399293   -0.635817
      8          6           0        0.699266   -0.825073    0.150742
      9          6           0        0.143886   -0.845418    1.591793
     10          7           0       -0.033258   -0.024028   -0.837291
     11          6           0       -1.432183   -0.303088   -1.058933
     12          6           0       -2.495486    0.368303   -0.111807
     13          6           0       -2.462709    1.871624   -0.308530
     14          8           0       -3.266528    2.509187   -0.949244
     15          8           0       -1.373650    2.436464    0.272272
     16          7           0       -3.832880   -0.085520   -0.419822
     17          6           0       -4.489434   -1.183386    0.078747
     18          8           0       -5.626103   -1.454101   -0.279503
     19          6           0       -3.739137   -2.023423    1.101707
     20          1           0        2.232445    1.742983    2.450744
     21          1           0        2.599197    2.801820    1.088791
     22          1           0        1.041474    1.952579    1.158709
     23          1           0        6.580249    0.463484   -0.278106
     24          1           0        6.433954   -1.307540   -0.188716
     25          1           0        6.135913   -0.476769   -1.722169
     26          1           0        0.653031   -1.860324   -0.212352
     27          1           0        0.046210    0.161806    2.004895
     28          1           0       -0.837828   -1.328437    1.622822
     29          1           0        0.813355   -1.417772    2.242415
     30          1           0        0.151775    0.965851   -0.719795
     31          1           0       -1.708147   -0.013880   -2.081643
     32          1           0       -1.587771   -1.384977   -0.991498
     33          1           0       -2.243523    0.154818    0.928163
     34          1           0       -1.407839    3.388333    0.055069
     35          1           0       -4.370723    0.493025   -1.055487
     36          1           0       -2.789892   -2.400605    0.706001
     37          1           0       -3.516884   -1.443205    2.005233
     38          1           0       -4.373766   -2.867784    1.371138
 ---------------------------------------------------------------------

 SCF Done:  E(UB3LYP) =  -1257.20779905     A.U. after   33 cycles
 SCF Done:  E(UB3LYP) =  -1257.20779905     a.u. after    2 cycles

 The electronic state is 2-A.
 Alpha  occ. eigenvalues --  -88.78313 -19.08698 -19.03491 -19.00153 -14.25078
 Alpha  occ. eigenvalues --  -14.21583 -14.21300 -10.22239 -10.19117 -10.14509
 Alpha  occ. eigenvalues --  -10.14376 -10.13003 -10.12332 -10.11157 -10.10648
 Alpha  occ. eigenvalues --  -10.10162 -10.09088 -10.07236 -10.07183  -7.86982
 Alpha  occ. eigenvalues --   -5.83249  -5.82910  -5.82589  -1.02875  -0.95396
 Alpha  occ. eigenvalues --   -0.94161  -0.87007  -0.84897  -0.82525  -0.71978
 Alpha  occ. eigenvalues --   -0.70040  -0.68188  -0.65791  -0.65052  -0.63979
 Alpha  occ. eigenvalues --   -0.58902  -0.56933  -0.53806  -0.52279  -0.49874
 Alpha  occ. eigenvalues --   -0.48354  -0.44447  -0.42669  -0.42323  -0.41494
 Alpha  occ. eigenvalues --   -0.39811  -0.38843  -0.37550  -0.37148  -0.36357
 Alpha  occ. eigenvalues --   -0.36311  -0.35870  -0.34578  -0.33781  -0.33162
 Alpha  occ. eigenvalues --   -0.32725  -0.32409  -0.32140  -0.31450  -0.31161
 Alpha  occ. eigenvalues --   -0.30875  -0.29958  -0.29169  -0.28077  -0.27720
 Alpha  occ. eigenvalues --   -0.27248  -0.26387  -0.25129  -0.24668  -0.20688
 Alpha  occ. eigenvalues --   -0.18809  -0.18329  -0.18084  -0.17385  -0.14135
 Alpha  occ. eigenvalues --   -0.13588   0.03776
 Alpha virt. eigenvalues --    0.05580   0.05829   0.05875   0.07073   0.07546
 Alpha virt. eigenvalues --    0.07747   0.08769   0.09237   0.09339   0.09839
 Alpha virt. eigenvalues --    0.10022   0.10117   0.10830   0.11078   0.11321

  Beta  occ. eigenvalues --  -88.78303 -19.08628 -19.03433 -19.00146 -14.25073
  Beta  occ. eigenvalues --  -14.21574 -14.21292 -10.22170 -10.19113 -10.14499
  Beta  occ. eigenvalues --  -10.14279 -10.12996 -10.12311 -10.11148 -10.10599
  Beta  occ. eigenvalues --  -10.10166 -10.09049 -10.07195 -10.07159  -7.86972
  Beta  occ. eigenvalues --   -5.83241  -5.82905  -5.82558  -1.02740  -0.95381
  Beta  occ. eigenvalues --   -0.94043  -0.86932  -0.84876  -0.82501  -0.71911
  Beta  occ. eigenvalues --   -0.69956  -0.68119  -0.65742  -0.64991  -0.63944
  Beta  occ. eigenvalues --   -0.58809  -0.56846  -0.53709  -0.52202  -0.49834
  Beta  occ. eigenvalues --   -0.48266  -0.44379  -0.42587  -0.42264  -0.41399
  Beta  occ. eigenvalues --   -0.39738  -0.38778  -0.37467  -0.37069  -0.36313
  Beta  occ. eigenvalues --   -0.36173  -0.35783  -0.34510  -0.33713  -0.33107
  Beta  occ. eigenvalues --   -0.32670  -0.32365  -0.32104  -0.31415  -0.31126
  Beta  occ. eigenvalues --   -0.30830  -0.29915  -0.29122  -0.28015  -0.27617
  Beta  occ. eigenvalues --   -0.27184  -0.26342  -0.25070  -0.24487  -0.20599
  Beta  occ. eigenvalues --   -0.18636  -0.18308  -0.18058  -0.17358  -0.13884
  Beta  occ. eigenvalues --   -0.13522
  Beta virt. eigenvalues --    0.05710   0.06147   0.06235   0.07168   0.07603
  Beta virt. eigenvalues --    0.07983   0.08095   0.08727   0.09448   0.09559
  Beta virt. eigenvalues --    0.09930   0.10194   0.10347   0.10925   0.11220

 Mulliken charges and spin densities:
               1          2
     1  C    0.713727  -1.610407
     2  C   -2.727551   1.080905
     3  C    1.439290   0.379686
     4  S   -0.310480  -0.252236
     5  C   -0.087828   0.338401
     6  N    0.080425   0.024268
     7  C   -0.091912  -0.157923
     8  C   -0.513483   0.299809
     9  C    0.337670  -0.915963
    10  N    0.212612  -0.005738
    11  C    0.340012  -0.573305
    12  C   -0.220081  -0.438156
    13  C    0.481816  -0.319369
    14  O   -0.261945   0.023951
    15  O   -0.212595   0.057568
    16  N   -0.119306   0.079119
    17  C   -0.096210   0.169318
    18  O   -0.353754   0.002754
    19  C    0.150171  -0.566320
    20  H   -0.040086   0.226460
    21  H   -0.159424   0.320841
    22  H    0.805051  -0.707761
    23  H    0.143021   0.014274
    24  H    0.140877   0.013823
    25  H    0.068467   0.095975
    26  H   -0.077273   0.231081
    27  H   -0.333393   0.524702
    28  H   -0.055483   0.168811
    29  H   -0.091116   0.250337
    30  H   -0.029566   0.241994
    31  H    0.110888   0.086494
    32  H    0.141420   0.076429
    33  H    0.140652   0.132519
    34  H   -0.584494   0.925182
    35  H    0.303874   0.009706
    36  H   -0.091622   0.239238
    37  H   -0.150626   0.325674
    38  H   -0.001748   0.207858
 Sum of Mulliken charges =  -1.00000   1.00000

 Dipole moment (field-independent basis, Debye):
    X=              5.6577    Y=             -4.2583    Z=             -1.5560  Tot=              7.2500
 Quadrupole moment (field-independent basis, Debye-Ang):
   XX=           -213.0359   YY=           -176.4541   ZZ=           -153.1412
   XY=             -8.6050   XZ=             -3.8053   YZ=             -0.8373

 Summary of Natural Population Analysis:

                                       Natural Population
                Natural  -----------------------------------------------
    Atom  No    Charge         Core      Valence    Rydberg      Total
 -----------------------------------------------------------------------
      C    1   -0.29981      0.99962     2.29366    0.00653     3.29981
      C    2    0.06440      0.99942     1.92321    0.01297     2.93560
      C    3   -0.09657      0.99940     2.08468    0.01249     3.09657
      S    4    0.18711      4.99939     2.79490    0.01860     7.81289
      C    5    0.05091      0.99964     1.93346    0.01599     2.94909
      N    6   -0.24896      0.99963     2.73813    0.01120     3.74896
      C    7   -0.30652      0.99961     2.30146    0.00545     3.30652
      C    8   -0.02089      0.99954     2.00782    0.01352     3.02089
      C    9   -0.29423      0.99964     2.28835    0.00623     3.29423
      N   10   -0.34023      0.99973     2.82964    0.01086     3.84023
      C   11   -0.08337      0.99961     2.07266    0.01110     3.08337
      C   12   -0.06974      0.99954     2.05758    0.01261     3.06974
      C   13    0.41463      0.99969     1.56013    0.02555     2.58537
      O   14   -0.30225      0.99987     3.29634    0.00604     4.30225
      O   15   -0.34704      0.99988     3.33973    0.00744     4.34704
      N   16   -0.32370      0.99966     2.81379    0.01025     3.82370
      C   17    0.34438      0.99970     1.63456    0.02135     2.65562
      O   18   -0.32167      0.99988     3.31587    0.00592     4.32167
      C   19   -0.33645      0.99963     2.33178    0.00504     3.33645
      H   20    0.10629      0.00000     0.39258    0.00113     0.39371
      H   21    0.10941      0.00000     0.38913    0.00146     0.39059
      H   22    0.10758      0.00000     0.39057    0.00185     0.39242
      H   23    0.11262      0.00000     0.38607    0.00132     0.38738
      H   24    0.10434      0.00000     0.39464    0.00102     0.39566
      H   25    0.10581      0.00000     0.39292    0.00127     0.39419
      H   26    0.09424      0.00000     0.40405    0.00171     0.40576
      H   27    0.10419      0.00000     0.39435    0.00146     0.39581
      H   28    0.09690      0.00000     0.40153    0.00157     0.40310
      H   29    0.10453      0.00000     0.39438    0.00109     0.39547
      H   30    0.18420      0.00000     0.31190    0.00390     0.31580
      H   31    0.09696      0.00000     0.40183    0.00121     0.40304
      H   32    0.09736      0.00000     0.40133    0.00131     0.40264
      H   33    0.11606      0.00000     0.38110    0.00284     0.38394
      H   34    0.25012      0.00000     0.23111    0.01877     0.24988
      H   35    0.20665      0.00000     0.29100    0.00236     0.29335
      H   36    0.10747      0.00000     0.39126    0.00127     0.39253
      H   37    0.11124      0.00000     0.38769    0.00107     0.38876
      H   38    0.11404      0.00000     0.38516    0.00080     0.38596
 =======================================================================
   * Total *    0.00000     22.99307    52.74037    0.26656    76.00000

 Normal termination of Gaussian 16 at Thu Dec 17 22:24:07 2020.
