 Gaussian 16, Revision A.03,

 -----------------------------------------------------------
 # opt freq B3LYP/6-31G(d) empiricaldispersion=gd3bj scf=xqc
 -----------------------------------------------------------

 ------------------------------
 CID_80147492_JID_9429_neutraal
 ------------------------------
 Symbolic Z-matrix:
 Charge =  0 Multiplicity = 1

 SCF Done:  E(RB3LYP) =  -841.018437175     A.U. after   15 cycles
 SCF Done:  E(RB3LYP) =  -841.022565456     A.U. after   12 cycles
 SCF Done:  E(RB3LYP) =  -841.022864271     A.U. after   12 cycles
 SCF Done:  E(RB3LYP) =  -841.022920960     A.U. after   12 cycles
 SCF Done:  E(RB3LYP) =  -841.023071892     A.U. after   11 cycles
 SCF Done:  E(RB3LYP) =  -841.023101203     A.U. after   10 cycles
 SCF Done:  E(RB3LYP) =  -841.023111901     A.U. after   10 cycles
 SCF Done:  E(RB3LYP) =  -841.023115446     A.U. after    8 cycles
 SCF Done:  E(RB3LYP) =  -841.023117008     A.U. after    8 cycles
 SCF Done:  E(RB3LYP) =  -841.023117206     A.U. after    7 cycles
 SCF Done:  E(RB3LYP) =  -841.023117264     A.U. after    7 cycles
 Optimization completed.
    -- Stationary point found.
 Normal termination of Gaussian 16 at Sun Dec 13 20:14:45 2020.

 --------------------------------------------------------------------
 #N Geom=AllCheck Guess=TCheck SCRF=Check GenChk RB3LYP/6-31G(d) Freq
 --------------------------------------------------------------------

 Structure from the checkpoint file:  "JID_9429.chk"
 ------------------------------
 CID_80147492_JID_9429_neutraal
 ------------------------------
 Charge =  0 Multiplicity = 1

 SCF Done:  E(RB3LYP) =  -841.023117264     A.U. after    1 cycles

  Exact polarizability: 212.587  14.340 149.144  -9.185   8.079 156.105
 Approx polarizability: 278.517  34.017 224.592 -21.320  23.217 269.469

                      1                      2                      3
                      A                      A                      A
 Frequencies --     19.9485                25.2922                47.3811
 Red. masses --      4.1853                 4.6284                 3.9648
 Frc consts  --      0.0010                 0.0017                 0.0052
 IR Inten    --      1.6399                 0.4973                 1.7156

                      4                      5                      6
                      A                      A                      A
 Frequencies --     67.4722                80.5042               123.1479
 Red. masses --      4.0251                 4.1130                 4.6122
 Frc consts  --      0.0108                 0.0157                 0.0412
 IR Inten    --      1.1798                 1.2832                 0.9585

                      7                      8                      9
                      A                      A                      A
 Frequencies --    137.4035               164.8582               199.1261
 Red. masses --      3.1239                 5.0181                 2.7780
 Frc consts  --      0.0347                 0.0804                 0.0649
 IR Inten    --      6.5235                 0.7515                 1.6277

                     10                     11                     12
                      A                      A                      A
 Frequencies --    208.8826               236.0714               241.4847
 Red. masses --      1.5974                 3.7419                 1.4128
 Frc consts  --      0.0411                 0.1229                 0.0485
 IR Inten    --      2.1961                 1.3378                 2.0754

                     13                     14                     15
                      A                      A                      A
 Frequencies --    254.4382               269.9438               283.0171
 Red. masses --      2.0756                 1.2889                 1.6680
 Frc consts  --      0.0792                 0.0553                 0.0787
 IR Inten    --      1.2652                 9.1272                 7.1409

                     16                     17                     18
                      A                      A                      A
 Frequencies --    302.1381               321.7747               345.1273
 Red. masses --      3.5921                 2.1486                 2.4652
 Frc consts  --      0.1932                 0.1311                 0.1730
 IR Inten    --      4.4527                 0.5092                 0.9719

                     19                     20                     21
                      A                      A                      A
 Frequencies --    371.8389               387.5890               403.6424
 Red. masses --      3.9694                 2.5154                 1.9505
 Frc consts  --      0.3234                 0.2226                 0.1872
 IR Inten    --      2.2279                23.4189                 0.6907

                     22                     23                     24
                      A                      A                      A
 Frequencies --    420.9166               432.3888               433.4708
 Red. masses --      3.3827                 1.9697                 2.0124
 Frc consts  --      0.3531                 0.2170                 0.2228
 IR Inten    --      2.8703                 2.4446                 0.2108

                     25                     26                     27
                      A                      A                      A
 Frequencies --    453.5502               508.9641               542.6035
 Red. masses --      3.6412                 2.8096                 3.3547
 Frc consts  --      0.4413                 0.4288                 0.5819
 IR Inten    --      5.0051                 0.8036                14.2243

                     28                     29                     30
                      A                      A                      A
 Frequencies --    560.4016               599.4275               654.6953
 Red. masses --      5.5630                 2.6485                 4.3131
 Frc consts  --      1.0293                 0.5607                 1.0892
 IR Inten    --     12.9994                40.4464                 2.2720

                     31                     32                     33
                      A                      A                      A
 Frequencies --    657.3971               696.2349               717.4873
 Red. masses --      3.5586                 5.0031                 3.1136
 Frc consts  --      0.9061                 1.4289                 0.9444
 IR Inten    --      3.5023                 8.0872                 6.2165

                     34                     35                     36
                      A                      A                      A
 Frequencies --    721.9916               759.5019               779.9098
 Red. masses --      1.7916                 3.5198                 2.9641
 Frc consts  --      0.5503                 1.1963                 1.0623
 IR Inten    --     91.6140                70.6750                12.0987

                     37                     38                     39
                      A                      A                      A
 Frequencies --    813.2812               826.9695               847.8184
 Red. masses --      5.3301                 1.5873                 2.3733
 Frc consts  --      2.0771                 0.6396                 1.0051
 IR Inten    --      4.6034                 0.4652                30.2603

                     40                     41                     42
                      A                      A                      A
 Frequencies --    887.1283               891.2585               927.1485
 Red. masses --      2.5232                 1.8990                 1.5420
 Frc consts  --      1.1700                 0.8887                 0.7810
 IR Inten    --     11.8418                 1.0011               199.4908

                     43                     44                     45
                      A                      A                      A
 Frequencies --    931.7780               958.1802               967.9483
 Red. masses --      2.2033                 1.5308                 1.6881
 Frc consts  --      1.1270                 0.8281                 0.9319
 IR Inten    --      2.2479                 2.2059                 1.4936

                     46                     47                     48
                      A                      A                      A
 Frequencies --    972.4040               985.9333              1006.0523
 Red. masses --      1.4997                 1.3297                 1.4659
 Frc consts  --      0.8355                 0.7616                 0.8742
 IR Inten    --      5.4701                 5.0561                 4.0683

                     49                     50                     51
                      A                      A                      A
 Frequencies --   1009.4424              1035.9429              1045.8408
 Red. masses --      1.5848                 1.7141                 3.2673
 Frc consts  --      0.9514                 1.0838                 2.1056
 IR Inten    --      7.0110                 0.5906                 7.0156

                     52                     53                     54
                      A                      A                      A
 Frequencies --   1048.2730              1052.8688              1082.0981
 Red. masses --      2.3518                 1.8641                 1.5544
 Frc consts  --      1.5226                 1.2175                 1.0724
 IR Inten    --      1.7161                 2.5575                 1.1344

                     55                     56                     57
                      A                      A                      A
 Frequencies --   1138.8206              1142.7851              1151.1060
 Red. masses --      2.6218                 2.6767                 2.8390
 Frc consts  --      2.0034                 2.0595                 2.2164
 IR Inten    --     10.2024                42.0754                12.4894

                     58                     59                     60
                      A                      A                      A
 Frequencies --   1173.4268              1211.2376              1214.1398
 Red. masses --      1.3500                 1.6842                 1.4269
 Frc consts  --      1.0952                 1.4558                 1.2393
 IR Inten    --      2.1254                 5.1376                 1.9327

                     61                     62                     63
                      A                      A                      A
 Frequencies --   1233.7153              1234.8739              1236.8288
 Red. masses --      3.2107                 1.3771                 2.2012
 Frc consts  --      2.8793                 1.2372                 1.9840
 IR Inten    --     12.6727                 8.0397                 3.1491

                     64                     65                     66
                      A                      A                      A
 Frequencies --   1256.6514              1301.4087              1317.3974
 Red. masses --      2.8612                 2.4476                 3.6143
 Frc consts  --      2.6621                 2.4424                 3.6958
 IR Inten    --      1.5850                 4.0643                 1.7246

                     67                     68                     69
                      A                      A                      A
 Frequencies --   1333.0828              1339.4021              1342.7162
 Red. masses --      1.5183                 1.5268                 1.2719
 Frc consts  --      1.5897                 1.6138                 1.3510
 IR Inten    --     23.1059                 1.9995                19.1369

                     70                     71                     72
                      A                      A                      A
 Frequencies --   1351.5243              1372.5091              1375.6748
 Red. masses --      1.5015                 1.5817                 2.4648
 Frc consts  --      1.6160                 1.7555                 2.7483
 IR Inten    --      8.9268                21.1496               174.9928

                     73                     74                     75
                      A                      A                      A
 Frequencies --   1379.2584              1387.9501              1408.4967
 Red. masses --      1.4467                 1.3382                 1.4739
 Frc consts  --      1.6215                 1.5189                 1.7227
 IR Inten    --     44.8466                11.9118                 0.2974

                     76                     77                     78
                      A                      A                      A
 Frequencies --   1410.3667              1428.8942              1431.8684
 Red. masses --      1.3946                 1.2642                 3.0638
 Frc consts  --      1.6345                 1.5207                 3.7010
 IR Inten    --      2.2567                 3.4746                42.7925

                     79                     80                     81
                      A                      A                      A
 Frequencies --   1444.4691              1451.6643              1457.1254
 Red. masses --      1.4286                 1.2427                 1.3057
 Frc consts  --      1.7562                 1.5430                 1.6334
 IR Inten    --      6.2138                12.4786                 8.8771

                     82                     83                     84
                      A                      A                      A
 Frequencies --   1493.2731              1501.2051              1507.6559
 Red. masses --      1.0947                 1.0931                 1.0802
 Frc consts  --      1.4382                 1.4515                 1.4466
 IR Inten    --      9.5243                 1.4121                 3.6977

                     85                     86                     87
                      A                      A                      A
 Frequencies --   1516.8916              1527.1594              1528.0925
 Red. masses --      1.0534                 1.0710                 1.3653
 Frc consts  --      1.4281                 1.4716                 1.8783
 IR Inten    --      1.0768                 6.2625                 1.2359

                     88                     89                     90
                      A                      A                      A
 Frequencies --   1531.0464              1532.4913              1546.8716
 Red. masses --      1.7364                 1.0683                 1.0730
 Frc consts  --      2.3981                 1.4782                 1.5127
 IR Inten    --     10.2298                 1.2226                11.8998

                     91                     92                     93
                      A                      A                      A
 Frequencies --   1548.6159              1612.8210              1652.4122
 Red. masses --      1.0833                 5.8001                 5.8682
 Frc consts  --      1.5307                 8.8891                 9.4404
 IR Inten    --     15.1958                11.8169                99.3259

                     94                     95                     96
                      A                      A                      A
 Frequencies --   1725.8300              1775.1209              2938.8686
 Red. masses --      1.0650                 9.0059                 1.0722
 Frc consts  --      1.8690                16.7199                 5.4560
 IR Inten    --     30.1145               270.9045                45.3659

                     97                     98                     99
                      A                      A                      A
 Frequencies --   2974.6275              3033.9890              3035.3285
 Red. masses --      1.0724                 1.0445                 1.0565
 Frc consts  --      5.5906                 5.6650                 5.7349
 IR Inten    --     42.5147                 3.7269                27.1411

                    100                    101                    102
                      A                      A                      A
 Frequencies --   3039.1001              3047.7790              3051.2879
 Red. masses --      1.0493                 1.0447                 1.0643
 Frc consts  --      5.7098                 5.7176                 5.8382
 IR Inten    --     58.0715                38.1785                26.9008

                    103                    104                    105
                      A                      A                      A
 Frequencies --   3058.8128              3077.8115              3080.5561
 Red. masses --      1.0809                 1.1040                 1.1033
 Frc consts  --      5.9583                 6.1618                 6.1685
 IR Inten    --     63.8218                11.7821                34.8491

                    106                    107                    108
                      A                      A                      A
 Frequencies --   3089.2171              3100.2753              3106.8084
 Red. masses --      1.0904                 1.1025                 1.1017
 Frc consts  --      6.1310                 6.2433                 6.2654
 IR Inten    --     32.0734                 3.0980                54.8485

                    109                    110                    111
                      A                      A                      A
 Frequencies --   3107.5883              3111.3163              3125.5937
 Red. masses --      1.1019                 1.1034                 1.0989
 Frc consts  --      6.2694                 6.2931                 6.3252
 IR Inten    --     51.0576                19.4304                39.4767

                    112                    113                    114
                      A                      A                      A
 Frequencies --   3193.6937              3197.7655              3210.3088
 Red. masses --      1.0877                 1.0909                 1.0952
 Frc consts  --      6.5363                 6.5724                 6.6502
 IR Inten    --     11.9311                 6.6173                10.7599

                    115                    116                    117
                      A                      A                      A
 Frequencies --   3469.1664              3560.9900              3573.0138
 Red. masses --      1.0468                 1.0965                 1.0770
 Frc consts  --      7.4225                 8.1923                 8.1008
 IR Inten    --      2.0609                 2.3012                29.4548

 - Thermochemistry -
 -------------------
 Temperature   298.150 Kelvin.  Pressure   1.00000 Atm.
 Atom     1 has atomic number  6 and mass  12.00000

 Molecular mass:   262.17936 amu.
 Principal axes and moments of inertia in atomic units:
                           1         2         3
     Eigenvalues --  2522.98723********************
           X            0.99996  -0.00597   0.00659
           Y            0.00602   0.99995  -0.00764
           Z           -0.00654   0.00768   0.99995
 This molecule is an asymmetric top.
 Rotational symmetry number  1.
 Warning -- assumption of classical behavior for rotation
           may cause significant error
 Rotational temperatures (Kelvin)      0.03433     0.00858     0.00790
 Rotational constants (GHZ):           0.71532     0.17876     0.16465
 Zero-point vibrational energy     941647.5 (Joules/Mol)
                                  225.05915 (Kcal/Mol)
 Warning -- explicit consideration of  29 degrees of freedom as
           vibrations may cause significant error
 Vibrational temperatures:     28.70    36.39    68.17    97.08   115.83
          (Kelvin)            177.18   197.69   237.19   286.50   300.54
                              339.65   347.44   366.08   388.39   407.20
                              434.71   462.96   496.56   534.99   557.65
                              580.75   605.61   622.11   623.67   652.56
                              732.29   780.69   806.29   862.44   941.96
                              945.85  1001.73  1032.30  1038.78  1092.75
                             1122.12  1170.13  1189.82  1219.82  1276.38
                             1282.32  1333.96  1340.62  1378.61  1392.66
                             1399.07  1418.54  1447.48  1452.36  1490.49
                             1504.73  1508.23  1514.84  1556.90  1638.51
                             1644.21  1656.18  1688.30  1742.70  1746.88
                             1775.04  1776.71  1779.52  1808.04  1872.44
                             1895.44  1918.01  1927.10  1931.87  1944.54
                             1974.73  1979.29  1984.45  1996.95  2026.51
                             2029.20  2055.86  2060.14  2078.27  2088.62
                             2096.48  2148.49  2159.90  2169.18  2182.47
                             2197.24  2198.58  2202.83  2204.91  2225.60
                             2228.11  2320.49  2377.45  2483.08  2554.00
                             4228.38  4279.83  4365.23  4367.16  4372.59
                             4385.07  4390.12  4400.95  4428.28  4432.23
                             4444.69  4460.60  4470.00  4471.13  4476.49
                             4497.03  4595.01  4600.87  4618.92  4991.36
                             5123.47  5140.77

 Zero-point correction=                           0.358655 (Hartree/Particle)
 Thermal correction to Energy=                    0.377093
 Thermal correction to Enthalpy=                  0.378037
 Thermal correction to Gibbs Free Energy=         0.311080
 Sum of electronic and zero-point Energies=           -840.664463
 Sum of electronic and thermal Energies=              -840.646024
 Sum of electronic and thermal Enthalpies=            -840.645080
 Sum of electronic and thermal Free Energies=         -840.712037

                     E (Thermal)             CV                S
                      KCal/Mol        Cal/Mol-Kelvin    Cal/Mol-Kelvin
 Total                  236.630             71.730            140.924
 Electronic               0.000              0.000              0.000
 Translational            0.889              2.981             42.591
 Rotational               0.889              2.981             33.989
 Vibrational            234.852             65.768             64.343
 Vibration     1          0.593              1.986              6.639
 Vibration     2          0.593              1.985              6.168
 Vibration     3          0.595              1.979              4.924
 Vibration     4          0.598              1.970              4.226
 Vibration     5          0.600              1.962              3.879
 Vibration     6          0.610              1.930              3.050
 Vibration     7          0.614              1.916              2.840
 Vibration     8          0.623              1.886              2.493
 Vibration     9          0.637              1.841              2.141
 Vibration    10          0.642              1.827              2.053
 Vibration    11          0.655              1.786              1.832
 Vibration    12          0.658              1.777              1.792
 Vibration    13          0.665              1.755              1.700
 Vibration    14          0.674              1.729              1.597
 Vibration    15          0.682              1.705              1.515
 Vibration    16          0.694              1.670              1.405
 Vibration    17          0.707              1.632              1.301
 Vibration    18          0.723              1.585              1.188
 Vibration    19          0.744              1.530              1.072
 Vibration    20          0.756              1.497              1.009
 Vibration    21          0.769              1.462              0.949
 Vibration    22          0.783              1.425              0.889
 Vibration    23          0.793              1.400              0.851
 Vibration    24          0.794              1.397              0.847
 Vibration    25          0.812              1.353              0.785
 Vibration    26          0.864              1.230              0.636
 Vibration    27          0.898              1.156              0.560
 Vibration    28          0.916              1.117              0.523
 Vibration    29          0.957              1.033              0.451

 Optimization completed.
    -- Stationary point found.
 Normal termination of Gaussian 16 at Sun Dec 13 20:35:38 2020.

 ----------------------------------------------------------------------
 # B3LYP/6-311++G(d,p) empiricaldispersion=gd3bj scf=xqc pop=npa geom=c
 heck
 ----------------------------------------------------------------------

 --------------------------------------
 CID_80147492_JID_9429_Energie_neutraal
 --------------------------------------
 Structure from the checkpoint file:  "JID_9429.chk"
 Charge =  0 Multiplicity = 1

 SCF Done:  E(RB3LYP) =  -841.260273734     A.U. after   16 cycles
 Normal termination of Gaussian 16 at Sun Dec 13 20:45:55 2020.

 ----------------------------------------------------------------------
 # B3LYP/6-311++G(d,p) empiricaldispersion=gd3bj scf=xqc pop=npa geom=c
 heck
 ----------------------------------------------------------------------

 ------------------------------------
 CID_80147492_JID_9429_Energie_kation
 ------------------------------------
 Structure from the checkpoint file:  "JID_9429.chk"
 Charge =  1 Multiplicity = 2

 SCF Done:  E(UB3LYP) =  -840.974958372     A.U. after   24 cycles
 Normal termination of Gaussian 16 at Sun Dec 13 21:07:41 2020.
 Gaussian 16:  ES64L-G16RevA.03 25-Dec-2016

 ----------------------------------------------------------------------
 # B3LYP/6-311++G(d,p) empiricaldispersion=gd3bj scf=xqc pop=npa geom=c
 heck
 ----------------------------------------------------------------------

 -----------------------------------
 CID_80147492_JID_9429_Energie_anion
 -----------------------------------
 Structure from the checkpoint file:  "JID_9429.chk"
 Charge = -1 Multiplicity = 2

                         Standard orientation:
 ---------------------------------------------------------------------
 Center     Atomic      Atomic             Coordinates (Angstroms)
 Number     Number       Type             X           Y           Z
 ---------------------------------------------------------------------
      1          6           0       -2.743097    2.142087   -0.529498
      2          6           0       -3.674323    0.951151   -0.239660
      3          6           0       -3.420369    0.388125    1.175398
      4          6           0       -2.072013   -0.323724    1.302537
      5          7           0       -1.964012   -1.387996    0.308969
      6          6           0       -2.082439   -0.882679   -1.059847
      7          6           0       -3.433858   -0.191971   -1.249463
      8          6           0       -0.821273   -2.279398    0.516541
      9          6           0        0.532138   -1.615149    0.349348
     10          7           0        1.027617   -1.569147   -0.901327
     11          6           0        2.180101   -0.927715   -1.099740
     12          6           0        2.896091   -0.271738   -0.089641
     13          6           0        2.384637   -0.337545    1.210207
     14          6           0        1.194677   -1.021272    1.431653
     15          6           0        4.198547    0.370583   -0.451072
     16          8           0        4.958621   -0.132494   -1.268124
     17          7           0        4.525446    1.552364    0.187351
     18          7           0        3.595692    2.498093    0.678217
     19          6           0       -5.129244    1.429529   -0.344181
     20          1           0       -2.916846    2.951316    0.190146
     21          1           0       -1.684501    1.871357   -0.474568
     22          1           0       -2.929800    2.540663   -1.533833
     23          1           0       -3.480132    1.195161    1.917648
     24          1           0       -4.210828   -0.334478    1.414550
     25          1           0       -1.989812   -0.778291    2.298036
     26          1           0       -1.247712    0.410304    1.223427
     27          1           0       -1.995541   -1.733816   -1.743408
     28          1           0       -1.260374   -0.194377   -1.322251
     29          1           0       -4.224304   -0.943326   -1.126064
     30          1           0       -3.506653    0.192679   -2.275203
     31          1           0       -0.906070   -2.700363    1.525816
     32          1           0       -0.894374   -3.097463   -0.206819
     33          1           0        2.573712   -0.925924   -2.113247
     34          1           0        2.926164    0.104898    2.041156
     35          1           0        0.781631   -1.105572    2.432132
     36          1           0        5.360822    1.982309   -0.194876
     37          1           0        2.742235    2.468482    0.122778
     38          1           0        3.349235    2.263034    1.636051
     39          1           0       -5.828914    0.609294   -0.144590
     40          1           0       -5.333753    2.230392    0.377104
     41          1           0       -5.343800    1.818770   -1.346957
 ---------------------------------------------------------------------

 SCF Done:  E(UB3LYP) =  -841.269970761     A.U. after   32 cycles

 The electronic state is 2-A.
 Alpha  occ. eigenvalues --  -18.95153 -14.23156 -14.22884 -14.19248 -14.16273
 Alpha  occ. eigenvalues --  -10.12888 -10.09110 -10.08689 -10.08078 -10.07393
 Alpha  occ. eigenvalues --  -10.07375 -10.06947 -10.06785 -10.06743 -10.06706
 Alpha  occ. eigenvalues --  -10.05463 -10.04636 -10.04451 -10.03660  -0.91182
 Alpha  occ. eigenvalues --   -0.85551  -0.82300  -0.79878  -0.73297  -0.68085
 Alpha  occ. eigenvalues --   -0.66806  -0.65342  -0.64929  -0.61627  -0.59892
 Alpha  occ. eigenvalues --   -0.56433  -0.53045  -0.51397  -0.49704  -0.47885
 Alpha  occ. eigenvalues --   -0.46001  -0.42842  -0.40860  -0.39947  -0.38813
 Alpha  occ. eigenvalues --   -0.37585  -0.36426  -0.36229  -0.35845  -0.35093
 Alpha  occ. eigenvalues --   -0.34819  -0.34001  -0.31158  -0.30853  -0.30202
 Alpha  occ. eigenvalues --   -0.29208  -0.29009  -0.28279  -0.28100  -0.27644
 Alpha  occ. eigenvalues --   -0.27005  -0.26649  -0.25083  -0.24766  -0.24088
 Alpha  occ. eigenvalues --   -0.23812  -0.22672  -0.21526  -0.20943  -0.18631
 Alpha  occ. eigenvalues --   -0.15789  -0.14224  -0.13872  -0.12535  -0.11937
 Alpha  occ. eigenvalues --   -0.09893   0.04029
 Alpha virt. eigenvalues --    0.05882   0.07430   0.07819   0.08211   0.08795
 Alpha virt. eigenvalues --    0.09394   0.09946   0.10121   0.10279   0.10371
 Alpha virt. eigenvalues --    0.11133   0.11367   0.11708   0.12500   0.12857

  Beta  occ. eigenvalues --  -18.94917 -14.23134 -14.22863 -14.19200 -14.16158
  Beta  occ. eigenvalues --  -10.12722 -10.09111 -10.08682 -10.08078 -10.07419
  Beta  occ. eigenvalues --  -10.07366 -10.06941 -10.06778 -10.06733 -10.06700
  Beta  occ. eigenvalues --  -10.05068 -10.04740 -10.04166 -10.03480  -0.90834
  Beta  occ. eigenvalues --   -0.85366  -0.82163  -0.79559  -0.73273  -0.67863
  Beta  occ. eigenvalues --   -0.66420  -0.65319  -0.64644  -0.61465  -0.59874
  Beta  occ. eigenvalues --   -0.56236  -0.53019  -0.51101  -0.49469  -0.47699
  Beta  occ. eigenvalues --   -0.45746  -0.42799  -0.40749  -0.39843  -0.38713
  Beta  occ. eigenvalues --   -0.37460  -0.36403  -0.36145  -0.35732  -0.35068
  Beta  occ. eigenvalues --   -0.34595  -0.33795  -0.31077  -0.30680  -0.30176
  Beta  occ. eigenvalues --   -0.29043  -0.28839  -0.28243  -0.27921  -0.27165
  Beta  occ. eigenvalues --   -0.26647  -0.26355  -0.24972  -0.24228  -0.23846
  Beta  occ. eigenvalues --   -0.23681  -0.22628  -0.21479  -0.20927  -0.18452
  Beta  occ. eigenvalues --   -0.14568  -0.13776  -0.13290  -0.12202  -0.11058
  Beta  occ. eigenvalues --   -0.09715
  Beta virt. eigenvalues --    0.05834   0.07306   0.07827   0.08111   0.08729
  Beta virt. eigenvalues --    0.09352   0.09576   0.09961   0.10108   0.10268
  Beta virt. eigenvalues --    0.10570   0.11088   0.11324   0.11638   0.12455

 Mulliken charges and spin densities:
               1          2
     1  C   -0.342800  -0.245547
     2  C    0.080162   0.732899
     3  C   -0.479173  -0.474438
     4  C   -0.199277   0.076179
     5  N    0.261757  -0.013541
     6  C   -0.309937   0.039631
     7  C   -0.409564  -0.367041
     8  C   -0.627861   0.057773
     9  C    0.120739   0.183086
    10  N    0.045345   0.064523
    11  C   -0.193613  -0.046135
    12  C    0.646164   0.029043
    13  C   -0.296126   0.279114
    14  C   -0.251214  -0.049294
    15  C   -0.333337   0.039289
    16  O   -0.387440   0.083017
    17  N   -0.317795   0.010054
    18  N   -0.322623  -0.018040
    19  C   -0.179221  -0.401013
    20  H    0.032560   0.107478
    21  H    0.157371  -0.043248
    22  H    0.067950   0.072441
    23  H    0.053425   0.095425
    24  H    0.095993   0.059893
    25  H    0.028283   0.125217
    26  H    0.210656  -0.072082
    27  H    0.163222   0.015743
    28  H    0.142106  -0.001635
    29  H    0.091969   0.057695
    30  H    0.114729   0.032778
    31  H    0.091929   0.059704
    32  H    0.113019   0.067433
    33  H    0.186651   0.004481
    34  H    0.052053   0.072099
    35  H    0.063601   0.073225
    36  H    0.290266   0.012277
    37  H    0.153287   0.064206
    38  H    0.213595   0.007298
    39  H    0.064035   0.063528
    40  H    0.048890   0.078666
    41  H    0.060226   0.067821
 Sum of Mulliken charges =  -1.00000   1.00000

 Dipole moment (field-independent basis, Debye):
    X=             -6.8500    Y=              2.3427    Z=              2.2262  Tot=              7.5741
 Quadrupole moment (field-independent basis, Debye-Ang):
   XX=           -201.9719   YY=           -143.7926   ZZ=           -132.2034
   XY=              4.1139   XZ=             10.8504   YZ=             -2.3575

 Summary of Natural Population Analysis:

                                       Natural Population
                Natural  -----------------------------------------------
    Atom  No    Charge         Core      Valence    Rydberg      Total
 -----------------------------------------------------------------------
      C    1   -0.28772      0.99963     2.28192    0.00617     3.28772
      C    2   -0.04847      0.99957     2.03709    0.01181     3.04847
      C    3   -0.18956      0.99959     2.18083    0.00914     3.18956
      C    4   -0.08815      0.99961     2.07567    0.01287     3.08815
      N    5   -0.27610      0.99971     2.76255    0.01383     3.77610
      C    6   -0.08596      0.99961     2.07573    0.01062     3.08596
      C    7   -0.19023      0.99959     2.18168    0.00897     3.19023
      C    8   -0.09341      0.99959     2.08228    0.01155     3.09341
      C    9    0.16005      0.99953     1.82746    0.01295     2.83995
      N   10   -0.23965      0.99969     2.72866    0.01130     3.73965
      C   11    0.04895      0.99956     1.93759    0.01390     2.95105
      C   12   -0.06994      0.99946     2.06099    0.00949     3.06994
      C   13   -0.02783      0.99954     2.01919    0.00911     3.02783
      C   14   -0.15015      0.99952     2.14266    0.00798     3.15015
      C   15    0.35306      0.99962     1.62438    0.02293     2.64694
      O   16   -0.30231      0.99988     3.29653    0.00590     4.30231
      N   17   -0.24366      0.99967     2.73075    0.01325     3.74366
      N   18   -0.32238      0.99978     2.81184    0.01076     3.82238
      C   19   -0.28015      0.99963     2.27469    0.00583     3.28015
      H   20    0.09671      0.00000     0.40235    0.00094     0.40329
      H   21    0.10518      0.00000     0.39347    0.00134     0.39482
      H   22    0.09709      0.00000     0.40201    0.00090     0.40291
      H   23    0.09623      0.00000     0.40276    0.00101     0.40377
      H   24    0.09752      0.00000     0.40079    0.00169     0.40248
      H   25    0.09461      0.00000     0.40424    0.00115     0.40539
      H   26    0.08515      0.00000     0.41307    0.00179     0.41485
      H   27    0.09972      0.00000     0.39910    0.00118     0.40028
      H   28    0.08776      0.00000     0.40974    0.00250     0.41224
      H   29    0.09696      0.00000     0.40137    0.00167     0.40304
      H   30    0.09636      0.00000     0.40263    0.00101     0.40364
      H   31    0.09136      0.00000     0.40757    0.00107     0.40864
      H   32    0.10028      0.00000     0.39821    0.00151     0.39972
      H   33    0.09079      0.00000     0.40788    0.00133     0.40921
      H   34    0.08795      0.00000     0.41031    0.00174     0.41205
      H   35    0.09456      0.00000     0.40381    0.00162     0.40544
      H   36    0.17931      0.00000     0.31707    0.00362     0.32069
      H   37    0.17501      0.00000     0.32259    0.00240     0.32499
      H   38    0.16933      0.00000     0.32795    0.00272     0.33067
      H   39    0.09794      0.00000     0.40105    0.00101     0.40206
      H   40    0.09692      0.00000     0.40217    0.00091     0.40308
      H   41    0.09688      0.00000     0.40223    0.00089     0.40312
 =======================================================================
   * Total *    0.00000     18.99276    51.76488    0.24236    71.00000

 Normal termination of Gaussian 16 at Sun Dec 13 21:36:22 2020.
