 Gaussian 16, Revision A.03,

 -----------------------------------------------------------
 # opt freq B3LYP/6-31G(d) empiricaldispersion=gd3bj scf=xqc
 -----------------------------------------------------------

 ------------------------------
 CID_54959255_JID_7883_neutraal
 ------------------------------
 Symbolic Z-matrix:
 Charge =  0 Multiplicity = 1

 SCF Done:  E(RB3LYP) =  -800.873104548     A.U. after   15 cycles
 SCF Done:  E(RB3LYP) =  -800.877450465     A.U. after   12 cycles
 SCF Done:  E(RB3LYP) =  -800.877964355     A.U. after   12 cycles
 SCF Done:  E(RB3LYP) =  -800.878352292     A.U. after   12 cycles
 SCF Done:  E(RB3LYP) =  -800.878926566     A.U. after   12 cycles
 SCF Done:  E(RB3LYP) =  -800.878943656     A.U. after   14 cycles
 SCF Done:  E(RB3LYP) =  -800.879951942     A.U. after   12 cycles
 SCF Done:  E(RB3LYP) =  -800.880594100     A.U. after   11 cycles
 SCF Done:  E(RB3LYP) =  -800.881183025     A.U. after   12 cycles
 SCF Done:  E(RB3LYP) =  -800.881505152     A.U. after   12 cycles
 SCF Done:  E(RB3LYP) =  -800.881948645     A.U. after    7 cycles
 SCF Done:  E(RB3LYP) =  -800.881948706     A.U. after    7 cycles
 SCF Done:  E(RB3LYP) =  -800.881948759     A.U. after    7 cycles
 SCF Done:  E(RB3LYP) =  -800.881948800     A.U. after    7 cycles
 SCF Done:  E(RB3LYP) =  -800.881948825     A.U. after    7 cycles
 Optimization completed.
    -- Stationary point found.
 Normal termination of Gaussian 16 at Fri Dec 11 13:33:38 2020.

 --------------------------------------------------------------------
 #N Geom=AllCheck Guess=TCheck SCRF=Check GenChk RB3LYP/6-31G(d) Freq
 --------------------------------------------------------------------

 Structure from the checkpoint file:  "JID_7883.chk"
 ------------------------------
 CID_54959255_JID_7883_neutraal
 ------------------------------
 Charge =  0 Multiplicity = 1

 SCF Done:  E(RB3LYP) =  -800.881948825     A.U. after    1 cycles

  Exact polarizability: 198.753   4.334 117.429   0.181  20.331 111.310
 Approx polarizability: 266.601   5.957 181.228  -5.510  44.746 190.839

                      1                      2                      3
                      A                      A                      A
 Frequencies --     13.2067                17.0822                27.2681
 Red. masses --      4.6582                 3.4144                 5.2437
 Frc consts  --      0.0005                 0.0006                 0.0023
 IR Inten    --      0.7149                 0.3379                 0.6961

                      4                      5                      6
                      A                      A                      A
 Frequencies --     52.6659                75.1510                99.4591
 Red. masses --      5.0467                 4.1156                 4.2809
 Frc consts  --      0.0082                 0.0137                 0.0250
 IR Inten    --      0.0208                 1.2433                 2.1339

                      7                      8                      9
                      A                      A                      A
 Frequencies --    121.8055               148.0218               205.9666
 Red. masses --      2.4334                 3.0610                 5.8369
 Frc consts  --      0.0213                 0.0395                 0.1459
 IR Inten    --      0.3843                 0.6975                 0.4091

                     10                     11                     12
                      A                      A                      A
 Frequencies --    235.0263               251.3423               285.5181
 Red. masses --      1.5389                 4.0438                 2.2159
 Frc consts  --      0.0501                 0.1505                 0.1064
 IR Inten    --      2.2439                 0.2185                 1.0520

                     13                     14                     15
                      A                      A                      A
 Frequencies --    300.5998               328.3931               344.0104
 Red. masses --      3.4540                 3.6887                 1.3290
 Frc consts  --      0.1839                 0.2344                 0.0927
 IR Inten    --     12.4499                13.6613                87.4745

                     16                     17                     18
                      A                      A                      A
 Frequencies --    366.7403               409.7337               453.1916
 Red. masses --      3.4164                 2.8412                 3.6788
 Frc consts  --      0.2707                 0.2810                 0.4452
 IR Inten    --      3.8714                 0.3350                 1.7477

                     19                     20                     21
                      A                      A                      A
 Frequencies --    480.5870               485.1286               561.3096
 Red. masses --      4.6441                 3.4660                 6.7216
 Frc consts  --      0.6320                 0.4806                 1.2478
 IR Inten    --      4.1926                 3.2883                 7.0591

                     22                     23                     24
                      A                      A                      A
 Frequencies --    574.5774               600.7318               647.7972
 Red. masses --      4.5853                 6.2508                 3.7017
 Frc consts  --      0.8919                 1.3291                 0.9152
 IR Inten    --      0.4426                 0.8856                 3.7660

                     25                     26                     27
                      A                      A                      A
 Frequencies --    695.5187               724.3830               746.1290
 Red. masses --      6.6816                 3.6206                 2.3982
 Frc consts  --      1.9044                 1.1193                 0.7866
 IR Inten    --      7.9836                 0.9809                 8.4801

                     28                     29                     30
                      A                      A                      A
 Frequencies --    760.4055               771.8398               831.1436
 Red. masses --      1.3532                 5.5192                 2.6069
 Frc consts  --      0.4610                 1.9372                 1.0610
 IR Inten    --     52.4035                 1.3119                15.0241

                     31                     32                     33
                      A                      A                      A
 Frequencies --    835.2689               845.6005               873.1455
 Red. masses --      2.2191                 1.6571                 2.4575
 Frc consts  --      0.9122                 0.6981                 1.1039
 IR Inten    --     38.3757                 6.6241                 1.3696

                     34                     35                     36
                      A                      A                      A
 Frequencies --    890.8417               900.6994               927.0451
 Red. masses --      5.0251                 1.8634                 1.7955
 Frc consts  --      2.3496                 0.8907                 0.9091
 IR Inten    --     37.4439                12.6662                12.6144

                     37                     38                     39
                      A                      A                      A
 Frequencies --    932.3669               962.1759              1000.8167
 Red. masses --      2.7968                 1.2310                 3.4415
 Frc consts  --      1.4325                 0.6714                 2.0310
 IR Inten    --      5.6792                 0.2171                 5.7903

                     40                     41                     42
                      A                      A                      A
 Frequencies --   1030.6174              1040.4735              1048.5006
 Red. masses --      2.8121                 5.2330                 2.3015
 Frc consts  --      1.7599                 3.3378                 1.4907
 IR Inten    --     12.8920                58.1954                13.7883

                     43                     44                     45
                      A                      A                      A
 Frequencies --   1067.4494              1071.7575              1113.9919
 Red. masses --      3.0995                 2.2566                 1.8261
 Frc consts  --      2.0809                 1.5272                 1.3352
 IR Inten    --      0.6223                21.2219                 0.7833

                     46                     47                     48
                      A                      A                      A
 Frequencies --   1116.8283              1125.3211              1188.0981
 Red. masses --      1.9957                 1.9597                 1.0992
 Frc consts  --      1.4666                 1.4622                 0.9141
 IR Inten    --      4.0501                53.3064                10.5701

                     49                     50                     51
                      A                      A                      A
 Frequencies --   1198.6214              1237.8421              1255.8993
 Red. masses --      1.3051                 1.7513                 1.4424
 Frc consts  --      1.1047                 1.5811                 1.3404
 IR Inten    --     41.3749                16.9459                57.3986

                     52                     53                     54
                      A                      A                      A
 Frequencies --   1277.9176              1303.5223              1312.8625
 Red. masses --      2.1421                 1.2625                 2.3590
 Frc consts  --      2.0611                 1.2639                 2.3956
 IR Inten    --    182.7902                 2.8005                73.3513

                     55                     56                     57
                      A                      A                      A
 Frequencies --   1323.9407              1330.5277              1375.0146
 Red. masses --      2.1925                 2.2931                 1.3960
 Frc consts  --      2.2643                 2.3918                 1.5551
 IR Inten    --     11.2503               126.0093                12.5305

                     58                     59                     60
                      A                      A                      A
 Frequencies --   1382.1780              1387.3197              1404.7052
 Red. masses --      2.4780                 1.9918                 1.5592
 Frc consts  --      2.7892                 2.2587                 1.8126
 IR Inten    --     74.4767                47.7350                 9.4952

                     61                     62                     63
                      A                      A                      A
 Frequencies --   1442.0225              1451.4951              1500.9722
 Red. masses --      2.2014                 1.2990                 1.1088
 Frc consts  --      2.6971                 1.6124                 1.4718
 IR Inten    --     28.4674                 3.2461                 8.6028

                     64                     65                     66
                      A                      A                      A
 Frequencies --   1506.1779              1519.8100              1530.9287
 Red. masses --      2.4983                 1.0655                 1.0413
 Frc consts  --      3.3392                 1.4500                 1.4380
 IR Inten    --     24.0151                 0.5878                 5.7130

                     67                     68                     69
                      A                      A                      A
 Frequencies --   1533.5652              1535.2704              1561.1019
 Red. masses --      1.0784                 1.1065                 2.8836
 Frc consts  --      1.4943                 1.5366                 4.1405
 IR Inten    --      3.1435                12.2815               117.0691

                     70                     71                     72
                      A                      A                      A
 Frequencies --   1579.4416              1636.6698              1658.9973
 Red. masses --      7.4713                 8.8468                 6.2224
 Frc consts  --     10.9813                13.9623                10.0902
 IR Inten    --      2.7812                84.9180                 9.7181

                     73                     74                     75
                      A                      A                      A
 Frequencies --   1662.5328              3053.1791              3054.7983
 Red. masses --      6.2040                 1.0425                 1.0541
 Frc consts  --     10.1034                 5.7258                 5.7958
 IR Inten    --     17.0487                13.6435                30.8917

                     76                     77                     78
                      A                      A                      A
 Frequencies --   3063.7802              3070.1749              3089.4339
 Red. masses --      1.0590                 1.0630                 1.1029
 Frc consts  --      5.8571                 5.9034                 6.2022
 IR Inten    --     24.3899                15.0744                12.6996

                     79                     80                     81
                      A                      A                      A
 Frequencies --   3120.1784              3121.1625              3127.3949
 Red. masses --      1.1028                 1.1053                 1.1021
 Frc consts  --      6.3254                 6.3437                 6.3511
 IR Inten    --     21.1577                12.0705                31.1799

                     82                     83                     84
                      A                      A                      A
 Frequencies --   3129.4918              3164.7645              3196.5531
 Red. masses --      1.1021                 1.0888                 1.0873
 Frc consts  --      6.3596                 6.4250                 6.5460
 IR Inten    --     33.4162                16.5708                 5.2361

                     85                     86                     87
                      A                      A                      A
 Frequencies --   3209.5545              3220.9489              3753.0535
 Red. masses --      1.0922                 1.0964                 1.0660
 Frc consts  --      6.6291                 6.7020                 8.8467
 IR Inten    --     21.3054                10.5230                44.4096

 - Thermochemistry -
 -------------------
 Temperature   298.150 Kelvin.  Pressure   1.00000 Atm.
 Atom     1 has atomic number  6 and mass  12.00000

 Molecular mass:   234.10044 amu.
 Principal axes and moments of inertia in atomic units:
                           1         2         3
     Eigenvalues --  1593.468739629.240099827.96227
           X            0.99989  -0.01048   0.01014
           Y            0.01025   0.99968   0.02296
           Z           -0.01038  -0.02286   0.99968
 This molecule is an asymmetric top.
 Rotational symmetry number  1.
 Warning -- assumption of classical behavior for rotation
           may cause significant error
 Rotational temperatures (Kelvin)      0.05436     0.00899     0.00881
 Rotational constants (GHZ):           1.13259     0.18742     0.18363
 Zero-point vibrational energy     657165.8 (Joules/Mol)
                                  157.06639 (Kcal/Mol)
 Warning -- explicit consideration of  23 degrees of freedom as
           vibrations may cause significant error
 Vibrational temperatures:     19.00    24.58    39.23    75.77   108.13
          (Kelvin)            143.10   175.25   212.97   296.34   338.15
                              361.63   410.80   432.50   472.48   494.95
                              527.66   589.52   652.04   691.46   697.99
                              807.60   826.69   864.32   932.04  1000.70
                             1042.23  1073.51  1094.05  1110.51  1195.83
                             1201.77  1216.63  1256.26  1281.72  1295.91
                             1333.81  1341.47  1384.36  1439.95  1482.83
                             1497.01  1508.56  1535.82  1542.02  1602.79
                             1606.87  1619.09  1709.41  1724.55  1780.98
                             1806.96  1838.64  1875.48  1888.92  1904.86
                             1914.33  1978.34  1988.65  1996.04  2021.06
                             2074.75  2088.38  2159.56  2167.05  2186.67
                             2202.66  2206.46  2208.91  2246.08  2272.46
                             2354.80  2386.93  2392.01  4392.84  4395.17
                             4408.10  4417.30  4445.01  4489.24  4490.66
                             4499.62  4502.64  4553.39  4599.13  4617.83
                             4634.23  5399.81

 Zero-point correction=                           0.250301 (Hartree/Particle)
 Thermal correction to Energy=                    0.266176
 Thermal correction to Enthalpy=                  0.267120
 Thermal correction to Gibbs Free Energy=         0.203036
 Sum of electronic and zero-point Energies=           -800.631648
 Sum of electronic and thermal Energies=              -800.615773
 Sum of electronic and thermal Enthalpies=            -800.614829
 Sum of electronic and thermal Free Energies=         -800.678913

                     E (Thermal)             CV                S
                      KCal/Mol        Cal/Mol-Kelvin    Cal/Mol-Kelvin
 Total                  167.028             58.703            134.875
 Electronic               0.000              0.000              0.000
 Translational            0.889              2.981             42.253
 Rotational               0.889              2.981             33.377
 Vibrational            165.250             52.741             59.244
 Vibration     1          0.593              1.987              7.458
 Vibration     2          0.593              1.986              6.947
 Vibration     3          0.593              1.984              6.019
 Vibration     4          0.596              1.977              4.715
 Vibration     5          0.599              1.966              4.014
 Vibration     6          0.604              1.949              3.465
 Vibration     7          0.609              1.931              3.072
 Vibration     8          0.617              1.905              2.698
 Vibration     9          0.640              1.831              2.079
 Vibration    10          0.655              1.787              1.840
 Vibration    11          0.663              1.761              1.721
 Vibration    12          0.683              1.701              1.500
 Vibration    13          0.693              1.673              1.414
 Vibration    14          0.712              1.619              1.268
 Vibration    15          0.723              1.587              1.193
 Vibration    16          0.740              1.541              1.093
 Vibration    17          0.774              1.449              0.928
 Vibration    18          0.812              1.354              0.786
 Vibration    19          0.837              1.293              0.708
 Vibration    20          0.841              1.283              0.696
 Vibration    21          0.917              1.115              0.521
 Vibration    22          0.931              1.086              0.496
 Vibration    23          0.959              1.030              0.448

 Optimization completed.
    -- Stationary point found.
 Normal termination of Gaussian 16 at Fri Dec 11 13:41:59 2020.

 ----------------------------------------------------------------------
 # B3LYP/6-311++G(d,p) empiricaldispersion=gd3bj scf=xqc pop=npa geom=c
 heck
 ----------------------------------------------------------------------

 --------------------------------------
 CID_54959255_JID_7883_Energie_neutraal
 --------------------------------------
 Structure from the checkpoint file:  "JID_7883.chk"
 Charge =  0 Multiplicity = 1

 SCF Done:  E(RB3LYP) =  -801.108387415     A.U. after   14 cycles
 Normal termination of Gaussian 16 at Fri Dec 11 13:45:18 2020.

 ----------------------------------------------------------------------
 # B3LYP/6-311++G(d,p) empiricaldispersion=gd3bj scf=xqc pop=npa geom=c
 heck
 ----------------------------------------------------------------------

 ------------------------------------
 CID_54959255_JID_7883_Energie_kation
 ------------------------------------
 Structure from the checkpoint file:  "JID_7883.chk"
 Charge =  1 Multiplicity = 2

 SCF Done:  E(UB3LYP) =  -800.805081220     A.U. after   23 cycles
 Normal termination of Gaussian 16 at Fri Dec 11 13:52:24 2020.
 Gaussian 16:  ES64L-G16RevA.03 25-Dec-2016

 ----------------------------------------------------------------------
 # B3LYP/6-311++G(d,p) empiricaldispersion=gd3bj scf=xqc pop=npa geom=c
 heck
 ----------------------------------------------------------------------

 -----------------------------------
 CID_54959255_JID_7883_Energie_anion
 -----------------------------------
 Structure from the checkpoint file:  "JID_7883.chk"
 Charge = -1 Multiplicity = 2

                         Standard orientation:
 ---------------------------------------------------------------------
 Center     Atomic      Atomic             Coordinates (Angstroms)
 Number     Number       Type             X           Y           Z
 ---------------------------------------------------------------------
      1          6           0       -3.996874    2.020466   -1.163800
      2          6           0       -4.912606    0.994168   -0.493926
      3          6           0       -4.384434   -0.452903   -0.605977
      4          6           0       -3.072921   -0.628344    0.077361
      5          7           0       -1.887305   -0.761387   -0.444687
      6          6           0       -1.076547   -0.819073    0.670228
      7          7           0       -1.706928   -0.730283    1.814600
      8          8           0       -3.054007   -0.604156    1.426730
      9          6           0        0.406903   -0.966914    0.604426
     10          8           0        0.934634    0.238459    0.035014
     11          6           0        2.306501    0.337460    0.039012
     12          6           0        2.899294    1.369179    0.762504
     13          6           0        4.283510    1.550051    0.748415
     14          6           0        5.083135    0.678229    0.011996
     15          6           0        4.499092   -0.360660   -0.714518
     16          6           0        3.114260   -0.533690   -0.714727
     17          8           0        2.489835   -1.522592   -1.427497
     18          1           0       -2.999691    2.024988   -0.710977
     19          1           0       -4.412441    3.029631   -1.074446
     20          1           0       -3.871167    1.799142   -2.230054
     21          1           0       -5.045231    1.240999    0.566236
     22          1           0       -5.908598    1.023752   -0.951745
     23          1           0       -5.110178   -1.147049   -0.167009
     24          1           0       -4.243496   -0.726713   -1.655586
     25          1           0        0.801169   -1.115057    1.616290
     26          1           0        0.668579   -1.827203   -0.018485
     27          1           0        2.247196    2.027077    1.328120
     28          1           0        4.730032    2.361220    1.314854
     29          1           0        6.161842    0.801283   -0.004605
     30          1           0        5.119247   -1.039853   -1.297121
     31          1           0        3.162792   -2.032023   -1.904786
 ---------------------------------------------------------------------

 SCF Done:  E(UB3LYP) =  -801.101948130     A.U. after   33 cycles
 SCF Done:  E(UB3LYP) =  -801.101948130     a.u. after    1 cycles

 The electronic state is 2-A.
 Alpha  occ. eigenvalues --  -19.10650 -19.06155 -19.05047 -14.25755 -14.21241
 Alpha  occ. eigenvalues --  -10.16400 -10.14844 -10.13898 -10.13647 -10.13341
 Alpha  occ. eigenvalues --  -10.09495 -10.09034 -10.08885 -10.08752 -10.08686
 Alpha  occ. eigenvalues --  -10.08460 -10.07089  -1.05649  -0.97999  -0.95891
 Alpha  occ. eigenvalues --   -0.83291  -0.77762  -0.76541  -0.70343  -0.67179
 Alpha  occ. eigenvalues --   -0.65687  -0.62340  -0.61483  -0.54565  -0.53129
 Alpha  occ. eigenvalues --   -0.51980  -0.50396  -0.47978  -0.45976  -0.43492
 Alpha  occ. eigenvalues --   -0.41367  -0.39991  -0.39278  -0.38032  -0.37254
 Alpha  occ. eigenvalues --   -0.36315  -0.34945  -0.34790  -0.33536  -0.32206
 Alpha  occ. eigenvalues --   -0.31858  -0.31181  -0.30535  -0.28479  -0.27880
 Alpha  occ. eigenvalues --   -0.26656  -0.26266  -0.25781  -0.25568  -0.24754
 Alpha  occ. eigenvalues --   -0.23537  -0.22762  -0.19784  -0.19455  -0.18574
 Alpha  occ. eigenvalues --   -0.16082  -0.13670   0.03866
 Alpha virt. eigenvalues --    0.04947   0.06595   0.06849   0.07241   0.08032
 Alpha virt. eigenvalues --    0.08190   0.08465   0.09083   0.09268   0.10172
 Alpha virt. eigenvalues --    0.10266   0.11229   0.11797   0.12279   0.12398

  Beta  occ. eigenvalues --  -19.10513 -19.06098 -19.05037 -14.25581 -14.21259
  Beta  occ. eigenvalues --  -10.16246 -10.14844 -10.13891 -10.13647 -10.13308
  Beta  occ. eigenvalues --  -10.09501 -10.09028 -10.08885 -10.08750 -10.08650
  Beta  occ. eigenvalues --  -10.08417 -10.07078  -1.05417  -0.97928  -0.95830
  Beta  occ. eigenvalues --   -0.83186  -0.77531  -0.76494  -0.70270  -0.67132
  Beta  occ. eigenvalues --   -0.65652  -0.62288  -0.61385  -0.54496  -0.52986
  Beta  occ. eigenvalues --   -0.51907  -0.50343  -0.47867  -0.45889  -0.43432
  Beta  occ. eigenvalues --   -0.41238  -0.39919  -0.38948  -0.37914  -0.37213
  Beta  occ. eigenvalues --   -0.36253  -0.34780  -0.34717  -0.33463  -0.32159
  Beta  occ. eigenvalues --   -0.31809  -0.31133  -0.30452  -0.28441  -0.27843
  Beta  occ. eigenvalues --   -0.26535  -0.26213  -0.25740  -0.25494  -0.24729
  Beta  occ. eigenvalues --   -0.23358  -0.22371  -0.19736  -0.19393  -0.17816
  Beta  occ. eigenvalues --   -0.16062  -0.13646
  Beta virt. eigenvalues --    0.06237   0.06355   0.07243   0.07521   0.07861
  Beta virt. eigenvalues --    0.08285   0.08442   0.08745   0.09096   0.09733
  Beta virt. eigenvalues --    0.10333   0.10502   0.11307   0.12043   0.12201

 Mulliken charges and spin densities:
               1          2
     1  C   -0.256522  -0.308449
     2  C    0.384895  -0.446631
     3  C   -0.825066   0.485826
     4  C    0.260405  -0.624498
     5  N   -0.020363   0.016758
     6  C    0.234976  -0.039102
     7  N   -0.292014   0.088177
     8  O    0.161511   0.038373
     9  C   -0.363346  -0.015971
    10  O   -0.021256  -0.005559
    11  C    0.160318  -0.556064
    12  C    0.013713   0.240962
    13  C   -0.436250   0.196819
    14  C    0.082033  -0.282430
    15  C    0.146676  -0.155609
    16  C    0.895432  -0.877884
    17  O   -0.260568   0.022798
    18  H    0.135736   0.038811
    19  H   -0.007348   0.131753
    20  H    0.128697  -0.002646
    21  H    0.146504  -0.016957
    22  H   -0.631071   0.814445
    23  H   -0.073397   0.252150
    24  H    0.121974   0.050533
    25  H    0.150776   0.000969
    26  H    0.177256   0.035881
    27  H    0.161283  -0.009601
    28  H    0.123043   0.021125
    29  H    0.052734   0.095288
    30  H   -1.096660   1.264668
    31  H   -0.254100   0.546063
 Sum of Mulliken charges =  -1.00000   1.00000

 Dipole moment (field-independent basis, Debye):
    X=              0.1367    Y=              3.0415    Z=              3.7129  Tot=              4.8015
 Quadrupole moment (field-independent basis, Debye-Ang):
   XX=           -214.7666   YY=           -126.1490   ZZ=           -134.0404
   XY=             20.8320   XZ=             14.5181   YZ=             -3.9359

 Summary of Natural Population Analysis:

                                       Natural Population
                Natural  -----------------------------------------------
    Atom  No    Charge         Core      Valence    Rydberg      Total
 -----------------------------------------------------------------------
      C    1   -0.28969      0.99966     2.28383    0.00620     3.28969
      C    2   -0.18373      0.99964     2.17610    0.00799     3.18373
      C    3   -0.22228      0.99958     2.21254    0.01015     3.22228
      C    4    0.30597      0.99962     1.67235    0.02206     2.69403
      N    5   -0.26783      0.99967     2.76053    0.00763     3.76783
      C    6    0.16456      0.99964     1.81854    0.01725     2.83544
      N    7   -0.06781      0.99967     2.55704    0.01110     3.56781
      O    8   -0.16557      0.99985     3.15738    0.00834     4.16557
      C    9   -0.03113      0.99950     2.01939    0.01224     3.03113
      O   10   -0.27999      0.99986     3.27101    0.00912     4.27999
      C   11    0.13044      0.99933     1.85492    0.01531     2.86956
      C   12   -0.11337      0.99952     2.10423    0.00961     3.11337
      C   13   -0.11779      0.99957     2.10854    0.00968     3.11779
      C   14   -0.10295      0.99957     2.09319    0.01019     3.10295
      C   15   -0.13093      0.99953     2.12077    0.01064     3.13093
      C   16    0.14082      0.99934     1.84590    0.01394     2.85918
      O   17   -0.33858      0.99988     3.33090    0.00781     4.33858
      H   18    0.10262      0.00000     0.39642    0.00096     0.39738
      H   19    0.09749      0.00000     0.40184    0.00067     0.40251
      H   20    0.09733      0.00000     0.40189    0.00078     0.40267
      H   21    0.09668      0.00000     0.40210    0.00122     0.40332
      H   22    0.09930      0.00000     0.39751    0.00319     0.40070
      H   23    0.11299      0.00000     0.38573    0.00128     0.38701
      H   24    0.11101      0.00000     0.38799    0.00100     0.38899
      H   25    0.09175      0.00000     0.40697    0.00128     0.40825
      H   26    0.10493      0.00000     0.39357    0.00150     0.39507
      H   27    0.10609      0.00000     0.39302    0.00089     0.39391
      H   28    0.09869      0.00000     0.40057    0.00075     0.40131
      H   29    0.10060      0.00000     0.39861    0.00079     0.39940
      H   30    0.10732      0.00000     0.38870    0.00398     0.39268
      H   31    0.24307      0.00000     0.24522    0.01172     0.25693
 =======================================================================
   * Total *    0.00000     16.99344    44.78728    0.21928    62.00000

 Normal termination of Gaussian 16 at Fri Dec 11 14:02:47 2020.
