 Gaussian 16, Revision A.03,

 -----------------------------------------------------------
 # opt freq B3LYP/6-31G(d) empiricaldispersion=gd3bj scf=xqc
 -----------------------------------------------------------

 -------------------------------
 CID_131287456_JID_2987_neutraal
 -------------------------------
 Symbolic Z-matrix:
 Charge =  0 Multiplicity = 1

 SCF Done:  E(RB3LYP) =  -529.851789344     A.U. after   15 cycles
 SCF Done:  E(RB3LYP) =  -529.858956595     A.U. after   13 cycles
 SCF Done:  E(RB3LYP) =  -529.860323609     A.U. after   12 cycles
 SCF Done:  E(RB3LYP) =  -529.860963003     A.U. after   12 cycles
 SCF Done:  E(RB3LYP) =  -529.861264770     A.U. after   12 cycles
 SCF Done:  E(RB3LYP) =  -529.861459668     A.U. after   11 cycles
 SCF Done:  E(RB3LYP) =  -529.861717938     A.U. after   12 cycles
 SCF Done:  E(RB3LYP) =  -529.861870864     A.U. after   11 cycles
 SCF Done:  E(RB3LYP) =  -529.861913552     A.U. after   11 cycles
 SCF Done:  E(RB3LYP) =  -529.861979588     A.U. after   11 cycles
 SCF Done:  E(RB3LYP) =  -529.862059188     A.U. after   10 cycles
 SCF Done:  E(RB3LYP) =  -529.862085803     A.U. after   11 cycles
 SCF Done:  E(RB3LYP) =  -529.862096348     A.U. after   10 cycles
 SCF Done:  E(RB3LYP) =  -529.862099718     A.U. after    9 cycles
 SCF Done:  E(RB3LYP) =  -529.862100971     A.U. after    9 cycles
 SCF Done:  E(RB3LYP) =  -529.862101090     A.U. after    7 cycles
 Optimization completed.
    -- Stationary point found.

 1\1\GINC-NODE300\FOpt\RB3LYP\6-31G(d)\C8H10N4\VSC10255\09-Dec-2020\0\\
 # opt freq B3LYP/6-31G(d) empiricaldispersion=gd3bj scf=xqc\\CID_13128
 7456_JID_2987_neutraal\\0,1\C,1.3865104005,-0.0817134287,0.2090475389\
 N,0.5293584179,-0.7932476087,1.1380179244\C,0.2549931617,-2.1718182474
 ,1.1562660016\C,-0.5559699921,-2.3638828412,2.2575656907\N,-0.80154030
 69,-1.1829708117,2.8987418465\C,-0.1388423546,-0.2641798414,2.20380128
 49\N,-0.0498613954,1.0770964894,2.5156617842\C,-0.837442544,1.56268879
 19,3.6201715878\C,-0.2569438727,1.421320649,4.9974503982\C,-0.31589182

 Normal termination of Gaussian 16 at Wed Dec  9 18:28:52 2020.

 --------------------------------------------------------------------
 #N Geom=AllCheck Guess=TCheck SCRF=Check GenChk RB3LYP/6-31G(d) Freq
 --------------------------------------------------------------------

 Structure from the checkpoint file:  "JID_2987.chk"
 -------------------------------
 CID_131287456_JID_2987_neutraal
 -------------------------------
 Charge =  0 Multiplicity = 1

 SCF Done:  E(RB3LYP) =  -529.862101090     A.U. after    1 cycles

  Exact polarizability: 160.144   3.074  97.365   5.924   0.220  60.893
 Approx polarizability: 235.095  16.908 153.945  13.155   2.122  91.156

                      1                      2                      3
                      A                      A                      A
 Frequencies --     45.8569                53.8616                99.0219
 Red. masses --      3.6120                 3.1719                 2.1842
 Frc consts  --      0.0045                 0.0054                 0.0126
 IR Inten    --      0.4866                 0.6834                 0.2631

                      4                      5                      6
                      A                      A                      A
 Frequencies --    110.0321               120.9444               157.5061
 Red. masses --      3.4674                 1.6642                 4.1808
 Frc consts  --      0.0247                 0.0143                 0.0611
 IR Inten    --      3.5226                 1.3568                12.7269

                      7                      8                      9
                      A                      A                      A
 Frequencies --    194.0878               253.3496               298.8500
 Red. masses --      4.6470                 3.8940                 4.6711
 Frc consts  --      0.1031                 0.1473                 0.2458
 IR Inten    --      0.3733                 5.5633                 2.5468

                     10                     11                     12
                      A                      A                      A
 Frequencies --    339.0829               405.8403               449.8935
 Red. masses --      3.1817                 3.0598                 2.2574
 Frc consts  --      0.2155                 0.2969                 0.2692
 IR Inten    --      0.8414                 9.5044                34.7537

                     13                     14                     15
                      A                      A                      A
 Frequencies --    502.5669               538.1225               564.2742
 Red. masses --      8.4594                 5.0140                 2.4412
 Frc consts  --      1.2589                 0.8555                 0.4580
 IR Inten    --      2.6445                25.9653                82.6023

                     16                     17                     18
                      A                      A                      A
 Frequencies --    623.8627               663.4765               707.8519
 Red. masses --      4.3909                 4.2877                 5.2843
 Frc consts  --      1.0069                 1.1120                 1.5600
 IR Inten    --      4.7411                 5.8853                 2.7517

                     19                     20                     21
                      A                      A                      A
 Frequencies --    733.1278               778.4757               821.6146
 Red. masses --      8.2173                 1.1430                 1.7142
 Frc consts  --      2.6022                 0.4081                 0.6818
 IR Inten    --     18.2091                 3.1583                 5.5374

                     22                     23                     24
                      A                      A                      A
 Frequencies --    850.9203               856.8269               864.4057
 Red. masses --      1.3515                 2.7820                 2.1572
 Frc consts  --      0.5765                 1.2033                 0.9497
 IR Inten    --     11.4113                 3.8681                 9.4147

                     25                     26                     27
                      A                      A                      A
 Frequencies --    968.6087              1006.5021              1032.8357
 Red. masses --      3.0662                 2.7863                 1.9669
 Frc consts  --      1.6949                 1.6631                 1.2362
 IR Inten    --      8.4121                11.6660                 8.0726

                     28                     29                     30
                      A                      A                      A
 Frequencies --   1071.1146              1084.7659              1133.5065
 Red. masses --      1.3942                 1.3744                 1.1841
 Frc consts  --      0.9424                 0.9529                 0.8964
 IR Inten    --     13.6661                 1.5518                 0.9827

                     31                     32                     33
                      A                      A                      A
 Frequencies --   1161.2927              1174.7210              1205.0189
 Red. masses --      1.2936                 1.7033                 1.4331
 Frc consts  --      1.0278                 1.3849                 1.2261
 IR Inten    --      1.8734                14.8410                 0.8593

                     34                     35                     36
                      A                      A                      A
 Frequencies --   1209.6086              1211.9189              1245.6324
 Red. masses --      2.8032                 1.9543                 3.0412
 Frc consts  --      2.4165                 1.6911                 2.7802
 IR Inten    --      3.2195                36.5856                16.6047

                     37                     38                     39
                      A                      A                      A
 Frequencies --   1268.9984              1326.9156              1383.9858
 Red. masses --      1.8771                 3.2898                 5.7407
 Frc consts  --      1.7810                 3.4128                 6.4786
 IR Inten    --      5.1061                46.4221                27.2063

                     40                     41                     42
                      A                      A                      A
 Frequencies --   1412.2434              1423.5687              1483.6418
 Red. masses --      1.8627                 1.9602                 1.1399
 Frc consts  --      2.1888                 2.3405                 1.4784
 IR Inten    --     90.5137                61.3501                 3.6713

                     43                     44                     45
                      A                      A                      A
 Frequencies --   1487.8673              1515.6430              1527.6020
 Red. masses --      1.1354                 1.1921                 1.8654
 Frc consts  --      1.4809                 1.6135                 2.5647
 IR Inten    --      2.1064                21.1459                17.4940

                     46                     47                     48
                      A                      A                      A
 Frequencies --   1530.0329              1539.2973              1588.6635
 Red. masses --      1.6164                 1.1279                 4.1360
 Frc consts  --      2.2294                 1.5745                 6.1502
 IR Inten    --     80.5546                 9.1991                75.6602

                     49                     50                     51
                      A                      A                      A
 Frequencies --   1610.5228              2329.7171              3052.0623
 Red. masses --      6.1687                12.6445                 1.0393
 Frc consts  --      9.4271                40.4351                 5.7038
 IR Inten    --    368.1822               138.4413                34.6635

                     52                     53                     54
                      A                      A                      A
 Frequencies --   3118.4233              3137.4522              3154.5335
 Red. masses --      1.1007                 1.0873                 1.0541
 Frc consts  --      6.3065                 6.3060                 6.1804
 IR Inten    --     14.4771                26.7672                15.5060

                     55                     56                     57
                      A                      A                      A
 Frequencies --   3167.7926              3170.3599              3234.5675
 Red. masses --      1.0570                 1.1022                 1.1196
 Frc consts  --      6.2493                 6.5275                 6.9016
 IR Inten    --      6.0362                 1.0012                 5.0428

                     58                     59                     60
                      A                      A                      A
 Frequencies --   3253.7203              3271.4410              3549.5860
 Red. masses --      1.1175                 1.0973                 1.0751
 Frc consts  --      6.9705                 6.9192                 7.9808
 IR Inten    --     14.6002                 3.4886                10.0990

 - Thermochemistry -
 -------------------
 Temperature   298.150 Kelvin.  Pressure   1.00000 Atm.
 Atom     1 has atomic number  6 and mass  12.00000

 Molecular mass:   162.09055 amu.
 Principal axes and moments of inertia in atomic units:
                           1         2         3
     Eigenvalues --   649.445033654.473344156.30106
           X            0.99999   0.00472  -0.00224
           Y           -0.00473   0.99998  -0.00394
           Z            0.00222   0.00396   0.99999
 This molecule is an asymmetric top.
 Rotational symmetry number  1.
 Warning -- assumption of classical behavior for rotation
           may cause significant error
 Rotational temperatures (Kelvin)      0.13337     0.02370     0.02084
 Rotational constants (GHZ):           2.77890     0.49384     0.43422
 Zero-point vibrational energy     467010.3 (Joules/Mol)
                                  111.61813 (Kcal/Mol)
 Warning -- explicit consideration of  15 degrees of freedom as
           vibrations may cause significant error
 Vibrational temperatures:     65.98    77.49   142.47   158.31   174.01
          (Kelvin)            226.62   279.25   364.51   429.98   487.86
                              583.91   647.30   723.08   774.24   811.86
                              897.60   954.59  1018.44  1054.81  1120.05
                             1182.12  1224.28  1232.78  1243.69  1393.61
                             1448.13  1486.02  1541.10  1560.74  1630.86
                             1670.84  1690.16  1733.75  1740.36  1743.68
                             1792.19  1825.81  1909.14  1991.25  2031.90
                             2048.20  2134.63  2140.71  2180.67  2197.88
                             2201.38  2214.71  2285.73  2317.18  3351.94
                             4391.24  4486.72  4514.09  4538.67  4557.75
                             4561.44  4653.82  4681.38  4706.87  5107.06

 Zero-point correction=                           0.177875 (Hartree/Particle)
 Thermal correction to Energy=                    0.189369
 Thermal correction to Enthalpy=                  0.190313
 Thermal correction to Gibbs Free Energy=         0.139450
 Sum of electronic and zero-point Energies=           -529.684226
 Sum of electronic and thermal Energies=              -529.672732
 Sum of electronic and thermal Enthalpies=            -529.671788
 Sum of electronic and thermal Free Energies=         -529.722651

                     E (Thermal)             CV                S
                      KCal/Mol        Cal/Mol-Kelvin    Cal/Mol-Kelvin
 Total                  118.831             41.652            107.050
 Electronic               0.000              0.000              0.000
 Translational            0.889              2.981             41.158
 Rotational               0.889              2.981             30.668
 Vibrational            117.053             35.691             35.225
 Vibration     1          0.595              1.979              4.989
 Vibration     2          0.596              1.976              4.670
 Vibration     3          0.604              1.950              3.473
 Vibration     4          0.606              1.941              3.268
 Vibration     5          0.609              1.932              3.085
 Vibration     6          0.621              1.894              2.580
 Vibration     7          0.635              1.848              2.188
 Vibration     8          0.665              1.757              1.707
 Vibration     9          0.692              1.676              1.423
 Vibration    10          0.719              1.597              1.216
 Vibration    11          0.771              1.458              0.941
 Vibration    12          0.809              1.361              0.796
 Vibration    13          0.858              1.244              0.652
 Vibration    14          0.893              1.166              0.569
 Vibration    15          0.920              1.109              0.515

                           ! Non-Optimized Parameters !

 1\1\GINC-NODE300\Freq\RB3LYP\6-31G(d)\C8H10N4\VSC10255\09-Dec-2020\0\\
 #N Geom=AllCheck Guess=TCheck SCRF=Check GenChk RB3LYP/6-31G(d) Freq\\
 CID_131287456_JID_2987_neutraal\\0,1\C,1.3865104005,-0.0817134287,0.20
 90475389\N,0.5293584179,-0.7932476087,1.1380179244\C,0.2549931617,-2.1
 718182474,1.1562660016\C,-0.5559699921,-2.3638828412,2.2575656907\N,-0
 .8015403069,-1.1829708117,2.8987418465\C,-0.1388423546,-0.2641798414,2
 .2038012849\N,-0.0498613954,1.0770964894,2.5156617842\C,-0.837442544,1
 .5626887919,3.6201715878\C,-0.2569438727,1.421320649,4.9974503982\C,-0

 Normal termination of Gaussian 16 at Wed Dec  9 18:33:30 2020.

 ----------------------------------------------------------------------
 # B3LYP/6-311++G(d,p) empiricaldispersion=gd3bj scf=xqc pop=npa geom=c
 heck
 ----------------------------------------------------------------------

 ---------------------------------------
 CID_131287456_JID_2987_Energie_neutraal
 ---------------------------------------
 Structure from the checkpoint file:  "JID_2987.chk"
 Charge =  0 Multiplicity = 1

 SCF Done:  E(RB3LYP) =  -530.007623438     A.U. after   15 cycles
 Normal termination of Gaussian 16 at Wed Dec  9 18:35:03 2020.

 ----------------------------------------------------------------------
 # B3LYP/6-311++G(d,p) empiricaldispersion=gd3bj scf=xqc pop=npa geom=c
 heck
 ----------------------------------------------------------------------

 -------------------------------------
 CID_131287456_JID_2987_Energie_kation
 -------------------------------------
 Structure from the checkpoint file:  "JID_2987.chk"
 Charge =  1 Multiplicity = 2

 SCF Done:  E(UB3LYP) =  -529.714986102     A.U. after   22 cycles
 Normal termination of Gaussian 16 at Wed Dec  9 18:38:01 2020.
 Gaussian 16:  ES64L-G16RevA.03 25-Dec-2016

 ------------------------------------
 CID_131287456_JID_2987_Energie_anion
 ------------------------------------
 Structure from the checkpoint file:  "JID_2987.chk"
 Charge = -1 Multiplicity = 2

                         Standard orientation:
 ---------------------------------------------------------------------
 Center     Atomic      Atomic             Coordinates (Angstroms)
 Number     Number       Type             X           Y           Z
 ---------------------------------------------------------------------
      1          6           0        1.216876    1.983316    0.074216
      2          7           0        0.984557    0.557536   -0.056769
      3          6           0        1.944925   -0.467967   -0.010920
      4          6           0        1.225139   -1.641645   -0.119543
      5          7           0       -0.111482   -1.388534   -0.243411
      6          6           0       -0.221192   -0.064675   -0.202796
      7          7           0       -1.400978    0.650295   -0.236221
      8          6           0       -2.622696   -0.081239   -0.455970
      9          6           0       -3.280561   -0.703011    0.741725
     10          6           0       -3.882537    0.524398    0.102459
     11          6           0        3.320544   -0.206021    0.124828
     12          7           0        4.455326    0.038228    0.242135
     13          1           0        1.120919    2.494773   -0.891142
     14          1           0        2.228218    2.143238    0.451094
     15          1           0        0.498090    2.407294    0.781954
     16          1           0        1.617175   -2.649177   -0.121714
     17          1           0       -1.345738    1.525896   -0.745373
     18          1           0       -2.686458   -0.628857   -1.395683
     19          1           0       -3.769312   -1.662028    0.603976
     20          1           0       -2.775757   -0.579606    1.694024
     21          1           0       -3.787518    1.465423    0.636506
     22          1           0       -4.794551    0.421422   -0.477774
 ---------------------------------------------------------------------

 SCF Done:  E(UB3LYP) =  -530.000049852     A.U. after   31 cycles

 The electronic state is 2-A.
 Alpha  occ. eigenvalues --  -14.28016 -14.23763 -14.21929 -14.20268 -10.17306
 Alpha  occ. eigenvalues --  -10.13243 -10.12157 -10.11326 -10.11166 -10.11156
 Alpha  occ. eigenvalues --  -10.07645 -10.07610  -0.94309  -0.84473  -0.81377
 Alpha  occ. eigenvalues --   -0.80096  -0.74941  -0.67278  -0.62434  -0.55246
 Alpha  occ. eigenvalues --   -0.53151  -0.50940  -0.47406  -0.45496  -0.43471
 Alpha  occ. eigenvalues --   -0.41755  -0.38758  -0.38028  -0.36139  -0.34243
 Alpha  occ. eigenvalues --   -0.31668  -0.31203  -0.30672  -0.27752  -0.27346
 Alpha  occ. eigenvalues --   -0.27195  -0.25145  -0.23092  -0.20571  -0.19303
 Alpha  occ. eigenvalues --   -0.18658  -0.18369  -0.11624   0.04451
 Alpha virt. eigenvalues --    0.06631   0.07179   0.08247   0.08439   0.09505
 Alpha virt. eigenvalues --    0.09742   0.10298   0.10676   0.11461   0.12357
 Alpha virt. eigenvalues --    0.12492   0.13590   0.14346   0.14445   0.14718

  Beta  occ. eigenvalues --  -14.28004 -14.23715 -14.21908 -14.20269 -10.17299
  Beta  occ. eigenvalues --  -10.13236 -10.12153 -10.11316 -10.11138 -10.11082
  Beta  occ. eigenvalues --  -10.07619 -10.07594  -0.94281  -0.84415  -0.81345
  Beta  occ. eigenvalues --   -0.80069  -0.74907  -0.67231  -0.62342  -0.55196
  Beta  occ. eigenvalues --   -0.53116  -0.50865  -0.47339  -0.45424  -0.43390
  Beta  occ. eigenvalues --   -0.41711  -0.38699  -0.37964  -0.36083  -0.34207
  Beta  occ. eigenvalues --   -0.31606  -0.31128  -0.30612  -0.27713  -0.27306
  Beta  occ. eigenvalues --   -0.27133  -0.25124  -0.23043  -0.20542  -0.19265
  Beta  occ. eigenvalues --   -0.18623  -0.18317  -0.11555
  Beta virt. eigenvalues --    0.06790   0.07303   0.08135   0.08456   0.08993
  Beta virt. eigenvalues --    0.09725   0.10049   0.10751   0.11526   0.11915
  Beta virt. eigenvalues --    0.12611   0.12993   0.13812   0.14441   0.14736

 Mulliken charges and spin densities:
               1          2
     1  C    1.766955  -2.187930
     2  N   -0.221411   0.218685
     3  C    1.416806   0.054099
     4  C   -0.278896   0.310087
     5  N   -0.041016  -0.024459
     6  C    0.239278  -0.293498
     7  N   -0.257581   0.126483
     8  C   -1.036198   0.828931
     9  C   -0.480594   0.231831
    10  C    1.077732  -1.388390
    11  C   -0.673510  -0.959714
    12  N   -0.266275   0.008258
    13  H   -0.966442   1.190159
    14  H   -0.040979   0.202305
    15  H   -0.535729   0.726451
    16  H    0.114250   0.040915
    17  H   -0.368499   0.669545
    18  H   -0.165621   0.385004
    19  H    0.045210   0.082931
    20  H    0.126446   0.025731
    21  H   -0.269112   0.428130
    22  H   -0.184816   0.324447
 Sum of Mulliken charges =  -1.00000   1.00000

 Dipole moment (field-independent basis, Debye):
    X=             -0.0817    Y=             -6.9739    Z=              2.3705  Tot=              7.3663
 Quadrupole moment (field-independent basis, Debye-Ang):
   XX=           -141.6862   YY=           -115.6733   ZZ=            -97.5855
   XY=              2.2780   XZ=             -3.3331   YZ=              5.3383

 Summary of Natural Population Analysis:

                                       Natural Population
                Natural  -----------------------------------------------
    Atom  No    Charge         Core      Valence    Rydberg      Total
 -----------------------------------------------------------------------
      C    1   -0.18092      0.99963     2.17259    0.00870     3.18092
      N    2   -0.20271      0.99961     2.69201    0.01110     3.70271
      C    3   -0.02918      0.99942     2.01973    0.01004     3.02918
      C    4    0.01431      0.99955     1.97369    0.01244     2.98569
      N    5   -0.27552      0.99969     2.76689    0.00893     3.77552
      C    6    0.30664      0.99959     1.67666    0.01711     2.69336
      N    7   -0.32258      0.99966     2.81048    0.01244     3.82258
      C    8   -0.01931      0.99957     2.00481    0.01494     3.01931
      C    9   -0.19392      0.99962     2.18662    0.00769     3.19392
      C   10   -0.19822      0.99962     2.18866    0.00994     3.19822
      C   11    0.13939      0.99963     1.84511    0.01587     2.86061
      N   12   -0.18230      0.99979     2.67366    0.00885     3.68230
      H   13    0.10945      0.00000     0.38312    0.00742     0.39055
      H   14    0.10690      0.00000     0.39181    0.00128     0.39310
      H   15    0.10817      0.00000     0.38936    0.00247     0.39183
      H   16    0.09735      0.00000     0.40182    0.00083     0.40265
      H   17    0.20453      0.00000     0.27882    0.01665     0.29547
      H   18    0.09897      0.00000     0.39945    0.00158     0.40103
      H   19    0.10067      0.00000     0.39846    0.00087     0.39933
      H   20    0.10568      0.00000     0.39322    0.00110     0.39432
      H   21    0.10921      0.00000     0.38930    0.00149     0.39079
      H   22    0.10338      0.00000     0.39524    0.00137     0.39662
 =======================================================================
   * Total *   -0.00000     11.99537    30.83151    0.17312    43.00000

 Normal termination of Gaussian 16 at Wed Dec  9 18:42:09 2020.
