 Gaussian 16, Revision A.03,

 -----------------------------------------------------------
 # opt freq B3LYP/6-31G(d) empiricaldispersion=gd3bj scf=xqc
 -----------------------------------------------------------

 ------------------------------
 CID_61212357_JID_9241_neutraal
 ------------------------------
 Symbolic Z-matrix:
 Charge =  0 Multiplicity = 1

 SCF Done:  E(RB3LYP) =  -1308.76149398     A.U. after   15 cycles
 SCF Done:  E(RB3LYP) =  -1308.77025896     A.U. after   13 cycles
 SCF Done:  E(RB3LYP) =  -1308.76840902     A.U. after   14 cycles
 SCF Done:  E(RB3LYP) =  -1308.77192062     A.U. after   12 cycles
 SCF Done:  E(RB3LYP) =  -1308.77250279     A.U. after   12 cycles
 SCF Done:  E(RB3LYP) =  -1308.77278637     A.U. after   12 cycles
 SCF Done:  E(RB3LYP) =  -1308.77299963     A.U. after   12 cycles
 SCF Done:  E(RB3LYP) =  -1308.77323589     A.U. after   12 cycles
 SCF Done:  E(RB3LYP) =  -1308.77369032     A.U. after   14 cycles
 SCF Done:  E(RB3LYP) =  -1308.77384060     A.U. after   12 cycles
 SCF Done:  E(RB3LYP) =  -1308.77648130     A.U. after   10 cycles
 SCF Done:  E(RB3LYP) =  -1308.77648670     A.U. after   10 cycles
 SCF Done:  E(RB3LYP) =  -1308.77648860     A.U. after    8 cycles
 SCF Done:  E(RB3LYP) =  -1308.77649100     A.U. after   10 cycles
 SCF Done:  E(RB3LYP) =  -1308.77649144     A.U. after    8 cycles
 Optimization completed.
    -- Stationary point found.
 Normal termination of Gaussian 16 at Sun Dec 13 20:31:12 2020.

 --------------------------------------------------------------------
 #N Geom=AllCheck Guess=TCheck SCRF=Check GenChk RB3LYP/6-31G(d) Freq
 --------------------------------------------------------------------

 Structure from the checkpoint file:  "JID_9241.chk"
 ------------------------------
 CID_61212357_JID_9241_neutraal
 ------------------------------
 Charge =  0 Multiplicity = 1

 SCF Done:  E(RB3LYP) =  -1308.77649144     A.U. after    1 cycles

  Exact polarizability: 189.682  -2.879 163.940 -14.281  -5.304 112.120
 Approx polarizability: 247.172  -3.558 260.429 -28.376 -21.860 191.639

                      1                      2                      3
                      A                      A                      A
 Frequencies --     24.4809                33.8936                41.7463
 Red. masses --      5.6259                 5.8097                 4.6102
 Frc consts  --      0.0020                 0.0039                 0.0047
 IR Inten    --      0.0986                 0.3493                 0.1208

                      4                      5                      6
                      A                      A                      A
 Frequencies --     58.7101                96.8947               122.6270
 Red. masses --      7.2014                 4.7139                 7.2717
 Frc consts  --      0.0146                 0.0261                 0.0644
 IR Inten    --      1.5920                 1.1349                 2.0786

                      7                      8                      9
                      A                      A                      A
 Frequencies --    130.1403               158.9694               182.5636
 Red. masses --      7.0344                 2.4641                 4.3843
 Frc consts  --      0.0702                 0.0367                 0.0861
 IR Inten    --      1.5782                 0.6373                 1.5420

                     10                     11                     12
                      A                      A                      A
 Frequencies --    191.5079               213.4578               237.8907
 Red. masses --      5.7356                 4.3183                 3.3671
 Frc consts  --      0.1239                 0.1159                 0.1123
 IR Inten    --      0.3238                 1.1765                 0.7209

                     13                     14                     15
                      A                      A                      A
 Frequencies --    251.1009               262.6410               290.2533
 Red. masses --      1.8850                 2.2937                 1.9723
 Frc consts  --      0.0700                 0.0932                 0.0979
 IR Inten    --      1.2424                 3.3209                 1.7695

                     16                     17                     18
                      A                      A                      A
 Frequencies --    309.1005               319.8353               363.5952
 Red. masses --      3.8879                 9.9663                 6.4815
 Frc consts  --      0.2189                 0.6007                 0.5049
 IR Inten    --      6.6160                 1.0678                 2.8883

                     19                     20                     21
                      A                      A                      A
 Frequencies --    379.7508               391.8933               429.3610
 Red. masses --      2.3213                 2.7715                 2.7570
 Frc consts  --      0.1972                 0.2508                 0.2995
 IR Inten    --     13.6860                 2.0695                 1.9610

                     22                     23                     24
                      A                      A                      A
 Frequencies --    439.1017               451.8969               471.6070
 Red. masses --      5.7199                 3.5842                 2.4356
 Frc consts  --      0.6498                 0.4312                 0.3192
 IR Inten    --     29.3764                 4.3272                17.3091

                     25                     26                     27
                      A                      A                      A
 Frequencies --    498.7651               543.7030               575.7992
 Red. masses --      3.9253                 3.1586                 2.6456
 Frc consts  --      0.5753                 0.5501                 0.5168
 IR Inten    --     23.5416                51.4512                36.5108

                     28                     29                     30
                      A                      A                      A
 Frequencies --    584.5890               605.2881               620.3455
 Red. masses --      1.8567                 7.8294                 2.7557
 Frc consts  --      0.3739                 1.6901                 0.6248
 IR Inten    --     31.5166                95.9293                11.5219

                     31                     32                     33
                      A                      A                      A
 Frequencies --    640.4011               674.8163               707.7535
 Red. masses --      2.5045                 3.5095                 4.0261
 Frc consts  --      0.6052                 0.9416                 1.1882
 IR Inten    --     24.5453                32.4055                57.9585

                     34                     35                     36
                      A                      A                      A
 Frequencies --    717.1687               778.4530               802.6152
 Red. masses --      1.6017                 5.2357                 2.4904
 Frc consts  --      0.4854                 1.8694                 0.9452
 IR Inten    --     57.0028                55.3029                27.9663

                     37                     38                     39
                      A                      A                      A
 Frequencies --    877.8452               886.2727               891.1845
 Red. masses --      2.6746                 1.7199                 2.2287
 Frc consts  --      1.2143                 0.7959                 1.0429
 IR Inten    --    109.8104                12.6048                36.4447

                     40                     41                     42
                      A                      A                      A
 Frequencies --    907.7773               926.3226               962.7226
 Red. masses --      1.3696                 2.3614                 5.1761
 Frc consts  --      0.6650                 1.1938                 2.8266
 IR Inten    --     13.6090                16.4771                31.6544

                     43                     44                     45
                      A                      A                      A
 Frequencies --    993.8841              1006.6139              1047.0522
 Red. masses --      1.8128                 1.8828                 1.9290
 Frc consts  --      1.0550                 1.1240                 1.2460
 IR Inten    --     23.0400                 8.4351                19.3095

                     46                     47                     48
                      A                      A                      A
 Frequencies --   1082.3093              1087.3166              1094.0124
 Red. masses --      7.0758                 2.2744                 2.5947
 Frc consts  --      4.8835                 1.5843                 1.8297
 IR Inten    --    228.0413                 2.3091                33.9062

                     49                     50                     51
                      A                      A                      A
 Frequencies --   1124.3731              1130.7042              1132.2170
 Red. masses --      3.1121                 3.1955                 2.3727
 Frc consts  --      2.3181                 2.4071                 1.7921
 IR Inten    --     59.0733               106.7702                18.7376

                     52                     53                     54
                      A                      A                      A
 Frequencies --   1143.1275              1175.0420              1179.0354
 Red. masses --      2.7400                 3.2661                 1.7749
 Frc consts  --      2.1096                 2.6570                 1.4537
 IR Inten    --     22.3227               129.8036                33.9103

                     55                     56                     57
                      A                      A                      A
 Frequencies --   1186.7029              1203.4817              1228.2597
 Red. masses --      1.2331                 2.3394                 1.5986
 Frc consts  --      1.0232                 1.9964                 1.4209
 IR Inten    --      8.3075                20.3578                51.5531

                     58                     59                     60
                      A                      A                      A
 Frequencies --   1241.5439              1285.1676              1293.4395
 Red. masses --      1.5708                 2.0724                 1.5921
 Frc consts  --      1.4266                 2.0167                 1.5694
 IR Inten    --      8.7148                79.7800                 8.8223

                     61                     62                     63
                      A                      A                      A
 Frequencies --   1301.8751              1330.3389              1334.6145
 Red. masses --      1.5814                 2.6642                 1.5660
 Frc consts  --      1.5791                 2.7781                 1.6434
 IR Inten    --      7.7645                14.9696                 6.2268

                     64                     65                     66
                      A                      A                      A
 Frequencies --   1338.7345              1347.7031              1358.6812
 Red. masses --      2.8159                 1.5745                 1.2795
 Frc consts  --      2.9735                 1.6850                 1.3916
 IR Inten    --     82.2932                55.2574                 5.5673

                     67                     68                     69
                      A                      A                      A
 Frequencies --   1393.2462              1399.6622              1414.9913
 Red. masses --      1.4055                 1.3924                 1.4666
 Frc consts  --      1.6075                 1.6072                 1.7301
 IR Inten    --      6.4677                 1.8939                10.1776

                     70                     71                     72
                      A                      A                      A
 Frequencies --   1425.5011              1435.4072              1442.3840
 Red. masses --      5.6440                 1.5516                 5.1598
 Frc consts  --      6.7572                 1.8835                 6.3248
 IR Inten    --     12.6237                25.7417                34.2036

                     73                     74                     75
                      A                      A                      A
 Frequencies --   1471.0922              1485.1618              1500.3771
 Red. masses --      1.3702                 1.1947                 2.8013
 Frc consts  --      1.7471                 1.5525                 3.7155
 IR Inten    --     83.0053                 1.7152                66.2677

                     76                     77                     78
                      A                      A                      A
 Frequencies --   1510.4422              1515.7959              1520.4700
 Red. masses --      1.0892                 1.0614                 1.0870
 Frc consts  --      1.4641                 1.4369                 1.4806
 IR Inten    --      6.4195                13.5435                 2.0759

                     79                     80                     81
                      A                      A                      A
 Frequencies --   1521.5171              1537.3545              1540.5277
 Red. masses --      1.1025                 1.0522                 1.1059
 Frc consts  --      1.5038                 1.4652                 1.5463
 IR Inten    --      2.7950                 2.5772                 8.2229

                     82                     83                     84
                      A                      A                      A
 Frequencies --   1594.8744              1828.4259              2886.5505
 Red. masses --      5.4925                 9.9474                 1.0733
 Frc consts  --      8.2313                19.5936                 5.2691
 IR Inten    --     47.1951               385.1941                40.7397

                     85                     86                     87
                      A                      A                      A
 Frequencies --   2904.1826              2944.1219              3018.9317
 Red. masses --      1.0727                 1.0615                 1.0692
 Frc consts  --      5.3305                 5.4210                 5.7416
 IR Inten    --     78.7680               116.3475                28.7906

                     88                     89                     90
                      A                      A                      A
 Frequencies --   3055.8201              3078.7259              3083.1069
 Red. masses --      1.0616                 1.0732                 1.0838
 Frc consts  --      5.8406                 5.9933                 6.0698
 IR Inten    --     20.3558                23.4881                62.5262

                     91                     92                     93
                      A                      A                      A
 Frequencies --   3097.8414              3102.1931              3107.6226
 Red. masses --      1.0963                 1.1023                 1.0872
 Frc consts  --      6.1984                 6.2500                 6.1863
 IR Inten    --     25.8528                31.6319                17.5438

                     94                     95                     96
                      A                      A                      A
 Frequencies --   3124.0987              3163.5762              3285.7797
 Red. masses --      1.1040                 1.0853                 1.0973
 Frc consts  --      6.3484                 6.3994                 6.9799
 IR Inten    --     35.7765                 2.0599                 0.3517

                     97                     98                     99
                      A                      A                      A
 Frequencies --   3544.7633              3631.5583              3694.8410
 Red. masses --      1.0751                 1.0818                 1.0642
 Frc consts  --      7.9591                 8.4062                 8.5595
 IR Inten    --     32.4655               140.3482                67.4851

 - Thermochemistry -
 -------------------
 Temperature   298.150 Kelvin.  Pressure   1.00000 Atm.
 Atom     1 has atomic number  6 and mass  12.00000

 Molecular mass:   288.08923 amu.
 Principal axes and moments of inertia in atomic units:
                           1         2         3
     Eigenvalues --  3151.898327783.722499819.97273
           X            0.99998   0.00597   0.00340
           Y           -0.00600   0.99992   0.01142
           Z           -0.00333  -0.01144   0.99993
 This molecule is an asymmetric top.
 Rotational symmetry number  1.
 Warning -- assumption of classical behavior for rotation
           may cause significant error
 Rotational temperatures (Kelvin)      0.02748     0.01113     0.00882
 Rotational constants (GHZ):           0.57259     0.23186     0.18378
 Zero-point vibrational energy     741457.5 (Joules/Mol)
                                  177.21260 (Kcal/Mol)
 Warning -- explicit consideration of  30 degrees of freedom as
           vibrations may cause significant error
 Vibrational temperatures:     35.22    48.77    60.06    84.47   139.41
          (Kelvin)            176.43   187.24   228.72   262.67   275.54
                              307.12   342.27   361.28   377.88   417.61
                              444.73   460.17   523.13   546.38   563.85
                              617.75   631.77   650.18   678.54   717.61
                              782.27   828.45   841.09   870.87   892.54
                              921.39   970.91  1018.30  1031.85  1120.02
                             1154.78  1263.02  1275.15  1282.22  1306.09
                             1332.77  1385.14  1429.98  1448.29  1506.47
                             1557.20  1564.41  1574.04  1617.72  1626.83
                             1629.01  1644.71  1690.62  1696.37  1707.40
                             1731.54  1767.19  1786.30  1849.07  1860.97
                             1873.11  1914.06  1920.21  1926.14  1939.04
                             1954.84  2004.57  2013.80  2035.86  2050.98
                             2065.23  2075.27  2116.57  2136.82  2158.71
                             2173.19  2180.89  2187.62  2189.12  2211.91
                             2216.48  2294.67  2630.70  4153.10  4178.47
                             4235.93  4343.57  4396.64  4429.60  4435.90
                             4457.10  4463.36  4471.18  4494.88  4551.68
                             4727.50  5100.12  5225.00  5316.05

 Zero-point correction=                           0.282406 (Hartree/Particle)
 Thermal correction to Energy=                    0.300423
 Thermal correction to Enthalpy=                  0.301368
 Thermal correction to Gibbs Free Energy=         0.235114
 Sum of electronic and zero-point Energies=          -1308.494085
 Sum of electronic and thermal Energies=             -1308.476068
 Sum of electronic and thermal Enthalpies=           -1308.475124
 Sum of electronic and thermal Free Energies=        -1308.541377

                     E (Thermal)             CV                S
                      KCal/Mol        Cal/Mol-Kelvin    Cal/Mol-Kelvin
 Total                  188.519             68.279            139.442
 Electronic               0.000              0.000              0.000
 Translational            0.889              2.981             42.872
 Rotational               0.889              2.981             33.843
 Vibrational            186.741             62.317             62.727
 Vibration     1          0.593              1.985              6.233
 Vibration     2          0.594              1.983              5.587
 Vibration     3          0.594              1.980              5.174
 Vibration     4          0.596              1.974              4.500
 Vibration     5          0.603              1.951              3.516
 Vibration     6          0.610              1.930              3.059
 Vibration     7          0.612              1.923              2.944
 Vibration     8          0.621              1.893              2.562
 Vibration     9          0.630              1.864              2.302
 Vibration    10          0.634              1.852              2.213
 Vibration    11          0.644              1.820              2.014
 Vibration    12          0.656              1.783              1.819
 Vibration    13          0.663              1.761              1.723
 Vibration    14          0.670              1.741              1.644
 Vibration    15          0.686              1.692              1.472
 Vibration    16          0.698              1.656              1.367
 Vibration    17          0.706              1.636              1.311
 Vibration    18          0.737              1.547              1.107
 Vibration    19          0.750              1.513              1.040
 Vibration    20          0.759              1.488              0.993
 Vibration    21          0.791              1.406              0.861
 Vibration    22          0.799              1.385              0.829
 Vibration    23          0.811              1.357              0.790
 Vibration    24          0.829              1.313              0.733
 Vibration    25          0.854              1.253              0.661
 Vibration    26          0.899              1.153              0.557
 Vibration    27          0.932              1.084              0.493
 Vibration    28          0.942              1.065              0.477
 Vibration    29          0.964              1.021              0.441
 Vibration    30          0.980              0.989              0.416

                           ! Non-Optimized Parameters !
 Normal termination of Gaussian 16 at Sun Dec 13 20:50:11 2020.

 ----------------------------------------------------------------------
 # B3LYP/6-311++G(d,p) empiricaldispersion=gd3bj scf=xqc pop=npa geom=c
 heck
 ----------------------------------------------------------------------

 --------------------------------------
 CID_61212357_JID_9241_Energie_neutraal
 --------------------------------------
 Structure from the checkpoint file:  "JID_9241.chk"
 Charge =  0 Multiplicity = 1

 SCF Done:  E(RB3LYP) =  -1309.07158210     A.U. after   17 cycles
 Normal termination of Gaussian 16 at Sun Dec 13 20:59:32 2020.

 ----------------------------------------------------------------------
 # B3LYP/6-311++G(d,p) empiricaldispersion=gd3bj scf=xqc pop=npa geom=c
 heck
 ----------------------------------------------------------------------

 ------------------------------------
 CID_61212357_JID_9241_Energie_kation
 ------------------------------------
 Structure from the checkpoint file:  "JID_9241.chk"
 Charge =  1 Multiplicity = 2

 SCF Done:  E(UB3LYP) =  -1308.76074577     A.U. after   27 cycles
 Normal termination of Gaussian 16 at Sun Dec 13 21:21:42 2020.
 Gaussian 16:  ES64L-G16RevA.03 25-Dec-2016

 ----------------------------------------------------------------------
 # B3LYP/6-311++G(d,p) empiricaldispersion=gd3bj scf=xqc pop=npa geom=c
 heck
 ----------------------------------------------------------------------

 -----------------------------------
 CID_61212357_JID_9241_Energie_anion
 -----------------------------------
 Structure from the checkpoint file:  "JID_9241.chk"
 Charge = -1 Multiplicity = 2

                         Standard orientation:
 ---------------------------------------------------------------------
 Center     Atomic      Atomic             Coordinates (Angstroms)
 Number     Number       Type             X           Y           Z
 ---------------------------------------------------------------------
      1          6           0        3.927703    2.218547    0.956972
      2          7           0        3.385129    1.080070    0.232538
      3          6           0        4.381190    0.022075    0.066288
      4          6           0        3.835541   -1.106874   -0.809072
      5          6           0        2.532771   -1.669304   -0.228714
      6          6           0        1.544191   -0.528697    0.018549
      7          6           0        2.174147    0.576440    0.869412
      8          7           0        0.306862   -0.976664    0.683699
      9         16           0       -0.984597   -1.518646   -0.209819
     10          8           0       -0.670533   -1.442940   -1.631723
     11          8           0       -1.465963   -2.757124    0.420179
     12          6           0       -2.288818   -0.355331    0.142512
     13          6           0       -2.519084    1.005490   -0.061684
     14          6           0       -3.829123    1.209464    0.439594
     15          7           0       -4.366454    0.086827    0.908958
     16          7           0       -3.411326   -0.843977    0.715491
     17          6           0       -1.682035    2.063136   -0.629310
     18          8           0       -2.038787    3.214374   -0.772248
     19          8           0       -0.444052    1.631749   -0.979658
     20          1           0        4.246378    1.965324    1.987069
     21          1           0        4.795999    2.615912    0.421025
     22          1           0        3.172877    3.009487    1.021186
     23          1           0        5.271423    0.462039   -0.396847
     24          1           0        4.695958   -0.388551    1.049059
     25          1           0        4.586177   -1.899899   -0.901386
     26          1           0        3.647433   -0.713743   -1.815497
     27          1           0        2.743073   -2.175458    0.725859
     28          1           0        2.085134   -2.408690   -0.901317
     29          1           0        1.244381   -0.094938   -0.934474
     30          1           0        2.378620    0.184120    1.889546
     31          1           0        1.454960    1.393967    0.973199
     32          1           0        0.438865   -1.586460    1.486926
     33          1           0       -4.375377    2.141559    0.465389
     34          1           0       -3.555693   -1.810978    0.979213
     35          1           0        0.019653    2.402724   -1.356329
 ---------------------------------------------------------------------

 SCF Done:  E(UB3LYP) =  -1309.08140037     A.U. after   33 cycles
 SCF Done:  E(UB3LYP) =  -1309.08140037     a.u. after    1 cycles

 The electronic state is 2-A.
 Alpha  occ. eigenvalues --  -88.95791 -19.03720 -19.00950 -19.00717 -18.96292
 Alpha  occ. eigenvalues --  -14.26030 -14.23843 -14.22375 -14.21845 -10.15355
 Alpha  occ. eigenvalues --  -10.11397 -10.10857 -10.10753 -10.10324 -10.09377
 Alpha  occ. eigenvalues --  -10.08239 -10.07935 -10.07529 -10.05153  -8.01792
 Alpha  occ. eigenvalues --   -5.98111  -5.98060  -5.97890  -1.01416  -0.97366
 Alpha  occ. eigenvalues --   -0.93319  -0.90387  -0.87992  -0.85192  -0.82532
 Alpha  occ. eigenvalues --   -0.71326  -0.70767  -0.67980  -0.66454  -0.61297
 Alpha  occ. eigenvalues --   -0.57747  -0.54651  -0.53659  -0.52558  -0.49331
 Alpha  occ. eigenvalues --   -0.48412  -0.46623  -0.43569  -0.41910  -0.40522
 Alpha  occ. eigenvalues --   -0.38936  -0.37974  -0.36718  -0.36317  -0.35429
 Alpha  occ. eigenvalues --   -0.35024  -0.34380  -0.33947  -0.33643  -0.33288
 Alpha  occ. eigenvalues --   -0.31862  -0.31173  -0.31025  -0.30613  -0.28771
 Alpha  occ. eigenvalues --   -0.27688  -0.26958  -0.25912  -0.24726  -0.24168
 Alpha  occ. eigenvalues --   -0.23968  -0.22275  -0.20804  -0.20661  -0.19784
 Alpha  occ. eigenvalues --   -0.18471  -0.17734  -0.15195  -0.14910  -0.14116
 Alpha  occ. eigenvalues --   -0.13859   0.03909
 Alpha virt. eigenvalues --    0.05307   0.06856   0.07346   0.08590   0.09255
 Alpha virt. eigenvalues --    0.09925   0.10085   0.10278   0.10895   0.11339
 Alpha virt. eigenvalues --    0.11721   0.12177   0.12758   0.12963   0.13453

  Beta  occ. eigenvalues --  -88.95782 -19.03659 -19.00919 -19.00654 -18.96006
  Beta  occ. eigenvalues --  -14.25740 -14.23794 -14.22370 -14.21884 -10.15101
  Beta  occ. eigenvalues --  -10.11381 -10.10841 -10.10744 -10.10323 -10.08974
  Beta  occ. eigenvalues --  -10.08227 -10.07932 -10.07521 -10.05076  -8.01782
  Beta  occ. eigenvalues --   -5.98093  -5.98025  -5.97894  -1.01271  -0.97085
  Beta  occ. eigenvalues --   -0.93013  -0.90275  -0.87570  -0.85171  -0.82451
  Beta  occ. eigenvalues --   -0.71093  -0.70599  -0.67568  -0.66355  -0.61274
  Beta  occ. eigenvalues --   -0.57406  -0.54242  -0.53629  -0.52425  -0.49181
  Beta  occ. eigenvalues --   -0.48320  -0.46458  -0.43350  -0.41857  -0.40356
  Beta  occ. eigenvalues --   -0.38883  -0.37933  -0.36560  -0.36153  -0.35220
  Beta  occ. eigenvalues --   -0.34871  -0.34247  -0.33767  -0.33360  -0.32591
  Beta  occ. eigenvalues --   -0.31799  -0.31085  -0.30653  -0.29931  -0.28737
  Beta  occ. eigenvalues --   -0.27538  -0.26800  -0.25844  -0.24683  -0.24128
  Beta  occ. eigenvalues --   -0.23880  -0.22133  -0.20575  -0.20416  -0.18813
  Beta  occ. eigenvalues --   -0.18341  -0.17516  -0.14649  -0.14190  -0.13951
  Beta  occ. eigenvalues --   -0.12651
  Beta virt. eigenvalues --    0.05714   0.07027   0.07412   0.08565   0.09393
  Beta virt. eigenvalues --    0.09710   0.09901   0.10105   0.10238   0.10972
  Beta virt. eigenvalues --    0.11353   0.12169   0.12481   0.12775   0.12994

 Mulliken charges and spin densities:
               1          2
     1  C   -0.065505  -0.213146
     2  N    0.095940   0.081660
     3  C    0.205032  -0.545901
     4  C   -0.195531  -0.196877
     5  C   -0.076679   0.152077
     6  C   -0.925817   0.032002
     7  C   -0.406203  -0.227217
     8  N   -0.006002   0.031138
     9  S    0.538177   0.104235
    10  O   -0.115995  -0.027284
    11  O   -0.208783   0.002616
    12  C   -1.142545   0.133409
    13  C    0.765858   0.143806
    14  C   -0.096851   0.024894
    15  N   -0.204993  -0.007596
    16  N   -0.006138   0.101852
    17  C   -0.318755   0.149301
    18  O   -0.381412   0.096801
    19  O   -0.268996   0.011378
    20  H    0.016837   0.082430
    21  H    0.005672   0.123121
    22  H    0.113979   0.016657
    23  H   -0.204330   0.368156
    24  H    0.053862   0.050535
    25  H   -0.199345   0.381301
    26  H    0.167928  -0.029407
    27  H    0.070164   0.046412
    28  H    0.148660   0.042822
    29  H    0.243905   0.028451
    30  H    0.054467   0.032311
    31  H    0.279435  -0.014746
    32  H    0.298532   0.011366
    33  H    0.174859  -0.001259
    34  H    0.313414  -0.006038
    35  H    0.277157   0.020739
 Sum of Mulliken charges =  -1.00000   1.00000

 Dipole moment (field-independent basis, Debye):
    X=              4.4157    Y=             -1.4498    Z=              2.4656  Tot=              5.2611
 Quadrupole moment (field-independent basis, Debye-Ang):
   XX=           -193.1936   YY=           -156.9770   ZZ=           -136.5137
   XY=              9.2831   XZ=              2.2442   YZ=             -1.1265

 Summary of Natural Population Analysis:

                                       Natural Population
                Natural  -----------------------------------------------
    Atom  No    Charge         Core      Valence    Rydberg      Total
 -----------------------------------------------------------------------
      C    1   -0.17369      0.99966     2.16743    0.00660     3.17369
      N    2   -0.27841      0.99971     2.76737    0.01133     3.77841
      C    3   -0.08593      0.99962     2.07255    0.01376     3.08593
      C    4   -0.19601      0.99963     2.18700    0.00938     3.19601
      C    5   -0.19617      0.99960     2.18654    0.01003     3.19617
      C    6   -0.02262      0.99956     2.01037    0.01269     3.02262
      C    7   -0.08433      0.99959     2.07437    0.01037     3.08433
      N    8   -0.43326      0.99972     2.91940    0.01414     3.93326
      S    9    1.12089      4.99920     1.77700    0.10291     6.87911
      O   10   -0.45150      0.99990     3.44589    0.00571     4.45150
      O   11   -0.48065      0.99991     3.47575    0.00499     4.48065
      C   12    0.04300      0.99936     1.94122    0.01642     2.95700
      C   13   -0.11566      0.99940     2.10588    0.01037     3.11566
      C   14    0.00523      0.99962     1.97988    0.01527     2.99477
      N   15   -0.16876      0.99974     2.65468    0.01434     3.66876
      N   16   -0.12966      0.99964     2.61748    0.01255     3.62966
      C   17    0.42561      0.99965     1.55201    0.02273     2.57439
      O   18   -0.29993      0.99987     3.29433    0.00573     4.29993
      O   19   -0.35180      0.99988     3.34508    0.00684     4.35180
      H   20    0.07815      0.00000     0.42012    0.00173     0.42185
      H   21    0.09424      0.00000     0.40461    0.00115     0.40576
      H   22    0.09583      0.00000     0.40305    0.00112     0.40417
      H   23    0.09714      0.00000     0.40147    0.00138     0.40286
      H   24    0.07641      0.00000     0.42182    0.00177     0.42359
      H   25    0.10024      0.00000     0.39874    0.00102     0.39976
      H   26    0.09989      0.00000     0.39874    0.00137     0.40011
      H   27    0.08981      0.00000     0.40881    0.00138     0.41019
      H   28    0.10854      0.00000     0.39005    0.00141     0.39146
      H   29    0.12067      0.00000     0.37648    0.00285     0.37933
      H   30    0.07410      0.00000     0.42428    0.00162     0.42590
      H   31    0.10836      0.00000     0.38998    0.00166     0.39164
      H   32    0.19506      0.00000     0.30304    0.00190     0.30494
      H   33    0.09988      0.00000     0.39896    0.00116     0.40012
      H   34    0.20231      0.00000     0.29618    0.00151     0.29769
      H   35    0.23302      0.00000     0.26273    0.00425     0.26698
 =======================================================================
   * Total *   -0.00000     22.99326    52.67331    0.33342    76.00000

 Normal termination of Gaussian 16 at Sun Dec 13 21:48:26 2020.
