 Gaussian 16, Revision A.03,

 -----------------------------------------------------------
 # opt freq B3LYP/6-31G(d) empiricaldispersion=gd3bj scf=xqc
 -----------------------------------------------------------

 ------------------------------
 CID_80029526_JID_5066_neutraal
 ------------------------------
 Symbolic Z-matrix:
 Charge =  0 Multiplicity = 1

 SCF Done:  E(RB3LYP) =  -666.504985197     A.U. after   15 cycles
 SCF Done:  E(RB3LYP) =  -666.510491314     A.U. after   13 cycles
 SCF Done:  E(RB3LYP) =  -666.511170478     A.U. after   12 cycles
 SCF Done:  E(RB3LYP) =  -666.511365178     A.U. after   11 cycles
 SCF Done:  E(RB3LYP) =  -666.511434839     A.U. after   11 cycles
 SCF Done:  E(RB3LYP) =  -666.511472942     A.U. after   11 cycles
 SCF Done:  E(RB3LYP) =  -666.511478444     A.U. after    9 cycles
 SCF Done:  E(RB3LYP) =  -666.511479847     A.U. after    8 cycles
 SCF Done:  E(RB3LYP) =  -666.511481353     A.U. after    9 cycles
 SCF Done:  E(RB3LYP) =  -666.511482262     A.U. after    9 cycles
 SCF Done:  E(RB3LYP) =  -666.511482602     A.U. after    8 cycles
 SCF Done:  E(RB3LYP) =  -666.511482660     A.U. after    7 cycles
 Optimization completed.
    -- Stationary point found.
 Normal termination of Gaussian 16 at Thu Dec 10 14:45:10 2020.

 --------------------------------------------------------------------
 #N Geom=AllCheck Guess=TCheck SCRF=Check GenChk RB3LYP/6-31G(d) Freq
 --------------------------------------------------------------------

 Structure from the checkpoint file:  "JID_5066.chk"
 ------------------------------
 CID_80029526_JID_5066_neutraal
 ------------------------------
 Charge =  0 Multiplicity = 1

 SCF Done:  E(RB3LYP) =  -666.511482660     A.U. after    1 cycles

  Exact polarizability: 225.502  -0.621 129.627   8.628   5.443  73.264
 Approx polarizability: 328.142   4.062 209.635  11.160  10.077 112.506

                      1                      2                      3
                      A                      A                      A
 Frequencies --     38.2209                61.8426                88.3555
 Red. masses --      6.2347                 4.0703                 4.1213
 Frc consts  --      0.0054                 0.0092                 0.0190
 IR Inten    --      2.0688                 1.5269                 1.3110

                      4                      5                      6
                      A                      A                      A
 Frequencies --    113.2484               133.3515               163.7592
 Red. masses --      7.2175                 4.5364                 3.1485
 Frc consts  --      0.0545                 0.0475                 0.0497
 IR Inten    --      4.2815                20.9402                 0.4235

                      7                      8                      9
                      A                      A                      A
 Frequencies --    175.8765               230.0732               262.6241
 Red. masses --      3.5634                 4.0552                 5.6865
 Frc consts  --      0.0649                 0.1265                 0.2311
 IR Inten    --      2.5333                 3.4842                 3.3758

                     10                     11                     12
                      A                      A                      A
 Frequencies --    291.9626               349.1345               354.8893
 Red. masses --      5.1349                 2.8371                 1.1451
 Frc consts  --      0.2579                 0.2038                 0.0850
 IR Inten    --      2.8304                25.0252                47.8913

                     13                     14                     15
                      A                      A                      A
 Frequencies --    369.7402               399.1026               443.8701
 Red. masses --      1.1541                 2.1278                 3.0082
 Frc consts  --      0.0930                 0.1997                 0.3492
 IR Inten    --     49.2342                 1.5184                27.3629

                     16                     17                     18
                      A                      A                      A
 Frequencies --    453.3753               471.1937               502.2765
 Red. masses --      2.9543                 4.6410                 1.9932
 Frc consts  --      0.3578                 0.6071                 0.2963
 IR Inten    --      5.1541                15.0410               164.6079

                     19                     20                     21
                      A                      A                      A
 Frequencies --    520.5252               534.7251               612.5272
 Red. masses --      2.4334                 6.8260                 5.7408
 Frc consts  --      0.3885                 1.1499                 1.2690
 IR Inten    --    119.8523                 6.9199                 1.8176

                     22                     23                     24
                      A                      A                      A
 Frequencies --    632.5230               653.0234               719.6504
 Red. masses --      5.5644                 3.3915                 2.6613
 Frc consts  --      1.3117                 0.8521                 0.8121
 IR Inten    --      2.4472                10.5726                 1.2105

                     25                     26                     27
                      A                      A                      A
 Frequencies --    737.4076               757.4668               786.8320
 Red. masses --      3.1773                 4.2930                 1.5594
 Frc consts  --      1.0180                 1.4512                 0.5688
 IR Inten    --      7.3348                 2.4124                13.7814

                     28                     29                     30
                      A                      A                      A
 Frequencies --    801.2264               818.1155               848.0139
 Red. masses --      4.8702                 2.0218                 2.0772
 Frc consts  --      1.8421                 0.7973                 0.8801
 IR Inten    --      2.0337                34.8120                15.8569

                     31                     32                     33
                      A                      A                      A
 Frequencies --    877.4392               917.6929               932.3698
 Red. masses --      2.6299                 3.4243                 1.9207
 Frc consts  --      1.1929                 1.6991                 0.9837
 IR Inten    --     16.0771                 8.0181                 5.6134

                     34                     35                     36
                      A                      A                      A
 Frequencies --    943.3524               996.7065              1016.4658
 Red. masses --      1.2843                 2.0456                 2.5128
 Frc consts  --      0.6734                 1.1973                 1.5297
 IR Inten    --      0.7861                 9.3312                 8.9303

                     37                     38                     39
                      A                      A                      A
 Frequencies --   1034.4073              1083.3610              1116.0688
 Red. masses --      1.9909                 1.5404                 1.8442
 Frc consts  --      1.2551                 1.0652                 1.3534
 IR Inten    --     10.3192                16.3843                23.5723

                     40                     41                     42
                      A                      A                      A
 Frequencies --   1134.2128              1176.9316              1196.1451
 Red. masses --      1.6780                 1.5458                 1.4644
 Frc consts  --      1.2719                 1.2615                 1.2345
 IR Inten    --     45.8929                37.9628                40.0938

                     43                     44                     45
                      A                      A                      A
 Frequencies --   1210.8148              1216.8830              1244.0000
 Red. masses --      1.9547                 1.3505                 1.3312
 Frc consts  --      1.6884                 1.1782                 1.2138
 IR Inten    --     14.2110                52.8652                32.3878

                     46                     47                     48
                      A                      A                      A
 Frequencies --   1250.4219              1295.4045              1311.6166
 Red. masses --      2.5689                 2.2305                 1.4852
 Frc consts  --      2.3666                 2.2053                 1.5054
 IR Inten    --      2.5808                17.7643                 6.1696

                     49                     50                     51
                      A                      A                      A
 Frequencies --   1322.4672              1332.9061              1341.1266
 Red. masses --      1.5466                 1.6463                 1.3430
 Frc consts  --      1.5936                 1.7233                 1.4233
 IR Inten    --      4.2744                76.1835                 6.9018

                     52                     53                     54
                      A                      A                      A
 Frequencies --   1364.9960              1394.3638              1400.6788
 Red. masses --      1.9997                 2.1892                 1.5396
 Frc consts  --      2.1952                 2.5078                 1.7797
 IR Inten    --     22.7725                87.6963                10.4499

                     55                     56                     57
                      A                      A                      A
 Frequencies --   1432.3647              1449.0328              1511.5683
 Red. masses --      3.7462                 1.3011                 1.0962
 Frc consts  --      4.5284                 1.6096                 1.4757
 IR Inten    --    206.3037                56.1380                 9.1420

                     58                     59                     60
                      A                      A                      A
 Frequencies --   1513.6939              1542.7447              1561.3040
 Red. masses --      4.3583                 1.1016                 1.4361
 Frc consts  --      5.8836                 1.5447                 2.0626
 IR Inten    --     41.4099                37.9233               151.2734

                     61                     62                     63
                      A                      A                      A
 Frequencies --   1573.2408              1599.1731              1675.8622
 Red. masses --      1.8550                 5.7458                 4.3090
 Frc consts  --      2.7052                 8.6575                 7.1301
 IR Inten    --     36.6603                63.8438               425.0130

                     64                     65                     66
                      A                      A                      A
 Frequencies --   1694.0508              2321.3825              2997.4526
 Red. masses --      1.2865                12.6540                 1.0712
 Frc consts  --      2.1752                40.1765                 5.6706
 IR Inten    --    220.6655               152.3820                66.4077

                     67                     68                     69
                      A                      A                      A
 Frequencies --   3016.6335              3053.5450              3077.2600
 Red. masses --      1.0652                 1.0975                 1.0687
 Frc consts  --      5.7114                 6.0292                 5.9627
 IR Inten    --     40.0209                16.1905                34.6674

                     70                     71                     72
                      A                      A                      A
 Frequencies --   3101.6690              3127.3041              3142.2898
 Red. masses --      1.0928                 1.0885                 1.1009
 Frc consts  --      6.1943                 6.2721                 6.4047
 IR Inten    --     18.3886                47.8612                20.7394

                     73                     74                     75
                      A                      A                      A
 Frequencies --   3208.9307              3211.7437              3239.9672
 Red. masses --      1.0896                 1.0890                 1.0922
 Frc consts  --      6.6104                 6.6186                 6.7550
 IR Inten    --      9.5236                 7.5228                 7.7058

                     76                     77                     78
                      A                      A                      A
 Frequencies --   3568.1557              3676.3413              3721.7287
 Red. masses --      1.0477                 1.1000                 1.0657
 Frc consts  --      7.8588                 8.7598                 8.6972
 IR Inten    --     36.2597                20.6567                11.4572

 - Thermochemistry -
 -------------------
 Temperature   298.150 Kelvin.  Pressure   1.00000 Atm.
 Atom     1 has atomic number  6 and mass  12.00000

 Molecular mass:   203.10586 amu.
 Principal axes and moments of inertia in atomic units:
                           1         2         3
     Eigenvalues --  1019.813816425.149897094.28958
           X            0.99998   0.00272   0.00574
           Y           -0.00280   0.99989   0.01487
           Z           -0.00570  -0.01489   0.99987
 This molecule is an asymmetric top.
 Rotational symmetry number  1.
 Warning -- assumption of classical behavior for rotation
           may cause significant error
 Rotational temperatures (Kelvin)      0.08493     0.01348     0.01221
 Rotational constants (GHZ):           1.76968     0.28089     0.25439
 Zero-point vibrational energy     606824.9 (Joules/Mol)
                                  145.03464 (Kcal/Mol)
 Warning -- explicit consideration of  21 degrees of freedom as
           vibrations may cause significant error
 Vibrational temperatures:     54.99    88.98   127.12   162.94   191.86
          (Kelvin)            235.61   253.05   331.02   377.86   420.07
                              502.33   510.61   531.97   574.22   638.63
                              652.31   677.94   722.66   748.92   769.35
                              881.29   910.06   939.56  1035.42  1060.97
                             1089.83  1132.08  1152.79  1177.09  1220.10
                             1262.44  1320.36  1341.47  1357.27  1434.04
                             1462.47  1488.28  1558.71  1605.77  1631.88
                             1693.34  1720.99  1742.09  1750.82  1789.84
                             1799.08  1863.80  1887.12  1902.74  1917.75
                             1929.58  1963.92  2006.18  2015.26  2060.85
                             2084.84  2174.81  2177.87  2219.67  2246.37
                             2263.54  2300.85  2411.19  2437.36  3339.95
                             4312.67  4340.26  4393.37  4427.49  4462.61
                             4499.49  4521.05  4616.94  4620.98  4661.59
                             5133.78  5289.44  5354.74

 Zero-point correction=                           0.231127 (Hartree/Particle)
 Thermal correction to Energy=                    0.244793
 Thermal correction to Enthalpy=                  0.245737
 Thermal correction to Gibbs Free Energy=         0.190506
 Sum of electronic and zero-point Energies=           -666.280355
 Sum of electronic and thermal Energies=              -666.266690
 Sum of electronic and thermal Enthalpies=            -666.265745
 Sum of electronic and thermal Free Energies=         -666.320976

                     E (Thermal)             CV                S
                      KCal/Mol        Cal/Mol-Kelvin    Cal/Mol-Kelvin
 Total                  153.610             52.857            116.243
 Electronic               0.000              0.000              0.000
 Translational            0.889              2.981             41.830
 Rotational               0.889              2.981             32.208
 Vibrational            151.832             46.895             42.205
 Vibration     1          0.594              1.982              5.349
 Vibration     2          0.597              1.973              4.398
 Vibration     3          0.601              1.957              3.696
 Vibration     4          0.607              1.938              3.212
 Vibration     5          0.613              1.920              2.897
 Vibration     6          0.623              1.887              2.506
 Vibration     7          0.628              1.872              2.372
 Vibration     8          0.652              1.795              1.878
 Vibration     9          0.670              1.741              1.644
 Vibration    10          0.687              1.689              1.463
 Vibration    11          0.726              1.577              1.170
 Vibration    12          0.731              1.565              1.144
 Vibration    13          0.742              1.534              1.081
 Vibration    14          0.765              1.472              0.966
 Vibration    15          0.803              1.374              0.815
 Vibration    16          0.812              1.353              0.786
 Vibration    17          0.828              1.314              0.734
 Vibration    18          0.858              1.245              0.652
 Vibration    19          0.876              1.205              0.609
 Vibration    20          0.890              1.173              0.577
 Vibration    21          0.972              1.005              0.429

 Optimization completed.
    -- Stationary point found.
 Normal termination of Gaussian 16 at Thu Dec 10 14:53:24 2020.

 ----------------------------------------------------------------------
 # B3LYP/6-311++G(d,p) empiricaldispersion=gd3bj scf=xqc pop=npa geom=c
 heck
 ----------------------------------------------------------------------

 --------------------------------------
 CID_80029526_JID_5066_Energie_neutraal
 --------------------------------------
 Structure from the checkpoint file:  "JID_5066.chk"
 Charge =  0 Multiplicity = 1

 SCF Done:  E(RB3LYP) =  -666.706928572     A.U. after   16 cycles
 Normal termination of Gaussian 16 at Thu Dec 10 14:56:53 2020.

 ----------------------------------------------------------------------
 # B3LYP/6-311++G(d,p) empiricaldispersion=gd3bj scf=xqc pop=npa geom=c
 heck
 ----------------------------------------------------------------------

 ------------------------------------
 CID_80029526_JID_5066_Energie_kation
 ------------------------------------
 Structure from the checkpoint file:  "JID_5066.chk"
 Charge =  1 Multiplicity = 2

 SCF Done:  E(UB3LYP) =  -666.432436083     A.U. after   24 cycles
 Normal termination of Gaussian 16 at Thu Dec 10 15:05:35 2020.
 Gaussian 16:  ES64L-G16RevA.03 25-Dec-2016

 ----------------------------------------------------------------------
 # B3LYP/6-311++G(d,p) empiricaldispersion=gd3bj scf=xqc pop=npa geom=c
 heck
 ----------------------------------------------------------------------

 -----------------------------------
 CID_80029526_JID_5066_Energie_anion
 -----------------------------------
 Structure from the checkpoint file:  "JID_5066.chk"
 Charge = -1 Multiplicity = 2

                         Standard orientation:
 ---------------------------------------------------------------------
 Center     Atomic      Atomic             Coordinates (Angstroms)
 Number     Number       Type             X           Y           Z
 ---------------------------------------------------------------------
      1          6           0       -3.584479    0.936742   -0.647042
      2          6           0       -2.127365    1.300150   -0.311483
      3          7           0       -1.470881   -0.000026   -0.132148
      4          6           0       -2.395436   -1.111920   -0.349150
      5          6           0       -3.755364   -0.471480   -0.055760
      6          8           0       -4.029879   -0.442020    1.339544
      7          6           0       -0.103849   -0.143442   -0.105588
      8          6           0        0.726775    0.983189    0.034067
      9          6           0        2.119589    0.862790    0.076686
     10          6           0        2.702123   -0.429334   -0.016466
     11          6           0        1.866133   -1.549208   -0.160925
     12          6           0        0.491596   -1.426348   -0.207946
     13          6           0        4.115944   -0.559913    0.054327
     14          7           0        5.279098   -0.601738    0.130910
     15          7           0        2.921449    1.983430    0.160375
     16          1           0       -3.723254    0.901185   -1.733339
     17          1           0       -4.309473    1.638396   -0.228733
     18          1           0       -1.648249    1.876029   -1.113366
     19          1           0       -2.055560    1.900342    0.606810
     20          1           0       -2.196648   -1.936856    0.341406
     21          1           0       -2.340684   -1.501191   -1.378588
     22          1           0       -4.581994   -1.023009   -0.508794
     23          1           0       -3.229893   -0.115338    1.783313
     24          1           0        0.292427    1.973575    0.111636
     25          1           0        2.322920   -2.530811   -0.236860
     26          1           0       -0.121383   -2.309389   -0.334046
     27          1           0        2.505067    2.811715    0.561533
     28          1           0        3.884086    1.832486    0.434393
 ---------------------------------------------------------------------

 SCF Done:  E(UB3LYP) =  -666.703783417     A.U. after   33 cycles
 SCF Done:  E(UB3LYP) =  -666.703783416     a.u. after    1 cycles

 The electronic state is 2-A.
 Alpha  occ. eigenvalues --  -19.03254 -14.24138 -14.23164 -14.20658 -10.13493
 Alpha  occ. eigenvalues --  -10.13403 -10.12442 -10.11149 -10.10979 -10.10843
 Alpha  occ. eigenvalues --  -10.09451 -10.08871 -10.07916 -10.07114 -10.06732
 Alpha  occ. eigenvalues --   -0.93970  -0.86562  -0.83975  -0.80250  -0.75112
 Alpha  occ. eigenvalues --   -0.70170  -0.65838  -0.64502  -0.63705  -0.56384
 Alpha  occ. eigenvalues --   -0.53087  -0.50196  -0.49829  -0.46357  -0.44385
 Alpha  occ. eigenvalues --   -0.43287  -0.40844  -0.40015  -0.38090  -0.35716
 Alpha  occ. eigenvalues --   -0.35212  -0.34058  -0.33729  -0.32141  -0.31232
 Alpha  occ. eigenvalues --   -0.30332  -0.29156  -0.28180  -0.27098  -0.26845
 Alpha  occ. eigenvalues --   -0.26270  -0.25216  -0.24375  -0.23629  -0.23270
 Alpha  occ. eigenvalues --   -0.19331  -0.18190  -0.12574  -0.10672   0.03728
 Alpha virt. eigenvalues --    0.06002   0.06375   0.07478   0.07688   0.08439
 Alpha virt. eigenvalues --    0.09038   0.09370   0.09750   0.10792   0.10848
 Alpha virt. eigenvalues --    0.11506   0.12145   0.12476   0.13471   0.13840

  Beta  occ. eigenvalues --  -19.03223 -14.24145 -14.23133 -14.20618 -10.13479
  Beta  occ. eigenvalues --  -10.13404 -10.12375 -10.11119 -10.10937 -10.10835
  Beta  occ. eigenvalues --  -10.09426 -10.08801 -10.07889 -10.07132 -10.06703
  Beta  occ. eigenvalues --   -0.93899  -0.86513  -0.83926  -0.80187  -0.75033
  Beta  occ. eigenvalues --   -0.70091  -0.65765  -0.64433  -0.63632  -0.56284
  Beta  occ. eigenvalues --   -0.53017  -0.50133  -0.49741  -0.46310  -0.44309
  Beta  occ. eigenvalues --   -0.43223  -0.40787  -0.39955  -0.38034  -0.35663
  Beta  occ. eigenvalues --   -0.35157  -0.33998  -0.33658  -0.32097  -0.31106
  Beta  occ. eigenvalues --   -0.30275  -0.29104  -0.28128  -0.27023  -0.26796
  Beta  occ. eigenvalues --   -0.26211  -0.25051  -0.24324  -0.23513  -0.23222
  Beta  occ. eigenvalues --   -0.19206  -0.18021  -0.12456  -0.10541
  Beta virt. eigenvalues --    0.06241   0.06841   0.07187   0.07789   0.08268
  Beta virt. eigenvalues --    0.08809   0.09179   0.09660   0.10265   0.11082
  Beta virt. eigenvalues --    0.11262   0.11883   0.12331   0.12595   0.13503

 Mulliken charges and spin densities:
               1          2
     1  C    1.499408  -2.172795
     2  C    0.091090  -0.153393
     3  N   -0.073042   0.309791
     4  C    0.747923  -0.939489
     5  C   -0.819459   0.326558
     6  O   -0.148565  -0.034746
     7  C    1.931610  -2.024006
     8  C   -1.296097   0.543761
     9  C   -2.323829   1.432727
    10  C    3.314494  -0.610345
    11  C   -0.507193   0.149139
    12  C   -0.148927   0.292207
    13  C   -1.163343  -0.331524
    14  N   -0.248376   0.010621
    15  N   -0.249522   0.007315
    16  H   -0.187152   0.337609
    17  H   -0.101655   0.306153
    18  H   -0.115819   0.283391
    19  H   -0.336509   0.516499
    20  H    0.050986   0.138287
    21  H   -0.213081   0.393285
    22  H   -0.297605   0.514614
    23  H    0.165495   0.089950
    24  H   -0.638398   0.848079
    25  H    0.092705   0.081289
    26  H   -0.118907   0.257458
    27  H   -0.141520   0.381087
    28  H    0.235290   0.046478
 Sum of Mulliken charges =  -1.00000   1.00000

 Dipole moment (field-independent basis, Debye):
    X=             -0.4248    Y=             -1.9647    Z=              0.6695  Tot=              2.1186
 Quadrupole moment (field-independent basis, Debye-Ang):
   XX=           -186.0286   YY=           -123.3654   ZZ=           -119.2986
   XY=              2.9499   XZ=             -1.0440   YZ=             -0.3557

 Summary of Natural Population Analysis:

                                       Natural Population
                Natural  -----------------------------------------------
    Atom  No    Charge         Core      Valence    Rydberg      Total
 -----------------------------------------------------------------------
      C    1   -0.20523      0.99962     2.19704    0.00857     3.20523
      C    2   -0.08690      0.99963     2.07578    0.01149     3.08690
      N    3   -0.25086      0.99965     2.73958    0.01163     3.75086
      C    4   -0.09400      0.99960     2.08491    0.00949     3.09400
      C    5    0.06191      0.99956     1.92382    0.01471     2.93809
      O    6   -0.36999      0.99990     3.36329    0.00681     4.36999
      C    7    0.13010      0.99950     1.85878    0.01161     2.86990
      C    8   -0.15339      0.99949     2.14502    0.00887     3.15339
      C    9    0.11977      0.99950     1.86933    0.01140     2.88023
      C   10   -0.14220      0.99939     2.13428    0.00854     3.14220
      C   11   -0.04871      0.99955     2.03922    0.00994     3.04871
      C   12   -0.14951      0.99953     2.14218    0.00780     3.14951
      C   13    0.15204      0.99963     1.82926    0.01906     2.84796
      N   14   -0.19934      0.99979     2.68888    0.01067     3.69934
      N   15   -0.39107      0.99970     2.88236    0.00900     3.89107
      H   16    0.10476      0.00000     0.39334    0.00190     0.39524
      H   17    0.10771      0.00000     0.39116    0.00113     0.39229
      H   18    0.10224      0.00000     0.39545    0.00230     0.39776
      H   19    0.09470      0.00000     0.40324    0.00206     0.40530
      H   20    0.10112      0.00000     0.39687    0.00201     0.39888
      H   21    0.09800      0.00000     0.39926    0.00274     0.40200
      H   22    0.09331      0.00000     0.40534    0.00135     0.40669
      H   23    0.22924      0.00000     0.26763    0.00314     0.27076
      H   24    0.10697      0.00000     0.39083    0.00220     0.39303
      H   25    0.10117      0.00000     0.39798    0.00086     0.39883
      H   26    0.10409      0.00000     0.39458    0.00133     0.39591
      H   27    0.19170      0.00000     0.30603    0.00227     0.30830
      H   28    0.19236      0.00000     0.30608    0.00157     0.30764
 =======================================================================
   * Total *   -0.00000     14.99405    38.82151    0.18445    54.00000

 Normal termination of Gaussian 16 at Thu Dec 10 15:18:57 2020.
