 Gaussian 16, Revision A.03,

 -----------------------------------------------------------
 # opt freq B3LYP/6-31G(d) empiricaldispersion=gd3bj scf=xqc
 -----------------------------------------------------------

 -------------------------------
 CID_112681492_JID_3468_neutraal
 -------------------------------
 Symbolic Z-matrix:
 Charge =  0 Multiplicity = 1

 SCF Done:  E(RB3LYP) =  -587.734174958     A.U. after   13 cycles
 SCF Done:  E(RB3LYP) =  -587.739572072     A.U. after   12 cycles
 SCF Done:  E(RB3LYP) =  -587.740482000     A.U. after   11 cycles
 SCF Done:  E(RB3LYP) =  -587.740725351     A.U. after   12 cycles
 SCF Done:  E(RB3LYP) =  -587.740941715     A.U. after   11 cycles
 SCF Done:  E(RB3LYP) =  -587.741121905     A.U. after   11 cycles
 SCF Done:  E(RB3LYP) =  -587.741177656     A.U. after   11 cycles
 SCF Done:  E(RB3LYP) =  -587.741190110     A.U. after   10 cycles
 SCF Done:  E(RB3LYP) =  -587.741196249     A.U. after    9 cycles
 SCF Done:  E(RB3LYP) =  -587.741201008     A.U. after   10 cycles
 SCF Done:  E(RB3LYP) =  -587.741208349     A.U. after   10 cycles
 SCF Done:  E(RB3LYP) =  -587.741210124     A.U. after    9 cycles
 SCF Done:  E(RB3LYP) =  -587.741210264     A.U. after    8 cycles
 SCF Done:  E(RB3LYP) =  -587.741210325     A.U. after    7 cycles
 SCF Done:  E(RB3LYP) =  -587.741210340     A.U. after    6 cycles
 Optimization completed.
    -- Stationary point found.

 1\1\GINC-NODE307\FOpt\RB3LYP\6-31G(d)\C8H15N5\VSC10255\09-Dec-2020\0\\
 # opt freq B3LYP/6-31G(d) empiricaldispersion=gd3bj scf=xqc\\CID_11268
 1492_JID_3468_neutraal\\0,1\C,0.913014459,0.0360265154,0.0876065912\C,
 0.4152418348,0.5855078182,-1.2504683079\C,0.9716009864,-0.1781402484,-
 2.4744643775\C,0.6320353325,-1.680627918,-2.4825426806\C,-0.8489484394
 ,-2.0226555962,-2.2911647365\C,0.5815368945,0.5463078221,-3.7517185877
 \N,-0.0863258899,-0.1211620379,-4.6959860343\C,-0.3741847344,0.6020229
 531,-5.800251223\N,-0.0444503834,1.882503374,-6.0130013341\C,0.6177014

 Normal termination of Gaussian 16 at Wed Dec  9 23:22:48 2020.

 --------------------------------------------------------------------
 #N Geom=AllCheck Guess=TCheck SCRF=Check GenChk RB3LYP/6-31G(d) Freq
 --------------------------------------------------------------------

 Structure from the checkpoint file:  "JID_3468.chk"
 -------------------------------
 CID_112681492_JID_3468_neutraal
 -------------------------------
 Charge =  0 Multiplicity = 1

 SCF Done:  E(RB3LYP) =  -587.741210340     A.U. after    1 cycles

  Exact polarizability: 141.317   0.018 134.759   4.790   1.261  71.775
 Approx polarizability: 186.151  -0.321 208.525  11.098   3.648 110.231

                      1                      2                      3
                      A                      A                      A
 Frequencies --     18.9048                92.0899               111.5118
 Red. masses --      3.6512                 3.1094                 3.3836
 Frc consts  --      0.0008                 0.0155                 0.0248
 IR Inten    --      0.1530                 1.2781                 0.8607

                      4                      5                      6
                      A                      A                      A
 Frequencies --    130.3475               164.4006               185.7780
 Red. masses --      2.7356                 1.4753                 7.0974
 Frc consts  --      0.0274                 0.0235                 0.1443
 IR Inten    --      0.0749                 0.9574                 0.0290

                      7                      8                      9
                      A                      A                      A
 Frequencies --    193.5591               232.7211               243.7277
 Red. masses --      5.6671                 1.4113                 1.5400
 Frc consts  --      0.1251                 0.0450                 0.0539
 IR Inten    --      7.9419                 2.0858                 4.8443

                     10                     11                     12
                      A                      A                      A
 Frequencies --    265.6977               290.9761               292.4756
 Red. masses --      2.6949                 2.3619                 1.2256
 Frc consts  --      0.1121                 0.1178                 0.0618
 IR Inten    --      3.6683                 3.0619               157.4264

                     13                     14                     15
                      A                      A                      A
 Frequencies --    316.4479               322.8114               348.0504
 Red. masses --      1.4841                 1.7540                 2.8624
 Frc consts  --      0.0876                 0.1077                 0.2043
 IR Inten    --    253.0300               159.2050                25.9463

                     16                     17                     18
                      A                      A                      A
 Frequencies --    368.3220               492.8579               543.4962
 Red. masses --      2.6655                 2.1344                 1.2507
 Frc consts  --      0.2131                 0.3055                 0.2177
 IR Inten    --      6.2648                 1.3424                 8.6746

                     19                     20                     21
                      A                      A                      A
 Frequencies --    549.2748               569.2468               590.6888
 Red. masses --      1.1709                 2.2910                 6.1194
 Frc consts  --      0.2081                 0.4374                 1.2580
 IR Inten    --      6.3431                 1.5784                 5.6280

                     22                     23                     24
                      A                      A                      A
 Frequencies --    622.0077               653.3841               728.6477
 Red. masses --      4.0045                 4.2424                 2.4416
 Frc consts  --      0.9128                 1.0671                 0.7638
 IR Inten    --      3.9576                 2.7658                 6.8648

                     25                     26                     27
                      A                      A                      A
 Frequencies --    745.0085               789.4064               809.2835
 Red. masses --     11.1226                 1.5347                 1.9146
 Frc consts  --      3.6373                 0.5635                 0.7388
 IR Inten    --      0.2724                 2.2576                18.5641

                     28                     29                     30
                      A                      A                      A
 Frequencies --    845.0406               861.2258               932.4690
 Red. masses --      4.6002                 2.0274                 1.8175
 Frc consts  --      1.9355                 0.8860                 0.9311
 IR Inten    --     36.0759                 4.4934                 4.4404

                     31                     32                     33
                      A                      A                      A
 Frequencies --    984.7980              1002.7246              1033.0779
 Red. masses --      2.9226                 7.0355                 1.9337
 Frc consts  --      1.6700                 4.1678                 1.2159
 IR Inten    --      7.0724                14.1808                 7.7805

                     34                     35                     36
                      A                      A                      A
 Frequencies --   1034.3398              1059.0675              1069.4689
 Red. masses --      1.3142                 2.6579                 2.0181
 Frc consts  --      0.8284                 1.7564                 1.3600
 IR Inten    --      5.1799                 4.9009                 0.5851

                     37                     38                     39
                      A                      A                      A
 Frequencies --   1094.6406              1134.3047              1168.9206
 Red. masses --      1.8884                 1.8897                 2.1349
 Frc consts  --      1.3332                 1.4325                 1.7187
 IR Inten    --      4.0426                 7.0441                 3.3424

                     40                     41                     42
                      A                      A                      A
 Frequencies --   1180.1612              1187.9289              1286.5061
 Red. masses --      2.4464                 2.0288                 1.3714
 Frc consts  --      2.0075                 1.6868                 1.3374
 IR Inten    --      1.0677                 0.6677                 1.1746

                     43                     44                     45
                      A                      A                      A
 Frequencies --   1289.2691              1320.1988              1334.4532
 Red. masses --      2.8137                 1.5004                 1.2674
 Frc consts  --      2.7556                 1.5408                 1.3297
 IR Inten    --     13.9174                 4.9615                15.2349

                     46                     47                     48
                      A                      A                      A
 Frequencies --   1364.5188              1389.9668              1405.8901
 Red. masses --      1.4394                 1.4555                 1.4517
 Frc consts  --      1.5790                 1.6568                 1.6905
 IR Inten    --     23.0968                12.2120                 1.7285

                     49                     50                     51
                      A                      A                      A
 Frequencies --   1435.9203              1439.5382              1449.0210
 Red. masses --      1.3683                 1.2994                 3.6762
 Frc consts  --      1.6622                 1.5864                 4.5478
 IR Inten    --     28.8387                 1.2689                63.1750

                     52                     53                     54
                      A                      A                      A
 Frequencies --   1475.8118              1512.3597              1522.6549
 Red. masses --      3.7256                 1.0840                 1.0609
 Frc consts  --      4.7809                 1.4607                 1.4492
 IR Inten    --    162.1731                20.3544                 4.7431

                     55                     56                     57
                      A                      A                      A
 Frequencies --   1529.0583              1531.0445              1536.4340
 Red. masses --      1.0554                 1.8522                 1.0841
 Frc consts  --      1.4539                 2.5581                 1.5079
 IR Inten    --      8.4572                33.5002                 3.4849

                     58                     59                     60
                      A                      A                      A
 Frequencies --   1542.1034              1547.4096              1610.0083
 Red. masses --      1.0645                 1.0657                 7.2133
 Frc consts  --      1.4915                 1.5034                11.0164
 IR Inten    --      5.0497                 0.6425               488.7093

                     61                     62                     63
                      A                      A                      A
 Frequencies --   1613.1472              1655.0262              1683.1571
 Red. masses --      4.0089                 1.7198                 1.9962
 Frc consts  --      6.1464                 2.7754                 3.3320
 IR Inten    --    262.4776               826.0340               242.3426

                     64                     65                     66
                      A                      A                      A
 Frequencies --   3009.1639              3043.8674              3050.7602
 Red. masses --      1.0811                 1.0387                 1.0523
 Frc consts  --      5.7678                 5.6701                 5.7704
 IR Inten    --     13.5849                19.5246                13.5775

                     67                     68                     69
                      A                      A                      A
 Frequencies --   3055.1394              3057.5780              3091.5330
 Red. masses --      1.0600                 1.0559                 1.0987
 Frc consts  --      5.8295                 5.8163                 6.1871
 IR Inten    --     59.8230                30.1731                14.1237

                     70                     71                     72
                      A                      A                      A
 Frequencies --   3099.9977              3109.8515              3111.8087
 Red. masses --      1.0963                 1.1023                 1.1001
 Frc consts  --      6.2075                 6.2808                 6.2766
 IR Inten    --      5.6245                20.9340                83.0514

                     73                     74                     75
                      A                      A                      A
 Frequencies --   3124.0247              3145.5890              3609.4671
 Red. masses --      1.1004                 1.1003                 1.0447
 Frc consts  --      6.3277                 6.4147                 8.0190
 IR Inten    --     38.5077                27.3759                98.0835

                     76                     77                     78
                      A                      A                      A
 Frequencies --   3610.7721              3736.5996              3737.4136
 Red. masses --      1.0450                 1.1047                 1.1048
 Frc consts  --      8.0270                 9.0875                 9.0923
 IR Inten    --     44.7431                35.9496                49.5416

 - Thermochemistry -
 -------------------
 Temperature   298.150 Kelvin.  Pressure   1.00000 Atm.
 Atom     1 has atomic number  6 and mass  12.00000

 Molecular mass:   181.13275 amu.
 Principal axes and moments of inertia in atomic units:
                           1         2         3
     Eigenvalues --  1487.570323262.711134507.73071
           X            0.99999   0.00238  -0.00374
           Y           -0.00238   1.00000   0.00055
           Z            0.00375  -0.00054   0.99999
 This molecule is an asymmetric top.
 Rotational symmetry number  1.
 Warning -- assumption of classical behavior for rotation
           may cause significant error
 Rotational temperatures (Kelvin)      0.05823     0.02655     0.01921
 Rotational constants (GHZ):           1.21321     0.55314     0.40037
 Zero-point vibrational energy     635972.8 (Joules/Mol)
                                  152.00116 (Kcal/Mol)
 Warning -- explicit consideration of  21 degrees of freedom as
           vibrations may cause significant error
 Vibrational temperatures:     27.20   132.50   160.44   187.54   236.54
          (Kelvin)            267.29   278.49   334.83   350.67   382.28
                              418.65   420.81   455.30   464.45   500.77
                              529.93   709.11   781.97   790.28   819.02
                              849.87   894.93   940.07  1048.36  1071.90
                             1135.78  1164.38  1215.83  1239.11  1341.61
                             1416.90  1442.70  1486.37  1488.18  1523.76
                             1538.73  1574.94  1632.01  1681.82  1697.99
                             1709.16  1851.00  1854.97  1899.47  1919.98
                             1963.24  1999.85  2022.76  2065.97  2071.17
                             2084.82  2123.36  2175.95  2190.76  2199.97
                             2202.83  2210.59  2218.74  2226.38  2316.44
                             2320.96  2381.21  2421.69  4329.52  4379.45
                             4389.36  4395.66  4399.17  4448.03  4460.21
                             4474.38  4477.20  4494.77  4525.80  5193.22
                             5195.10  5376.13  5377.30

 Zero-point correction=                           0.242229 (Hartree/Particle)
 Thermal correction to Energy=                    0.255908
 Thermal correction to Enthalpy=                  0.256852
 Thermal correction to Gibbs Free Energy=         0.201958
 Sum of electronic and zero-point Energies=           -587.498981
 Sum of electronic and thermal Energies=              -587.485302
 Sum of electronic and thermal Enthalpies=            -587.484358
 Sum of electronic and thermal Free Energies=         -587.539253

                     E (Thermal)             CV                S
                      KCal/Mol        Cal/Mol-Kelvin    Cal/Mol-Kelvin
 Total                  160.585             51.652            115.535
 Electronic               0.000              0.000              0.000
 Translational            0.889              2.981             41.489
 Rotational               0.889              2.981             31.459
 Vibrational            158.807             45.690             42.587
 Vibration     1          0.593              1.986              6.746
 Vibration     2          0.602              1.955              3.615
 Vibration     3          0.607              1.940              3.242
 Vibration     4          0.612              1.923              2.941
 Vibration     5          0.623              1.886              2.499
 Vibration     6          0.632              1.859              2.270
 Vibration     7          0.635              1.849              2.193
 Vibration     8          0.653              1.791              1.858
 Vibration     9          0.659              1.773              1.776
 Vibration    10          0.672              1.736              1.624
 Vibration    11          0.687              1.691              1.468
 Vibration    12          0.688              1.688              1.460
 Vibration    13          0.703              1.642              1.328
 Vibration    14          0.708              1.630              1.296
 Vibration    15          0.726              1.579              1.175
 Vibration    16          0.741              1.537              1.087
 Vibration    17          0.849              1.266              0.676
 Vibration    18          0.899              1.154              0.558
 Vibration    19          0.905              1.141              0.546
 Vibration    20          0.925              1.098              0.506
 Vibration    21          0.948              1.052              0.466

 Optimization completed.
    -- Stationary point found.

 1\1\GINC-NODE307\Freq\RB3LYP\6-31G(d)\C8H15N5\VSC10255\09-Dec-2020\0\\
 #N Geom=AllCheck Guess=TCheck SCRF=Check GenChk RB3LYP/6-31G(d) Freq\\
 CID_112681492_JID_3468_neutraal\\0,1\C,0.913014459,0.0360265154,0.0876
 065912\C,0.4152418348,0.5855078182,-1.2504683079\C,0.9716009864,-0.178
 1402484,-2.4744643775\C,0.6320353325,-1.680627918,-2.4825426806\C,-0.8
 489484394,-2.0226555962,-2.2911647365\C,0.5815368945,0.5463078221,-3.7
 517185877\N,-0.0863258899,-0.1211620379,-4.6959860343\C,-0.3741847344,
 0.6020229531,-5.800251223\N,-0.0444503834,1.882503374,-6.0130013341\C,

 Normal termination of Gaussian 16 at Wed Dec  9 23:29:12 2020.

 ----------------------------------------------------------------------
 # B3LYP/6-311++G(d,p) empiricaldispersion=gd3bj scf=xqc pop=npa geom=c
 heck
 ----------------------------------------------------------------------

 ---------------------------------------
 CID_112681492_JID_3468_Energie_neutraal
 ---------------------------------------
 Structure from the checkpoint file:  "JID_3468.chk"
 Charge =  0 Multiplicity = 1

 SCF Done:  E(RB3LYP) =  -587.915522764     A.U. after   15 cycles
 Normal termination of Gaussian 16 at Wed Dec  9 23:31:40 2020.

 ----------------------------------------------------------------------
 # B3LYP/6-311++G(d,p) empiricaldispersion=gd3bj scf=xqc pop=npa geom=c
 heck
 ----------------------------------------------------------------------

 -------------------------------------
 CID_112681492_JID_3468_Energie_kation
 -------------------------------------
 Structure from the checkpoint file:  "JID_3468.chk"
 Charge =  1 Multiplicity = 2

 SCF Done:  E(UB3LYP) =  -587.597435868     A.U. after   28 cycles
 Normal termination of Gaussian 16 at Wed Dec  9 23:37:43 2020.
 Gaussian 16:  ES64L-G16RevA.03 25-Dec-2016

 ------------------------------------
 CID_112681492_JID_3468_Energie_anion
 ------------------------------------
 Structure from the checkpoint file:  "JID_3468.chk"
 Charge = -1 Multiplicity = 2

                         Standard orientation:
 ---------------------------------------------------------------------
 Center     Atomic      Atomic             Coordinates (Angstroms)
 Number     Number       Type             X           Y           Z
 ---------------------------------------------------------------------
      1          6           0       -3.582887   -1.468007    0.235236
      2          6           0       -2.117228   -1.137937    0.523418
      3          6           0       -1.464378   -0.243206   -0.555519
      4          6           0       -2.170292    1.110998   -0.757150
      5          6           0       -2.404868    1.928163    0.517267
      6          6           0        0.026860   -0.124670   -0.289982
      7          7           0        0.565685    1.089799   -0.156079
      8          6           0        1.899069    1.093649    0.061486
      9          7           0        2.688909    0.014927    0.139769
     10          6           0        2.025556   -1.143986   -0.004412
     11          7           0        0.704473   -1.279433   -0.225993
     12          7           0        2.750692   -2.288257    0.100317
     13          7           0        2.480947    2.308316    0.235859
     14          1           0       -4.215552   -0.573955    0.246518
     15          1           0       -3.979354   -2.162698    0.984207
     16          1           0       -3.693179   -1.939949   -0.749125
     17          1           0       -2.030565   -0.648872    1.501866
     18          1           0       -1.533350   -2.060966    0.586855
     19          1           0       -1.538040   -0.800099   -1.502227
     20          1           0       -1.576713    1.706597   -1.458615
     21          1           0       -3.133519    0.920929   -1.246628
     22          1           0       -1.459089    2.128391    1.027147
     23          1           0       -2.870190    2.890049    0.272712
     24          1           0       -3.071488    1.411485    1.216794
     25          1           0        3.755992   -2.215451    0.069519
     26          1           0        2.310869   -3.146402   -0.194679
     27          1           0        3.487792    2.359571    0.214635
     28          1           0        1.940458    3.123873   -0.008156
 ---------------------------------------------------------------------

 SCF Done:  E(UB3LYP) =  -587.900921890     A.U. after   33 cycles
 SCF Done:  E(UB3LYP) =  -587.900921890     a.u. after    1 cycles

 The electronic state is 2-A.
 Alpha  occ. eigenvalues --  -14.22661 -14.22634 -14.19839 -14.19683 -14.19531
 Alpha  occ. eigenvalues --  -10.17748 -10.17687 -10.14685 -10.08053 -10.07025
 Alpha  occ. eigenvalues --  -10.06958 -10.06645 -10.05633  -0.92473  -0.85207
 Alpha  occ. eigenvalues --   -0.82163  -0.76879  -0.75041  -0.71416  -0.65128
 Alpha  occ. eigenvalues --   -0.61198  -0.55551  -0.54433  -0.52619  -0.48030
 Alpha  occ. eigenvalues --   -0.46974  -0.43701  -0.40771  -0.39092  -0.37429
 Alpha  occ. eigenvalues --   -0.36192  -0.35652  -0.35523  -0.32536  -0.31428
 Alpha  occ. eigenvalues --   -0.31156  -0.28363  -0.27598  -0.27177  -0.26652
 Alpha  occ. eigenvalues --   -0.26002  -0.24097  -0.23212  -0.22428  -0.21062
 Alpha  occ. eigenvalues --   -0.16308  -0.16190  -0.15660  -0.14463   0.04423
 Alpha virt. eigenvalues --    0.06185   0.06257   0.07452   0.07988   0.08330
 Alpha virt. eigenvalues --    0.09031   0.09702   0.10284   0.10412   0.10922
 Alpha virt. eigenvalues --    0.11244   0.11980   0.13162   0.13394   0.13527

  Beta  occ. eigenvalues --  -14.22602 -14.22578 -14.19815 -14.19671 -14.19523
  Beta  occ. eigenvalues --  -10.17745 -10.17682 -10.14685 -10.08050 -10.07019
  Beta  occ. eigenvalues --  -10.06941 -10.06637 -10.05620  -0.92455  -0.85157
  Beta  occ. eigenvalues --   -0.82124  -0.76820  -0.74997  -0.71401  -0.65109
  Beta  occ. eigenvalues --   -0.61175  -0.55474  -0.54391  -0.52583  -0.48002
  Beta  occ. eigenvalues --   -0.46913  -0.43640  -0.40717  -0.39043  -0.37407
  Beta  occ. eigenvalues --   -0.36137  -0.35627  -0.35500  -0.32514  -0.31408
  Beta  occ. eigenvalues --   -0.31141  -0.28331  -0.27561  -0.27145  -0.26635
  Beta  occ. eigenvalues --   -0.25978  -0.24073  -0.23195  -0.22414  -0.21042
  Beta  occ. eigenvalues --   -0.16290  -0.16149  -0.15609  -0.14429
  Beta virt. eigenvalues --    0.06277   0.07419   0.07504   0.07719   0.08340
  Beta virt. eigenvalues --    0.08549   0.09644   0.09850   0.10656   0.10861
  Beta virt. eigenvalues --    0.11403   0.11659   0.12046   0.13306   0.13643

 Mulliken charges and spin densities:
               1          2
     1  C    0.083012  -0.684499
     2  C   -0.993371   0.657823
     3  C    2.559447  -1.231827
     4  C   -0.280606  -0.268215
     5  C    0.000935  -0.593084
     6  C   -0.715926  -0.787507
     7  N   -0.051524   0.004671
     8  C    0.150465   0.051800
     9  N   -0.039586  -0.221465
    10  C    0.312534  -0.156616
    11  N   -0.047532  -0.022212
    12  N   -0.520593   0.234276
    13  N   -0.507354   0.226079
    14  H   -0.015996   0.152790
    15  H   -0.084086   0.215177
    16  H   -0.022813   0.159702
    17  H    0.070082   0.079027
    18  H    0.209043  -0.025428
    19  H   -0.017391   0.226801
    20  H    0.044724   0.128450
    21  H    0.096986   0.054251
    22  H    0.076913   0.112037
    23  H   -0.087568   0.210113
    24  H    0.080334   0.040851
    25  H   -0.405879   0.693041
    26  H   -0.231409   0.509749
    27  H   -0.429125   0.720343
    28  H   -0.233721   0.513870
 Sum of Mulliken charges =  -1.00000   1.00000

 Dipole moment (field-independent basis, Debye):
    X=             -6.1809    Y=             -0.3998    Z=              0.0201  Tot=              6.1939
 Quadrupole moment (field-independent basis, Debye-Ang):
   XX=           -152.1467   YY=           -139.4865   ZZ=           -100.7124
   XY=             -0.0206   XZ=             -0.2854   YZ=             -1.1818

 Summary of Natural Population Analysis:

                                       Natural Population
                Natural  -----------------------------------------------
    Atom  No    Charge         Core      Valence    Rydberg      Total
 -----------------------------------------------------------------------
      C    1   -0.28527      0.99967     2.28134    0.00426     3.28527
      C    2   -0.18870      0.99962     2.18192    0.00716     3.18870
      C    3   -0.12865      0.99955     2.11685    0.01225     3.12865
      C    4   -0.19035      0.99963     2.18284    0.00788     3.19035
      C    5   -0.28959      0.99966     2.28535    0.00458     3.28959
      C    6    0.25180      0.99959     1.72874    0.01987     2.74820
      N    7   -0.30776      0.99964     2.79753    0.01060     3.80776
      C    8    0.31129      0.99961     1.67018    0.01892     2.68871
      N    9   -0.30347      0.99964     2.79322    0.01061     3.80347
      C   10    0.31047      0.99962     1.67111    0.01881     2.68953
      N   11   -0.30768      0.99964     2.79773    0.01031     3.80768
      N   12   -0.38115      0.99969     2.87255    0.00891     3.88115
      N   13   -0.37983      0.99969     2.87122    0.00892     3.87983
      H   14    0.09531      0.00000     0.40355    0.00115     0.40469
      H   15    0.09760      0.00000     0.40141    0.00100     0.40240
      H   16    0.09529      0.00000     0.40356    0.00114     0.40471
      H   17    0.09448      0.00000     0.40437    0.00115     0.40552
      H   18    0.10927      0.00000     0.38913    0.00160     0.39073
      H   19    0.10652      0.00000     0.39178    0.00171     0.39348
      H   20    0.10567      0.00000     0.39290    0.00144     0.39433
      H   21    0.09332      0.00000     0.40557    0.00111     0.40668
      H   22    0.10780      0.00000     0.39077    0.00144     0.39220
      H   23    0.09602      0.00000     0.40296    0.00103     0.40398
      H   24    0.09118      0.00000     0.40769    0.00114     0.40882
      H   25    0.19899      0.00000     0.29567    0.00534     0.30101
      H   26    0.19867      0.00000     0.29675    0.00458     0.30133
      H   27    0.19940      0.00000     0.29491    0.00569     0.30060
      H   28    0.19940      0.00000     0.29571    0.00489     0.30060
 =======================================================================
   * Total *    0.00000     12.99524    35.82730    0.17746    49.00000

 Normal termination of Gaussian 16 at Wed Dec  9 23:44:58 2020.
