 Gaussian 16, Revision A.03,

 -----------------------------------------------------------
 # opt freq B3LYP/6-31G(d) empiricaldispersion=gd3bj scf=xqc
 -----------------------------------------------------------

 -------------------------------
 CID_117368226_JID_8514_neutraal
 -------------------------------
 Symbolic Z-matrix:
 Charge =  0 Multiplicity = 1

 SCF Done:  E(RB3LYP) =  -804.371666857     A.U. after   15 cycles
 SCF Done:  E(RB3LYP) =  -804.379942102     A.U. after   12 cycles
 SCF Done:  E(RB3LYP) =  -804.381208602     A.U. after   12 cycles
 SCF Done:  E(RB3LYP) =  -804.381399575     A.U. after   11 cycles
 SCF Done:  E(RB3LYP) =  -804.381500726     A.U. after   11 cycles
 SCF Done:  E(RB3LYP) =  -804.381599839     A.U. after   10 cycles
 SCF Done:  E(RB3LYP) =  -804.381726826     A.U. after   11 cycles
 SCF Done:  E(RB3LYP) =  -804.381766890     A.U. after   10 cycles
 SCF Done:  E(RB3LYP) =  -804.381795986     A.U. after   10 cycles
 SCF Done:  E(RB3LYP) =  -804.381804924     A.U. after   10 cycles
 SCF Done:  E(RB3LYP) =  -804.381816203     A.U. after   10 cycles
 SCF Done:  E(RB3LYP) =  -804.381817435     A.U. after    8 cycles
 SCF Done:  E(RB3LYP) =  -804.381818316     A.U. after    8 cycles
 SCF Done:  E(RB3LYP) =  -804.381818667     A.U. after    8 cycles
 SCF Done:  E(RB3LYP) =  -804.381818741     A.U. after    7 cycles
 Optimization completed.
    -- Stationary point found.
 Normal termination of Gaussian 16 at Fri Dec 11 20:58:30 2020.

 --------------------------------------------------------------------
 #N Geom=AllCheck Guess=TCheck SCRF=Check GenChk RB3LYP/6-31G(d) Freq
 --------------------------------------------------------------------

 Structure from the checkpoint file:  "JID_8514.chk"
 -------------------------------
 CID_117368226_JID_8514_neutraal
 -------------------------------
 Charge =  0 Multiplicity = 1

 SCF Done:  E(RB3LYP) =  -804.381818741     A.U. after    1 cycles

  Exact polarizability: 225.784  -0.803 154.573   7.266   4.337 106.513
 Approx polarizability: 310.912  -9.575 256.148  18.758  11.508 156.717

                      1                      2                      3
                      A                      A                      A
 Frequencies --     27.9789                49.4422                64.4645
 Red. masses --      3.8775                 2.7541                 4.1559
 Frc consts  --      0.0018                 0.0040                 0.0102
 IR Inten    --      0.0305                 0.0501                 0.7745

                      4                      5                      6
                      A                      A                      A
 Frequencies --     82.6383               109.6998               132.0986
 Red. masses --      4.1087                 4.0380                 4.3045
 Frc consts  --      0.0165                 0.0286                 0.0443
 IR Inten    --      0.0860                 0.6663                 1.6440

                      7                      8                      9
                      A                      A                      A
 Frequencies --    167.8915               214.8078               227.3911
 Red. masses --      2.8275                 2.0564                 3.3242
 Frc consts  --      0.0470                 0.0559                 0.1013
 IR Inten    --      0.7099                 0.7730                 0.3512

                     10                     11                     12
                      A                      A                      A
 Frequencies --    236.4312               246.3735               295.4948
 Red. masses --      2.3684                 2.9915                 2.1693
 Frc consts  --      0.0780                 0.1070                 0.1116
 IR Inten    --      2.1081                 1.3251                 0.5879

                     13                     14                     15
                      A                      A                      A
 Frequencies --    324.8016               349.7207               386.2663
 Red. masses --      2.8028                 5.3225                 1.9955
 Frc consts  --      0.1742                 0.3835                 0.1754
 IR Inten    --      2.4455                 6.1451                 1.8807

                     16                     17                     18
                      A                      A                      A
 Frequencies --    403.5402               421.7017               438.1179
 Red. masses --      4.0161                 3.7187                 3.5648
 Frc consts  --      0.3853                 0.3896                 0.4032
 IR Inten    --      0.9911                 2.8965                 0.5349

                     19                     20                     21
                      A                      A                      A
 Frequencies --    470.9371               479.0450               514.3311
 Red. masses --      3.9022                 3.8724                 1.9757
 Frc consts  --      0.5099                 0.5236                 0.3079
 IR Inten    --      5.2222                10.2366                 4.6695

                     22                     23                     24
                      A                      A                      A
 Frequencies --    566.2416               606.6535               654.4626
 Red. masses --      3.9285                 4.5056                 4.3781
 Frc consts  --      0.7421                 0.9770                 1.1048
 IR Inten    --     10.6027                 7.6479                 9.1243

                     25                     26                     27
                      A                      A                      A
 Frequencies --    667.0528               705.4425               730.2434
 Red. masses --      4.9052                 4.4451                 5.3759
 Frc consts  --      1.2860                 1.3033                 1.6890
 IR Inten    --     17.9992                14.4634                 0.8019

                     28                     29                     30
                      A                      A                      A
 Frequencies --    741.6583               758.7686               773.4671
 Red. masses --      9.9983                 2.7135                 5.3119
 Frc consts  --      3.2403                 0.9204                 1.8724
 IR Inten    --     15.5436                21.3572                 0.7104

                     31                     32                     33
                      A                      A                      A
 Frequencies --    795.3865               805.3579               845.1908
 Red. masses --      1.6052                 1.2925                 2.4373
 Frc consts  --      0.5983                 0.4939                 1.0258
 IR Inten    --     24.4512                13.8344                13.3843

                     34                     35                     36
                      A                      A                      A
 Frequencies --    856.5468               866.0397               883.3784
 Red. masses --      1.5346                 1.4535                 2.0757
 Frc consts  --      0.6634                 0.6423                 0.9544
 IR Inten    --     19.7896                10.3017                 9.8065

                     37                     38                     39
                      A                      A                      A
 Frequencies --    893.1970               918.4776               935.9140
 Red. masses --      4.1818                 2.7567                 1.6309
 Frc consts  --      1.9657                 1.3702                 0.8417
 IR Inten    --      5.2657                 1.1317                 8.9444

                     40                     41                     42
                      A                      A                      A
 Frequencies --    964.1643               986.7516               988.4726
 Red. masses --      2.5306                 1.4463                 1.5572
 Frc consts  --      1.3860                 0.8297                 0.8964
 IR Inten    --     35.7610                 6.2147                 7.4726

                     43                     44                     45
                      A                      A                      A
 Frequencies --   1001.4920              1048.1826              1071.5005
 Red. masses --      2.6913                 2.1691                 1.6864
 Frc consts  --      1.5904                 1.4041                 1.1408
 IR Inten    --     54.6747                10.2804                 3.5027

                     46                     47                     48
                      A                      A                      A
 Frequencies --   1083.2016              1096.7191              1108.9996
 Red. masses --      3.9394                 1.7816                 2.2442
 Frc consts  --      2.7233                 1.2625                 1.6262
 IR Inten    --     59.0041                 4.8722                 2.3774

                     49                     50                     51
                      A                      A                      A
 Frequencies --   1124.3840              1139.7056              1150.7464
 Red. masses --      1.8473                 2.3923                 2.5054
 Frc consts  --      1.3760                 1.8308                 1.9547
 IR Inten    --     10.1401                 3.1220                 7.6296

                     52                     53                     54
                      A                      A                      A
 Frequencies --   1166.6086              1198.4684              1206.6231
 Red. masses --      1.4118                 1.3248                 1.6625
 Frc consts  --      1.1321                 1.1211                 1.4261
 IR Inten    --     13.7752                 5.7049                 0.5364

                     55                     56                     57
                      A                      A                      A
 Frequencies --   1222.5127              1233.0838              1281.9851
 Red. masses --      1.4445                 2.1632                 1.6143
 Frc consts  --      1.2720                 1.9379                 1.5631
 IR Inten    --     16.4521                 3.4540                59.1377

                     58                     59                     60
                      A                      A                      A
 Frequencies --   1293.5352              1320.4745              1328.5877
 Red. masses --      2.1503                 1.2730                 1.3194
 Frc consts  --      2.1198                 1.3078                 1.3722
 IR Inten    --     72.9746                 2.8196                 5.8627

                     61                     62                     63
                      A                      A                      A
 Frequencies --   1340.7055              1353.0127              1370.0053
 Red. masses --      1.3480                 1.5814                 1.9930
 Frc consts  --      1.4276                 1.7057                 2.2039
 IR Inten    --      1.7591                17.2121                15.5921

                     64                     65                     66
                      A                      A                      A
 Frequencies --   1380.4745              1387.1834              1402.0693
 Red. masses --      1.4863                 1.5545                 2.1106
 Frc consts  --      1.6689                 1.7625                 2.4445
 IR Inten    --     25.3983                41.1492                62.6729

                     67                     68                     69
                      A                      A                      A
 Frequencies --   1407.6044              1412.1359              1434.1375
 Red. masses --      1.4767                 1.7209                 2.1630
 Frc consts  --      1.7238                 2.0219                 2.6211
 IR Inten    --     31.3792                26.0937                12.9410

                     70                     71                     72
                      A                      A                      A
 Frequencies --   1442.4482              1448.7708              1501.8211
 Red. masses --      1.3251                 1.4377                 1.3793
 Frc consts  --      1.6244                 1.7780                 1.8329
 IR Inten    --      7.6263                 8.5083                 5.1190

                     73                     74                     75
                      A                      A                      A
 Frequencies --   1507.7471              1512.1322              1518.2179
 Red. masses --      1.5069                 1.0954                 1.2509
 Frc consts  --      2.0184                 1.4757                 1.6988
 IR Inten    --     11.4217                 4.0196                22.7812

                     76                     77                     78
                      A                      A                      A
 Frequencies --   1519.6631              1523.3903              1524.7584
 Red. masses --      1.1456                 1.2961                 1.1357
 Frc consts  --      1.5587                 1.7722                 1.5556
 IR Inten    --     18.1836                17.8251                 1.6812

                     79                     80                     81
                      A                      A                      A
 Frequencies --   1533.8336              1536.8731              1541.4935
 Red. masses --      1.0629                 1.4857                 1.8170
 Frc consts  --      1.4734                 2.0676                 2.5439
 IR Inten    --      5.1191                51.8644               112.7338

                     82                     83                     84
                      A                      A                      A
 Frequencies --   1671.3136              1681.0447              1890.0539
 Red. masses --      7.8444                 7.4836                12.4169
 Frc consts  --     12.9099                12.4600                26.1344
 IR Inten    --     26.3112                31.6728               821.6372

                     85                     86                     87
                      A                      A                      A
 Frequencies --   2915.4085              2924.1204              3023.6042
 Red. masses --      1.0741                 1.0732                 1.0703
 Frc consts  --      5.3789                 5.4065                 5.7653
 IR Inten    --     59.0907               144.7828                19.7606

                     88                     89                     90
                      A                      A                      A
 Frequencies --   3039.1306              3056.8820              3060.1370
 Red. masses --      1.0806                 1.0619                 1.0351
 Frc consts  --      5.8805                 5.8467                 5.7110
 IR Inten    --     59.0957                17.7992                15.8319

                     91                     92                     93
                      A                      A                      A
 Frequencies --   3068.5247              3083.1923              3085.0981
 Red. masses --      1.0671                 1.0886                 1.0909
 Frc consts  --      5.9198                 6.0972                 6.1172
 IR Inten    --     24.3824                64.2349                53.5605

                     94                     95                     96
                      A                      A                      A
 Frequencies --   3086.8329              3101.4804              3125.0731
 Red. masses --      1.0922                 1.1046                 1.1018
 Frc consts  --      6.1316                 6.2604                 6.3396
 IR Inten    --      8.9682                48.1418                10.7884

                     97                     98                     99
                      A                      A                      A
 Frequencies --   3135.5386              3148.3460              3193.8142
 Red. masses --      1.1005                 1.1028                 1.0903
 Frc consts  --      6.3748                 6.4403                 6.5528
 IR Inten    --     25.0992                16.8478                 9.1521

                    100                    101                    102
                      A                      A                      A
 Frequencies --   3219.8713              3230.5505              3504.1197
 Red. masses --      1.0894                 1.0943                 1.0747
 Frc consts  --      6.6543                 6.7291                 7.7748
 IR Inten    --      6.1494                11.9848                 0.5498

 - Thermochemistry -
 -------------------
 Temperature   298.150 Kelvin.  Pressure   1.00000 Atm.
 Atom     1 has atomic number  6 and mass  12.00000

 Molecular mass:   246.13683 amu.
 Principal axes and moments of inertia in atomic units:
                           1         2         3
     Eigenvalues --  1823.652778345.076549248.32162
           X            0.99984   0.01672  -0.00557
           Y           -0.01675   0.99985  -0.00512
           Z            0.00549   0.00521   0.99997
 This molecule is an asymmetric top.
 Rotational symmetry number  1.
 Warning -- assumption of classical behavior for rotation
           may cause significant error
 Rotational temperatures (Kelvin)      0.04749     0.01038     0.00937
 Rotational constants (GHZ):           0.98963     0.21626     0.19514
 Zero-point vibrational energy     810502.7 (Joules/Mol)
                                  193.71479 (Kcal/Mol)
 Warning -- explicit consideration of  23 degrees of freedom as
           vibrations may cause significant error
 Vibrational temperatures:     40.26    71.14    92.75   118.90   157.83
          (Kelvin)            190.06   241.56   309.06   327.17   340.17
                              354.48   425.15   467.32   503.17   555.75
                              580.60   606.73   630.35   677.57   689.24
                              740.01   814.70   872.84   941.63   959.74
                             1014.97  1050.66  1067.08  1091.70  1112.85
                             1144.38  1158.73  1216.04  1232.38  1246.04
                             1270.98  1285.11  1321.48  1346.57  1387.22
                             1419.72  1422.19  1440.92  1508.10  1541.65
                             1558.49  1577.93  1595.60  1617.74  1639.78
                             1655.67  1678.49  1724.33  1736.06  1758.92
                             1774.13  1844.49  1861.11  1899.87  1911.54
                             1928.98  1946.68  1971.13  1986.19  1995.85
                             2017.26  2025.23  2031.75  2063.40  2075.36
                             2084.46  2160.79  2169.31  2175.62  2184.38
                             2186.46  2191.82  2193.79  2206.84  2211.22
                             2217.87  2404.65  2418.65  2719.37  4194.62
                             4207.16  4350.29  4372.63  4398.17  4402.85
                             4414.92  4436.03  4438.77  4441.26  4462.34
                             4496.28  4511.34  4529.77  4595.19  4632.68
                             4648.04  5041.65

 Zero-point correction=                           0.308704 (Hartree/Particle)
 Thermal correction to Energy=                    0.324210
 Thermal correction to Enthalpy=                  0.325154
 Thermal correction to Gibbs Free Energy=         0.265098
 Sum of electronic and zero-point Energies=           -804.073115
 Sum of electronic and thermal Energies=              -804.057609
 Sum of electronic and thermal Enthalpies=            -804.056665
 Sum of electronic and thermal Free Energies=         -804.116721

                     E (Thermal)             CV                S
                      KCal/Mol        Cal/Mol-Kelvin    Cal/Mol-Kelvin
 Total                  203.445             61.270            126.399
 Electronic               0.000              0.000              0.000
 Translational            0.889              2.981             42.403
 Rotational               0.889              2.981             33.309
 Vibrational            201.667             55.309             50.687
 Vibration     1          0.593              1.984              5.968
 Vibration     2          0.595              1.978              4.840
 Vibration     3          0.597              1.971              4.316
 Vibration     4          0.600              1.961              3.827
 Vibration     5          0.606              1.941              3.274
 Vibration     6          0.612              1.921              2.915
 Vibration     7          0.625              1.882              2.459
 Vibration     8          0.645              1.818              2.002
 Vibration     9          0.651              1.799              1.899
 Vibration    10          0.655              1.785              1.830
 Vibration    11          0.661              1.769              1.756
 Vibration    12          0.690              1.682              1.442
 Vibration    13          0.709              1.626              1.286
 Vibration    14          0.727              1.576              1.167
 Vibration    15          0.755              1.500              1.015
 Vibration    16          0.769              1.462              0.950
 Vibration    17          0.784              1.423              0.886
 Vibration    18          0.798              1.387              0.833
 Vibration    19          0.828              1.315              0.735
 Vibration    20          0.835              1.297              0.713
 Vibration    21          0.869              1.218              0.623
 Vibration    22          0.922              1.104              0.512
 Vibration    23          0.965              1.018              0.438

 Optimization completed.
    -- Stationary point found.
 Normal termination of Gaussian 16 at Fri Dec 11 21:14:13 2020.

 ----------------------------------------------------------------------
 # B3LYP/6-311++G(d,p) empiricaldispersion=gd3bj scf=xqc pop=npa geom=c
 heck
 ----------------------------------------------------------------------

 ---------------------------------------
 CID_117368226_JID_8514_Energie_neutraal
 ---------------------------------------
 Structure from the checkpoint file:  "JID_8514.chk"
 Charge =  0 Multiplicity = 1

 SCF Done:  E(RB3LYP) =  -804.598913638     A.U. after   14 cycles
 Normal termination of Gaussian 16 at Fri Dec 11 21:21:08 2020.

 ----------------------------------------------------------------------
 # B3LYP/6-311++G(d,p) empiricaldispersion=gd3bj scf=xqc pop=npa geom=c
 heck
 ----------------------------------------------------------------------

 -------------------------------------
 CID_117368226_JID_8514_Energie_kation
 -------------------------------------
 Structure from the checkpoint file:  "JID_8514.chk"
 Charge =  1 Multiplicity = 2

 SCF Done:  E(UB3LYP) =  -804.319333400     A.U. after   25 cycles
 Normal termination of Gaussian 16 at Fri Dec 11 21:38:42 2020.
 Gaussian 16:  ES64L-G16RevA.03 25-Dec-2016

 ----------------------------------------------------------------------
 # B3LYP/6-311++G(d,p) empiricaldispersion=gd3bj scf=xqc pop=npa geom=c
 heck
 ----------------------------------------------------------------------

 ------------------------------------
 CID_117368226_JID_8514_Energie_anion
 ------------------------------------
 Structure from the checkpoint file:  "JID_8514.chk"
 Charge = -1 Multiplicity = 2

                         Standard orientation:
 ---------------------------------------------------------------------
 Center     Atomic      Atomic             Coordinates (Angstroms)
 Number     Number       Type             X           Y           Z
 ---------------------------------------------------------------------
      1          6           0        3.515022    2.360407   -0.846856
      2          6           0        3.353033    1.619389    0.480453
      3          7           0        2.755068    0.304982    0.311589
      4          6           0        1.415623    0.014514    0.059972
      5          6           0        1.353281   -1.370388   -0.116461
      6          6           0        0.167227   -2.020655   -0.381379
      7          6           0       -0.990459   -1.230390   -0.463554
      8          6           0       -0.952184    0.162538   -0.293928
      9          6           0        0.276565    0.798812   -0.028051
     10          6           0       -2.196176    1.037226   -0.353064
     11          6           0       -2.815597    1.257714    1.049971
     12          6           0       -3.598848    0.029592    1.523774
     13          6           0       -4.654131   -0.353232    0.484050
     14          7           0       -3.998562   -0.616747   -0.797375
     15          6           0       -3.293851    0.555395   -1.319720
     16          8           0        2.619258   -1.905919    0.011308
     17          6           0        3.502140   -0.860313    0.264566
     18          8           0        4.691138   -0.998686    0.412106
     19          1           0        4.178350    1.802115   -1.514536
     20          1           0        3.948341    3.351935   -0.677644
     21          1           0        2.549856    2.487558   -1.348099
     22          1           0        4.322767    1.455990    0.956029
     23          1           0        2.725912    2.188488    1.176075
     24          1           0        0.132642   -3.095994   -0.517600
     25          1           0       -1.948341   -1.697159   -0.660968
     26          1           0        0.323696    1.876551    0.099212
     27          1           0       -1.871644    2.019137   -0.722022
     28          1           0       -2.028896    1.520339    1.766283
     29          1           0       -3.500593    2.115990    0.993441
     30          1           0       -2.916664   -0.815802    1.669888
     31          1           0       -4.081722    0.235167    2.486412
     32          1           0       -5.188522   -1.259022    0.791076
     33          1           0       -5.400344    0.464306    0.414893
     34          1           0       -4.682806   -0.932175   -1.480691
     35          1           0       -3.980343    1.408006   -1.491641
     36          1           0       -2.850276    0.290106   -2.285551
 ---------------------------------------------------------------------

 SCF Done:  E(UB3LYP) =  -804.591079878     A.U. after   33 cycles
 SCF Done:  E(UB3LYP) =  -804.591079878     a.u. after    1 cycles

 The electronic state is 2-A.
 Alpha  occ. eigenvalues --  -19.10596 -19.02514 -14.28774 -14.20336 -10.24448
 Alpha  occ. eigenvalues --  -10.14975 -10.13570 -10.13532 -10.09704 -10.09676
 Alpha  occ. eigenvalues --  -10.09646 -10.09382 -10.09140 -10.08460 -10.08398
 Alpha  occ. eigenvalues --  -10.07943 -10.07267 -10.07047  -1.05344  -0.95900
 Alpha  occ. eigenvalues --   -0.88679  -0.81978  -0.77454  -0.71014  -0.69800
 Alpha  occ. eigenvalues --   -0.67457  -0.66198  -0.64014  -0.58625  -0.55723
 Alpha  occ. eigenvalues --   -0.54660  -0.53682  -0.52283  -0.50755  -0.46636
 Alpha  occ. eigenvalues --   -0.44521  -0.42817  -0.41883  -0.41103  -0.38711
 Alpha  occ. eigenvalues --   -0.37835  -0.37135  -0.36349  -0.35924  -0.35425
 Alpha  occ. eigenvalues --   -0.34142  -0.33565  -0.33178  -0.31821  -0.31189
 Alpha  occ. eigenvalues --   -0.30991  -0.30201  -0.29830  -0.28841  -0.28040
 Alpha  occ. eigenvalues --   -0.26602  -0.26514  -0.25713  -0.23844  -0.23155
 Alpha  occ. eigenvalues --   -0.21987  -0.21829  -0.21523  -0.16014  -0.13937
 Alpha  occ. eigenvalues --   -0.12899   0.03759
 Alpha virt. eigenvalues --    0.05518   0.06425   0.07070   0.07220   0.07866
 Alpha virt. eigenvalues --    0.08190   0.08545   0.08791   0.09328   0.09788
 Alpha virt. eigenvalues --    0.10117   0.10692   0.11099   0.11881   0.11958

  Beta  occ. eigenvalues --  -19.10595 -19.02513 -14.28775 -14.20313 -10.24448
  Beta  occ. eigenvalues --  -10.14975 -10.13552 -10.13528 -10.09683 -10.09667
  Beta  occ. eigenvalues --  -10.09623 -10.09381 -10.09109 -10.08450 -10.08362
  Beta  occ. eigenvalues --  -10.07937 -10.07250 -10.07038  -1.05342  -0.95898
  Beta  occ. eigenvalues --   -0.88672  -0.81942  -0.77434  -0.70982  -0.69770
  Beta  occ. eigenvalues --   -0.67426  -0.66166  -0.63986  -0.58572  -0.55701
  Beta  occ. eigenvalues --   -0.54616  -0.53643  -0.52251  -0.50715  -0.46597
  Beta  occ. eigenvalues --   -0.44492  -0.42759  -0.41852  -0.41067  -0.38690
  Beta  occ. eigenvalues --   -0.37807  -0.37107  -0.36329  -0.35894  -0.35400
  Beta  occ. eigenvalues --   -0.34103  -0.33526  -0.33143  -0.31790  -0.31159
  Beta  occ. eigenvalues --   -0.30966  -0.30166  -0.29810  -0.28801  -0.28007
  Beta  occ. eigenvalues --   -0.26572  -0.26489  -0.25679  -0.23815  -0.23123
  Beta  occ. eigenvalues --   -0.21951  -0.21799  -0.21514  -0.15956  -0.13894
  Beta  occ. eigenvalues --   -0.12864
  Beta virt. eigenvalues --    0.06036   0.06459   0.06646   0.07541   0.07704
  Beta virt. eigenvalues --    0.08179   0.08538   0.08712   0.09187   0.09582
  Beta virt. eigenvalues --    0.10244   0.10463   0.10982   0.11227   0.11972

 Mulliken charges and spin densities:
               1          2
     1  C    0.560615  -0.987876
     2  C   -0.370367   0.100540
     3  N   -0.069412   0.043054
     4  C    0.806404  -0.405943
     5  C   -0.364509   0.344484
     6  C   -0.643042   0.066786
     7  C   -0.662476   0.055696
     8  C    1.510981  -0.665977
     9  C    0.204609  -0.883453
    10  C   -1.217344   1.520004
    11  C    1.214220  -1.809321
    12  C   -1.039619   0.742324
    13  C    0.810588  -1.167073
    14  N   -0.333338   0.141454
    15  C    0.447161  -1.063225
    16  O   -0.143577   0.000453
    17  C    0.472028   0.051265
    18  O   -0.390189  -0.001841
    19  H    0.071799   0.084883
    20  H   -0.367451   0.507456
    21  H   -0.137798   0.299067
    22  H    0.051740   0.145470
    23  H   -0.135897   0.290188
    24  H    0.118302   0.063706
    25  H    0.406738  -0.152438
    26  H   -0.247219   0.442181
    27  H   -0.399432   0.627744
    28  H   -0.085834   0.239962
    29  H   -0.085710   0.235239
    30  H    0.122308  -0.004393
    31  H   -0.087031   0.259305
    32  H   -0.286201   0.445238
    33  H   -0.180379   0.305143
    34  H   -0.089632   0.356699
    35  H   -0.361852   0.508040
    36  H   -0.099184   0.265159
 Sum of Mulliken charges =  -1.00000   1.00000

 Dipole moment (field-independent basis, Debye):
    X=              2.5739    Y=             -4.2382    Z=              0.9944  Tot=              5.0573
 Quadrupole moment (field-independent basis, Debye-Ang):
   XX=           -217.9394   YY=           -159.2647   ZZ=           -138.3389
   XY=              4.4635   XZ=             -4.2118   YZ=              2.2038

 Summary of Natural Population Analysis:

                                       Natural Population
                Natural  -----------------------------------------------
    Atom  No    Charge         Core      Valence    Rydberg      Total
 -----------------------------------------------------------------------
      C    1   -0.29067      0.99966     2.28622    0.00479     3.29067
      C    2   -0.08691      0.99963     2.07631    0.01097     3.08691
      N    3   -0.23956      0.99959     2.73086    0.00910     3.73956
      C    4    0.06614      0.99945     1.92425    0.01017     2.93386
      C    5    0.13527      0.99933     1.85322    0.01219     2.86473
      C    6   -0.11623      0.99951     2.10825    0.00846     3.11623
      C    7   -0.10965      0.99952     2.10239    0.00773     3.10965
      C    8   -0.00558      0.99951     1.99466    0.01141     3.00558
      C    9   -0.11248      0.99948     2.10420    0.00880     3.11248
      C   10   -0.12265      0.99955     2.10900    0.01409     3.12265
      C   11   -0.18384      0.99961     2.17509    0.00914     3.18384
      C   12   -0.19704      0.99962     2.18893    0.00849     3.19704
      C   13   -0.08492      0.99962     2.07393    0.01136     3.08492
      N   14   -0.34730      0.99974     2.83497    0.01259     3.84730
      C   15   -0.08358      0.99961     2.07169    0.01228     3.08358
      O   16   -0.25559      0.99985     3.24954    0.00619     4.25559
      C   17    0.45622      0.99967     1.51787    0.02624     2.54378
      O   18   -0.31318      0.99986     3.30792    0.00540     4.31318
      H   19    0.10022      0.00000     0.39892    0.00087     0.39978
      H   20    0.10430      0.00000     0.39440    0.00130     0.39570
      H   21    0.10437      0.00000     0.39429    0.00134     0.39563
      H   22    0.10936      0.00000     0.38949    0.00115     0.39064
      H   23    0.10049      0.00000     0.39813    0.00137     0.39951
      H   24    0.10643      0.00000     0.39264    0.00093     0.39357
      H   25    0.11984      0.00000     0.37851    0.00165     0.38016
      H   26    0.10945      0.00000     0.38841    0.00215     0.39055
      H   27    0.10776      0.00000     0.38969    0.00254     0.39224
      H   28    0.10119      0.00000     0.39768    0.00113     0.39881
      H   29    0.09798      0.00000     0.40031    0.00171     0.40202
      H   30    0.09858      0.00000     0.39989    0.00154     0.40142
      H   31    0.09918      0.00000     0.40001    0.00082     0.40082
      H   32    0.09441      0.00000     0.40449    0.00109     0.40559
      H   33    0.07761      0.00000     0.42053    0.00187     0.42239
      H   34    0.17782      0.00000     0.31906    0.00312     0.32218
      H   35    0.08433      0.00000     0.41383    0.00184     0.41567
      H   36    0.09821      0.00000     0.40045    0.00134     0.40179
 =======================================================================
   * Total *   -0.00000     17.99282    47.79002    0.21716    66.00000

 Normal termination of Gaussian 16 at Fri Dec 11 22:01:29 2020.
