 Gaussian 16, Revision A.03,

 -----------------------------------------------------------
 # opt freq B3LYP/6-31G(d) empiricaldispersion=gd3bj scf=xqc
 -----------------------------------------------------------

 ------------------------------
 CID_15637033_JID_1129_neutraal
 ------------------------------
 Symbolic Z-matrix:
 Charge =  0 Multiplicity = 1

 SCF Done:  E(RB3LYP) =  -482.017468537     A.U. after   14 cycles
 SCF Done:  E(RB3LYP) =  -482.020563756     A.U. after   12 cycles
 SCF Done:  E(RB3LYP) =  -482.020901310     A.U. after   11 cycles
 SCF Done:  E(RB3LYP) =  -482.020938923     A.U. after   12 cycles
 SCF Done:  E(RB3LYP) =  -482.021160421     A.U. after   10 cycles
 SCF Done:  E(RB3LYP) =  -482.021230551     A.U. after   11 cycles
 SCF Done:  E(RB3LYP) =  -482.021256528     A.U. after   11 cycles
 SCF Done:  E(RB3LYP) =  -482.021266030     A.U. after   10 cycles
 SCF Done:  E(RB3LYP) =  -482.021269213     A.U. after    9 cycles
 SCF Done:  E(RB3LYP) =  -482.021269603     A.U. after    7 cycles
 SCF Done:  E(RB3LYP) =  -482.021269764     A.U. after    7 cycles
 SCF Done:  E(RB3LYP) =  -482.021269847     A.U. after    7 cycles
 Optimization completed.
    -- Stationary point found.
 Normal termination of Gaussian 16 at Tue Dec  8 19:15:36 2020.

 --------------------------------------------------------------------
 #N Geom=AllCheck Guess=TCheck SCRF=Check GenChk RB3LYP/6-31G(d) Freq
 --------------------------------------------------------------------

 Structure from the checkpoint file:  "JID_1129.chk"
 ------------------------------
 CID_15637033_JID_1129_neutraal
 ------------------------------
 Charge =  0 Multiplicity = 1

 SCF Done:  E(RB3LYP) =  -482.021269847     A.U. after    1 cycles

  Exact polarizability: 114.802   2.205  89.140   1.496  -2.724  88.813
 Approx polarizability: 158.774   0.148 123.948   7.494  -5.940 134.458

                      1                      2                      3
                      A                      A                      A
 Frequencies --     45.6298                71.0000               143.9235
 Red. masses --      4.9620                 3.3515                 1.8544
 Frc consts  --      0.0061                 0.0100                 0.0226
 IR Inten    --      0.9376                 1.3880                 0.0784

                      4                      5                      6
                      A                      A                      A
 Frequencies --    211.6819               233.1542               266.4194
 Red. masses --      2.4021                 1.1164                 3.0778
 Frc consts  --      0.0634                 0.0358                 0.1287
 IR Inten    --      3.0376                 0.1769                 2.2385

                      7                      8                      9
                      A                      A                      A
 Frequencies --    288.4978               320.2794               371.0156
 Red. masses --      2.3485                 2.9314                 2.5685
 Frc consts  --      0.1152                 0.1772                 0.2083
 IR Inten    --      0.4921                 1.7704                 0.6019

                     10                     11                     12
                      A                      A                      A
 Frequencies --    387.8945               443.4547               482.2216
 Red. masses --      2.6425                 2.2038                 2.3236
 Frc consts  --      0.2343                 0.2553                 0.3183
 IR Inten    --      0.2240                 1.3220                 0.2776

                     13                     14                     15
                      A                      A                      A
 Frequencies --    560.3205               593.7379               617.8178
 Red. masses --      3.7130                 3.0246                 1.4753
 Frc consts  --      0.6868                 0.6282                 0.3318
 IR Inten    --      3.9755                12.1659                92.7238

                     16                     17                     18
                      A                      A                      A
 Frequencies --    641.2875               760.3578               807.6204
 Red. masses --      3.1772                 3.7356                 3.1505
 Frc consts  --      0.7698                 1.2725                 1.2107
 IR Inten    --     26.0265                 2.8993                 1.1295

                     19                     20                     21
                      A                      A                      A
 Frequencies --    828.9675               851.7175               887.0411
 Red. masses --      1.5205                 1.9955                 2.2414
 Frc consts  --      0.6156                 0.8529                 1.0391
 IR Inten    --      0.2401                 2.5312                 4.2538

                     22                     23                     24
                      A                      A                      A
 Frequencies --    912.8432               947.0835               965.3211
 Red. masses --      2.1798                 1.6257                 1.8928
 Frc consts  --      1.0702                 0.8592                 1.0392
 IR Inten    --      0.4152                 1.3387                 1.1721

                     25                     26                     27
                      A                      A                      A
 Frequencies --    970.5299               979.0238              1007.8237
 Red. masses --      2.0432                 2.0062                 2.3312
 Frc consts  --      1.1339                 1.1329                 1.3951
 IR Inten    --      2.2094                 0.1999                 0.7568

                     28                     29                     30
                      A                      A                      A
 Frequencies --   1038.9188              1049.7730              1066.5852
 Red. masses --      1.5467                 1.6199                 1.8936
 Frc consts  --      0.9836                 1.0518                 1.2692
 IR Inten    --      0.6782                 0.9997                 1.1052

                     31                     32                     33
                      A                      A                      A
 Frequencies --   1082.4347              1124.1055              1151.4610
 Red. masses --      1.3716                 1.5108                 1.0788
 Frc consts  --      0.9469                 1.1248                 0.8427
 IR Inten    --      1.1364                 5.7299                 0.3931

                     34                     35                     36
                      A                      A                      A
 Frequencies --   1179.2939              1195.2154              1222.5428
 Red. masses --      1.7658                 2.2836                 2.0850
 Frc consts  --      1.4469                 1.9220                 1.8361
 IR Inten    --      0.4430                 6.3505                 8.8456

                     37                     38                     39
                      A                      A                      A
 Frequencies --   1245.7660              1273.0286              1288.7489
 Red. masses --      1.6435                 1.5590                 1.3983
 Frc consts  --      1.5027                 1.4886                 1.3683
 IR Inten    --     25.9175                 6.7702                 3.6928

                     40                     41                     42
                      A                      A                      A
 Frequencies --   1293.3534              1307.2211              1311.6314
 Red. masses --      2.4843                 1.4034                 1.7517
 Frc consts  --      2.4485                 1.4130                 1.7755
 IR Inten    --    120.0996                 9.4010                17.2493

                     43                     44                     45
                      A                      A                      A
 Frequencies --   1326.5125              1343.3634              1357.5782
 Red. masses --      1.7475                 1.3161                 1.4980
 Frc consts  --      1.8117                 1.3993                 1.6267
 IR Inten    --      1.5327                 2.0903                 0.2809

                     46                     47                     48
                      A                      A                      A
 Frequencies --   1360.3632              1383.9218              1441.3504
 Red. masses --      1.5372                 1.7610                 1.2827
 Frc consts  --      1.6761                 1.9872                 1.5700
 IR Inten    --      0.2333                 0.8796                 5.1622

                     49                     50                     51
                      A                      A                      A
 Frequencies --   1443.9729              1507.1920              1519.1303
 Red. masses --      1.2004                 1.6594                 1.0859
 Frc consts  --      1.4746                 2.2210                 1.4766
 IR Inten    --     13.9789                39.4057                 2.0439

                     52                     53                     54
                      A                      A                      A
 Frequencies --   1523.8227              1525.7421              1529.5838
 Red. masses --      1.0655                 1.0869                 1.0870
 Frc consts  --      1.4577                 1.4907                 1.4985
 IR Inten    --      1.8769                 8.4133                 3.9453

                     55                     56                     57
                      A                      A                      A
 Frequencies --   1533.7037              1553.8998              1823.1509
 Red. masses --      1.0823                 1.1035                 7.0596
 Frc consts  --      1.5000                 1.5699                13.8254
 IR Inten    --      6.1708                 5.1430               541.6714

                     58                     59                     60
                      A                      A                      A
 Frequencies --   2955.9743              3039.5806              3055.2801
 Red. masses --      1.0845                 1.0361                 1.0621
 Frc consts  --      5.5830                 5.6401                 5.8414
 IR Inten    --     73.7090                21.8905                24.2797

                     61                     62                     63
                      A                      A                      A
 Frequencies --   3058.9338              3060.2779              3065.6354
 Red. masses --      1.0612                 1.0719                 1.0679
 Frc consts  --      5.8503                 5.9149                 5.9133
 IR Inten    --     16.0475                56.5292                41.7093

                     64                     65                     66
                      A                      A                      A
 Frequencies --   3071.1971              3091.2805              3100.8838
 Red. masses --      1.0635                 1.1056                 1.1062
 Frc consts  --      5.9101                 6.2248                 6.2669
 IR Inten    --     15.1171                 4.7068                 4.6254

                     67                     68                     69
                      A                      A                      A
 Frequencies --   3103.6052              3106.2375              3109.1592
 Red. masses --      1.1026                 1.1033                 1.1021
 Frc consts  --      6.2578                 6.2723                 6.2769
 IR Inten    --     10.2433                55.8437                10.4041

                     70                     71                     72
                      A                      A                      A
 Frequencies --   3111.9088              3115.0462              3590.6176
 Red. masses --      1.0985                 1.0962                 1.0756
 Frc consts  --      6.2674                 6.2670                 8.1705
 IR Inten    --     57.0278                89.5680                11.4499

 - Thermochemistry -
 -------------------
 Temperature   298.150 Kelvin.  Pressure   1.00000 Atm.
 Atom     1 has atomic number  6 and mass  12.00000

 Molecular mass:   153.11536 amu.
 Principal axes and moments of inertia in atomic units:
                           1         2         3
     Eigenvalues --   927.037492325.263892578.85356
           X            0.99988   0.01016  -0.01130
           Y           -0.01035   0.99980  -0.01719
           Z            0.01113   0.01730   0.99979
 This molecule is an asymmetric top.
 Rotational symmetry number  1.
 Warning -- assumption of classical behavior for rotation
           may cause significant error
 Rotational temperatures (Kelvin)      0.09343     0.03725     0.03359
 Rotational constants (GHZ):           1.94678     0.77614     0.69982
 Zero-point vibrational energy     611505.0 (Joules/Mol)
                                  146.15320 (Kcal/Mol)
 Warning -- explicit consideration of  15 degrees of freedom as
           vibrations may cause significant error
 Vibrational temperatures:     65.65   102.15   207.07   304.56   335.46
          (Kelvin)            383.32   415.08   460.81   533.81   558.09
                              638.03   693.81   806.18   854.26   888.90
                              922.67  1093.99  1161.99  1192.70  1225.43
                             1276.25  1313.38  1362.64  1388.88  1396.38
                             1408.60  1450.03  1494.77  1510.39  1534.58
                             1557.38  1617.34  1656.70  1696.74  1719.65
                             1758.97  1792.38  1831.60  1854.22  1860.85
                             1880.80  1887.15  1908.56  1932.80  1953.25
                             1957.26  1991.15  2073.78  2077.56  2168.51
                             2185.69  2192.44  2195.20  2200.73  2206.66
                             2235.72  2623.11  4252.99  4373.28  4395.87
                             4401.12  4403.06  4410.77  4418.77  4447.66
                             4461.48  4465.40  4469.18  4473.39  4477.34
                             4481.86  5166.10

 Zero-point correction=                           0.232910 (Hartree/Particle)
 Thermal correction to Energy=                    0.243168
 Thermal correction to Enthalpy=                  0.244112
 Thermal correction to Gibbs Free Energy=         0.196998
 Sum of electronic and zero-point Energies=           -481.788360
 Sum of electronic and thermal Energies=              -481.778102
 Sum of electronic and thermal Enthalpies=            -481.777158
 Sum of electronic and thermal Free Energies=         -481.824272

                     E (Thermal)             CV                S
                      KCal/Mol        Cal/Mol-Kelvin    Cal/Mol-Kelvin
 Total                  152.590             40.475             99.161
 Electronic               0.000              0.000              0.000
 Translational            0.889              2.981             40.988
 Rotational               0.889              2.981             30.098
 Vibrational            150.813             34.513             28.075
 Vibration     1          0.595              1.979              4.998
 Vibration     2          0.598              1.968              4.125
 Vibration     3          0.616              1.909              2.751
 Vibration     4          0.643              1.823              2.029
 Vibration     5          0.654              1.790              1.855
 Vibration     6          0.672              1.735              1.619
 Vibration     7          0.685              1.695              1.483
 Vibration     8          0.706              1.635              1.309
 Vibration     9          0.743              1.532              1.076
 Vibration    10          0.756              1.496              1.008
 Vibration    11          0.803              1.375              0.816
 Vibration    12          0.838              1.289              0.704
 Vibration    13          0.916              1.117              0.523
 Vibration    14          0.951              1.045              0.461
 Vibration    15          0.978              0.994              0.420

 Optimization completed.
    -- Stationary point found.
 Normal termination of Gaussian 16 at Tue Dec  8 19:22:01 2020.

 ----------------------------------------------------------------------
 # B3LYP/6-311++G(d,p) empiricaldispersion=gd3bj scf=xqc pop=npa geom=c
 heck
 ----------------------------------------------------------------------

 --------------------------------------
 CID_15637033_JID_1129_Energie_neutraal
 --------------------------------------
 Structure from the checkpoint file:  "JID_1129.chk"
 Charge =  0 Multiplicity = 1

 SCF Done:  E(RB3LYP) =  -482.159407205     A.U. after   14 cycles
 Normal termination of Gaussian 16 at Tue Dec  8 19:24:47 2020.

 ----------------------------------------------------------------------
 # B3LYP/6-311++G(d,p) empiricaldispersion=gd3bj scf=xqc pop=npa geom=c
 heck
 ----------------------------------------------------------------------

 ------------------------------------
 CID_15637033_JID_1129_Energie_kation
 ------------------------------------
 Structure from the checkpoint file:  "JID_1129.chk"
 Charge =  1 Multiplicity = 2

 SCF Done:  E(UB3LYP) =  -481.829019169     A.U. after   22 cycles
 Normal termination of Gaussian 16 at Tue Dec  8 19:30:59 2020.
 Gaussian 16:  ES64L-G16RevA.03 25-Dec-2016

 ----------------------------------------------------------------------
 # B3LYP/6-311++G(d,p) empiricaldispersion=gd3bj scf=xqc pop=npa geom=c
 heck
 ----------------------------------------------------------------------

 -----------------------------------
 CID_15637033_JID_1129_Energie_anion
 -----------------------------------
 Structure from the checkpoint file:  "JID_1129.chk"
 Charge = -1 Multiplicity = 2

                         Standard orientation:
 ---------------------------------------------------------------------
 Center     Atomic      Atomic             Coordinates (Angstroms)
 Number     Number       Type             X           Y           Z
 ---------------------------------------------------------------------
      1          6           0       -0.023832    2.246901   -0.231011
      2          6           0       -0.612228    0.855200   -0.082705
      3          6           0       -1.009834    0.474781    1.364471
      4          6           0       -1.985147   -0.729036    1.184428
      5          6           0       -2.020723   -0.919558   -0.347969
      6          6           0       -1.920539    0.538440   -0.842035
      7          6           0       -0.659198   -1.492097   -0.794408
      8          6           0        0.303106   -0.270417   -0.656736
      9          7           0        1.503747   -0.551302    0.104987
     10          6           0        2.756678   -0.122386   -0.214952
     11          8           0        3.753025   -0.304643    0.461945
     12          1           0       -0.710703    3.009048    0.154359
     13          1           0        0.184608    2.481243   -1.282233
     14          1           0        0.917441    2.335722    0.324543
     15          1           0       -1.511370    1.323286    1.842292
     16          1           0       -0.137829    0.240731    1.983780
     17          1           0       -1.647841   -1.633713    1.702106
     18          1           0       -2.981575   -0.487897    1.569614
     19          1           0       -2.879340   -1.494386   -0.704360
     20          1           0       -1.814885    0.624679   -1.930430
     21          1           0       -2.759250    1.166590   -0.520741
     22          1           0       -0.334621   -2.332092   -0.170391
     23          1           0       -0.688612   -1.850459   -1.828526
     24          1           0        0.644272    0.050453   -1.647629
     25          1           0        1.424680   -1.040476    0.988781
     26          1           0        2.774890    0.412561   -1.186122
 ---------------------------------------------------------------------

 SCF Done:  E(UB3LYP) =  -482.146937156     A.U. after   33 cycles
 SCF Done:  E(UB3LYP) =  -482.146937156     a.u. after    1 cycles

 The electronic state is 2-A.
 Alpha  occ. eigenvalues --  -19.00088 -14.24664 -10.17734 -10.11470 -10.08115
 Alpha  occ. eigenvalues --  -10.06831 -10.06691 -10.06395 -10.06162 -10.06087
 Alpha  occ. eigenvalues --  -10.05855  -0.94703  -0.84047  -0.76919  -0.65896
 Alpha  occ. eigenvalues --   -0.64440  -0.59929  -0.56840  -0.53373  -0.51892
 Alpha  occ. eigenvalues --   -0.45691  -0.44604  -0.41001  -0.39000  -0.38320
 Alpha  occ. eigenvalues --   -0.36389  -0.33538  -0.32957  -0.31379  -0.31083
 Alpha  occ. eigenvalues --   -0.30186  -0.29363  -0.27923  -0.25581  -0.24547
 Alpha  occ. eigenvalues --   -0.24219  -0.23657  -0.22379  -0.20775  -0.19962
 Alpha  occ. eigenvalues --   -0.17218  -0.15668   0.04488
 Alpha virt. eigenvalues --    0.07040   0.07362   0.08125   0.09216   0.09626
 Alpha virt. eigenvalues --    0.09950   0.10391   0.10594   0.10973   0.12521
 Alpha virt. eigenvalues --    0.12898   0.13254   0.13513   0.13925   0.14537

  Beta  occ. eigenvalues --  -19.00084 -14.24657 -10.17727 -10.11455 -10.08118
  Beta  occ. eigenvalues --  -10.06817 -10.06666 -10.06371 -10.06137 -10.06061
  Beta  occ. eigenvalues --  -10.05821  -0.94695  -0.84031  -0.76890  -0.65860
  Beta  occ. eigenvalues --   -0.64399  -0.59883  -0.56780  -0.53335  -0.51833
  Beta  occ. eigenvalues --   -0.45620  -0.44559  -0.40959  -0.38964  -0.38244
  Beta  occ. eigenvalues --   -0.36347  -0.33518  -0.32933  -0.31348  -0.31055
  Beta  occ. eigenvalues --   -0.30158  -0.29320  -0.27885  -0.25541  -0.24508
  Beta  occ. eigenvalues --   -0.24179  -0.23613  -0.22330  -0.20741  -0.19923
  Beta  occ. eigenvalues --   -0.17198  -0.15650
  Beta virt. eigenvalues --    0.07044   0.07740   0.08343   0.08857   0.09533
  Beta virt. eigenvalues --    0.10247   0.10662   0.10863   0.11074   0.11295
  Beta virt. eigenvalues --    0.13022   0.13368   0.13677   0.14075   0.14233

 Mulliken charges and spin densities:
               1          2
     1  C    1.162462  -1.537898
     2  C   -0.342660   1.264935
     3  C   -0.714933   0.097681
     4  C    2.163518  -2.751263
     5  C   -2.707501   3.190621
     6  C    1.179382  -1.900103
     7  C    1.978551  -2.767655
     8  C   -0.393737  -0.238340
     9  N   -0.079399   0.071588
    10  C    0.328476  -0.184696
    11  O   -0.378004   0.009603
    12  H   -0.181706   0.340927
    13  H   -0.058562   0.207209
    14  H    0.097098   0.046984
    15  H   -0.337178   0.517621
    16  H    0.052137   0.060389
    17  H   -0.197724   0.331360
    18  H   -0.213645   0.371714
    19  H   -1.189497   1.448219
    20  H   -0.461349   0.626011
    21  H   -0.266673   0.439734
    22  H   -0.090784   0.235387
    23  H   -0.385472   0.544662
    24  H   -0.128223   0.355220
    25  H    0.260055   0.030590
    26  H   -0.094631   0.189499
 Sum of Mulliken charges =  -1.00000   1.00000

 Dipole moment (field-independent basis, Debye):
    X=              3.8292    Y=              0.7555    Z=              1.7084  Tot=              4.2606
 Quadrupole moment (field-independent basis, Debye-Ang):
   XX=           -140.7270   YY=           -105.4936   ZZ=           -110.0197
   XY=             -0.7906   XZ=             -4.8534   YZ=             -3.4113

 Summary of Natural Population Analysis:

                                       Natural Population
                Natural  -----------------------------------------------
    Atom  No    Charge         Core      Valence    Rydberg      Total
 -----------------------------------------------------------------------
      C    1   -0.28535      0.99960     2.27828    0.00747     3.28535
      C    2   -0.04182      0.99954     2.02704    0.01524     3.04182
      C    3   -0.19269      0.99959     2.18348    0.00961     3.19269
      C    4   -0.19010      0.99963     2.18133    0.00914     3.19010
      C    5   -0.11079      0.99960     2.09777    0.01342     3.11079
      C    6   -0.18880      0.99958     2.17742    0.01179     3.18880
      C    7   -0.18982      0.99961     2.17985    0.01035     3.18982
      C    8   -0.01018      0.99952     1.99476    0.01590     3.01018
      N    9   -0.31309      0.99967     2.80404    0.00938     3.81309
      C   10    0.27467      0.99973     1.70419    0.02142     2.72533
      O   11   -0.32012      0.99988     3.31400    0.00624     4.32012
      H   12    0.10355      0.00000     0.39552    0.00093     0.39645
      H   13    0.10108      0.00000     0.39787    0.00105     0.39892
      H   14    0.09960      0.00000     0.39922    0.00118     0.40040
      H   15    0.10400      0.00000     0.39468    0.00132     0.39600
      H   16    0.09569      0.00000     0.40293    0.00138     0.40431
      H   17    0.09568      0.00000     0.40303    0.00129     0.40432
      H   18    0.10290      0.00000     0.39529    0.00181     0.39710
      H   19    0.10567      0.00000     0.39143    0.00290     0.39433
      H   20    0.10456      0.00000     0.39287    0.00257     0.39544
      H   21    0.10464      0.00000     0.39340    0.00196     0.39536
      H   22    0.09757      0.00000     0.40083    0.00159     0.40243
      H   23    0.10715      0.00000     0.39100    0.00185     0.39285
      H   24    0.10225      0.00000     0.39506    0.00268     0.39775
      H   25    0.19284      0.00000     0.30462    0.00254     0.30716
      H   26    0.05092      0.00000     0.44749    0.00159     0.44908
 =======================================================================
   * Total *   -0.00000     10.99597    30.84742    0.15661    42.00000

 Normal termination of Gaussian 16 at Tue Dec  8 19:40:16 2020.
