 Gaussian 16, Revision A.03,

 -----------------------------------------------------------
 # opt freq B3LYP/6-31G(d) empiricaldispersion=gd3bj scf=xqc
 -----------------------------------------------------------

 -------------------------------
 CID_151891797_JID_1254_neutraal
 -------------------------------
 Symbolic Z-matrix:
 Charge =  0 Multiplicity = 1

 SCF Done:  E(RB3LYP) =  -907.440539692     A.U. after   17 cycles
 SCF Done:  E(RB3LYP) =  -907.468736785     A.U. after   14 cycles
 SCF Done:  E(RB3LYP) =  -907.471309442     A.U. after   14 cycles
 SCF Done:  E(RB3LYP) =  -907.468280166     A.U. after   15 cycles
 SCF Done:  E(RB3LYP) =  -907.471751226     A.U. after   15 cycles
 SCF Done:  E(RB3LYP) =  -907.471868462     A.U. after   14 cycles
 SCF Done:  E(RB3LYP) =  -907.471762502     A.U. after   15 cycles
 SCF Done:  E(RB3LYP) =  -907.472405972     A.U. after   14 cycles
 SCF Done:  E(RB3LYP) =  -907.472756858     A.U. after   14 cycles
 SCF Done:  E(RB3LYP) =  -907.472909142     A.U. after   16 cycles
 SCF Done:  E(RB3LYP) =  -907.477226211     A.U. after   10 cycles
 SCF Done:  E(RB3LYP) =  -907.477258740     A.U. after   12 cycles
 SCF Done:  E(RB3LYP) =  -907.477262770     A.U. after   10 cycles
 SCF Done:  E(RB3LYP) =  -907.477263262     A.U. after   10 cycles
 SCF Done:  E(RB3LYP) =  -907.477263312     A.U. after    8 cycles
 Optimization completed.
    -- Stationary point found.
 Normal termination of Gaussian 16 at Tue Dec  8 19:36:51 2020.

 --------------------------------------------------------------------
 #N Geom=AllCheck Guess=TCheck SCRF=Check GenChk RB3LYP/6-31G(d) Freq
 --------------------------------------------------------------------

 Structure from the checkpoint file:  "JID_1254.chk"
 -------------------------------
 CID_151891797_JID_1254_neutraal
 -------------------------------
 Charge =  0 Multiplicity = 1

 SCF Done:  E(RB3LYP) =  -907.477263312     A.U. after    1 cycles

  Exact polarizability: 115.152 -23.428  88.018  -4.424   3.263  66.507
 Approx polarizability: 191.398 -59.014 138.015 -25.284  15.368 125.324

                      1                      2                      3
                      A                      A                      A
 Frequencies --     34.7204                43.6101                80.3786
 Red. masses --      5.4641                 1.0916                 5.3720
 Frc consts  --      0.0039                 0.0012                 0.0204
 IR Inten    --      0.8663                 0.0350                 2.0685

                      4                      5                      6
                      A                      A                      A
 Frequencies --     96.8223               132.5258               154.1556
 Red. masses --      5.0861                 4.4327                13.5047
 Frc consts  --      0.0281                 0.0459                 0.1891
 IR Inten    --      0.1141                 3.0583                 0.3910

                      7                      8                      9
                      A                      A                      A
 Frequencies --    186.1384               240.3000               242.5571
 Red. masses --      6.3638                 2.8093                 4.5333
 Frc consts  --      0.1299                 0.0956                 0.1571
 IR Inten    --      2.9186                 4.7238                 5.5275

                     10                     11                     12
                      A                      A                      A
 Frequencies --    293.5798               340.6662               375.3599
 Red. masses --      3.4661                 5.0949                 3.9954
 Frc consts  --      0.1760                 0.3484                 0.3317
 IR Inten    --      0.8135                 6.2452                 0.1231

                     13                     14                     15
                      A                      A                      A
 Frequencies --    399.2570               408.9564               473.0910
 Red. masses --      7.9168                10.5954                 6.1299
 Frc consts  --      0.7435                 1.0441                 0.8083
 IR Inten    --      5.8219                 0.5401                41.4933

                     16                     17                     18
                      A                      A                      A
 Frequencies --    540.1087               555.6557               559.6593
 Red. masses --      9.7205                13.3598                 3.7460
 Frc consts  --      1.6707                 2.4303                 0.6913
 IR Inten    --    102.0493                11.1736                 8.1520

                     19                     20                     21
                      A                      A                      A
 Frequencies --    693.2421               711.7446               714.2894
 Red. masses --      6.3388                 9.9107                 2.9429
 Frc consts  --      1.7948                 2.9580                 0.8847
 IR Inten    --     40.1349                76.2839                 9.4089

                     22                     23                     24
                      A                      A                      A
 Frequencies --    908.2578               949.0977              1032.3757
 Red. masses --      2.0721                 1.9212                 2.5106
 Frc consts  --      1.0071                 1.0197                 1.5765
 IR Inten    --     22.7285                 3.1098                10.1784

                     25                     26                     27
                      A                      A                      A
 Frequencies --   1071.7110              1072.9368              1133.6161
 Red. masses --      1.3977                 1.3901                 7.1319
 Frc consts  --      0.9459                 0.9428                 5.3999
 IR Inten    --      4.8346                 2.8315               144.1991

                     28                     29                     30
                      A                      A                      A
 Frequencies --   1174.8990              1200.8103              1250.0932
 Red. masses --      2.1581                 1.4709                 1.2355
 Frc consts  --      1.7552                 1.2496                 1.1376
 IR Inten    --     34.9505                 7.9234                 8.0950

                     31                     32                     33
                      A                      A                      A
 Frequencies --   1282.3019              1333.4169              1367.8450
 Red. masses --     10.3641                 1.8460                 3.1592
 Frc consts  --     10.0407                 1.9338                 3.4825
 IR Inten    --    139.1939                76.3657               101.9212

                     34                     35                     36
                      A                      A                      A
 Frequencies --   1391.3681              1443.6095              1475.7979
 Red. masses --      1.5336                 1.2417                 1.0878
 Frc consts  --      1.7492                 1.5247                 1.3959
 IR Inten    --     28.2469                 0.5773                 7.2270

                     37                     38                     39
                      A                      A                      A
 Frequencies --   1496.1422              1505.9320              1509.4464
 Red. masses --      1.0890                 1.0397                 1.0403
 Frc consts  --      1.4362                 1.3892                 1.3965
 IR Inten    --      6.8214                 9.4439                 7.4871

                     40                     41                     42
                      A                      A                      A
 Frequencies --   2276.5475              2380.9923              3043.4445
 Red. masses --     13.9672                11.8123                 1.0643
 Frc consts  --     42.6493                39.4548                 5.8081
 IR Inten    --    383.1007                 7.1471                14.1528

                     43                     44                     45
                      A                      A                      A
 Frequencies --   3045.2551              3087.4380              3097.2138
 Red. masses --      1.0347                 1.0926                 1.0647
 Frc consts  --      5.6534                 6.1365                 6.0178
 IR Inten    --     21.5084                 2.3394                 2.3002

                     46                     47                     48
                      A                      A                      A
 Frequencies --   3106.3763              3113.2618              3162.8846
 Red. masses --      1.1015                 1.1016                 1.1061
 Frc consts  --      6.2626                 6.2910                 6.5193
 IR Inten    --     10.1727                 7.6735                 0.3406

 - Thermochemistry -
 -------------------
 Temperature   298.150 Kelvin.  Pressure   1.00000 Atm.
 Atom     1 has atomic number  6 and mass  12.00000

 Molecular mass:   173.02590 amu.
 Principal axes and moments of inertia in atomic units:
                           1         2         3
     Eigenvalues --  1170.639532350.607423052.52985
           X            0.99982  -0.01864   0.00410
           Y            0.01865   0.99983  -0.00146
           Z           -0.00407   0.00153   0.99999
 This molecule is an asymmetric top.
 Rotational symmetry number  1.
 Warning -- assumption of classical behavior for rotation
           may cause significant error
 Rotational temperatures (Kelvin)      0.07399     0.03685     0.02837
 Rotational constants (GHZ):           1.54167     0.76778     0.59123
 Zero-point vibrational energy     336090.2 (Joules/Mol)
                                   80.32748 (Kcal/Mol)
 Warning -- explicit consideration of  18 degrees of freedom as
           vibrations may cause significant error
 Vibrational temperatures:     49.95    62.75   115.65   139.31   190.68
          (Kelvin)            221.80   267.81   345.74   348.99   422.40
                              490.14   540.06   574.44   588.40   680.67
                              777.10   799.46   805.22   997.42  1024.04
                             1027.70  1306.78  1365.54  1485.36  1541.95
                             1543.72  1631.02  1690.42  1727.70  1798.61
                             1844.95  1918.49  1968.02  2001.87  2077.03
                             2123.34  2152.61  2166.70  2171.76  3275.44
                             3425.72  4378.84  4381.44  4442.13  4456.20
                             4469.38  4479.29  4550.69

 Zero-point correction=                           0.128010 (Hartree/Particle)
 Thermal correction to Energy=                    0.140169
 Thermal correction to Enthalpy=                  0.141113
 Thermal correction to Gibbs Free Energy=         0.088405
 Sum of electronic and zero-point Energies=           -907.349253
 Sum of electronic and thermal Energies=              -907.337095
 Sum of electronic and thermal Enthalpies=            -907.336151
 Sum of electronic and thermal Free Energies=         -907.388858

                     E (Thermal)             CV                S
                      KCal/Mol        Cal/Mol-Kelvin    Cal/Mol-Kelvin
 Total                   87.957             41.612            110.932
 Electronic               0.000              0.000              0.000
 Translational            0.889              2.981             41.352
 Rotational               0.889              2.981             30.508
 Vibrational             86.180             35.650             39.072
 Vibration     1          0.594              1.983              5.540
 Vibration     2          0.595              1.980              5.088
 Vibration     3          0.600              1.962              3.882
 Vibration     4          0.603              1.951              3.517
 Vibration     5          0.613              1.921              2.909
 Vibration     6          0.620              1.898              2.620
 Vibration     7          0.632              1.859              2.266
 Vibration     8          0.657              1.779              1.801
 Vibration     9          0.659              1.775              1.784
 Vibration    10          0.688              1.686              1.453
 Vibration    11          0.720              1.594              1.209
 Vibration    12          0.746              1.523              1.058
 Vibration    13          0.765              1.472              0.965
 Vibration    14          0.773              1.451              0.930
 Vibration    15          0.830              1.310              0.729
 Vibration    16          0.895              1.161              0.565
 Vibration    17          0.911              1.127              0.533
 Vibration    18          0.915              1.119              0.525

 Optimization completed.
    -- Stationary point found.
 Normal termination of Gaussian 16 at Tue Dec  8 19:39:52 2020.

 ----------------------------------------------------------------------
 # B3LYP/6-311++G(d,p) empiricaldispersion=gd3bj scf=xqc pop=npa geom=c
 heck
 ----------------------------------------------------------------------

 ---------------------------------------
 CID_151891797_JID_1254_Energie_neutraal
 ---------------------------------------
 Structure from the checkpoint file:  "JID_1254.chk"
 Charge =  0 Multiplicity = 1

 SCF Done:  E(RB3LYP) =  -907.651194553     A.U. after   17 cycles
 Normal termination of Gaussian 16 at Tue Dec  8 19:40:52 2020.

 ----------------------------------------------------------------------
 # B3LYP/6-311++G(d,p) empiricaldispersion=gd3bj scf=xqc pop=npa geom=c
 heck
 ----------------------------------------------------------------------

 -------------------------------------
 CID_151891797_JID_1254_Energie_kation
 -------------------------------------
 Structure from the checkpoint file:  "JID_1254.chk"
 Charge =  1 Multiplicity = 2

 SCF Done:  E(UB3LYP) =  -907.292089551     A.U. after   33 cycles
 SCF Done:  E(UB3LYP) =  -907.293653202     a.u. after    8 cycles
 Normal termination of Gaussian 16 at Tue Dec  8 20:00:02 2020.
 Gaussian 16:  ES64L-G16RevA.03 25-Dec-2016

 ----------------------------------------------------------------------
 # B3LYP/6-311++G(d,p) empiricaldispersion=gd3bj scf=xqc pop=npa geom=c
 heck
 ----------------------------------------------------------------------

 ------------------------------------
 CID_151891797_JID_1254_Energie_anion
 ------------------------------------
 Structure from the checkpoint file:  "JID_1254.chk"
 Charge = -1 Multiplicity = 2

                         Standard orientation:
 ---------------------------------------------------------------------
 Center     Atomic      Atomic             Coordinates (Angstroms)
 Number     Number       Type             X           Y           Z
 ---------------------------------------------------------------------
      1          6           0       -3.718468    0.065652   -0.270459
      2          6           0       -2.487866   -0.689222   -0.054522
      3          6           0       -1.466144   -1.308075    0.128863
      4          6           0       -0.231350   -2.055003    0.358118
      5          6           0        0.964573   -1.569971   -0.469972
      6         16           0        1.564805    0.075443    0.010309
      7          8           0        1.373415    0.270011    1.448134
      8          8           0        2.852378    0.287182   -0.637153
      9          7           0        0.446422    1.120874   -0.863867
     10          7           0       -0.360459    1.700850   -0.117222
     11          7           0       -1.129371    2.281263    0.482380
     12          1           0       -4.594561   -0.505177    0.058786
     13          1           0       -3.855367    0.304691   -1.331713
     14          1           0       -3.700629    1.009378    0.286143
     15          1           0        0.041541   -2.018049    1.419327
     16          1           0       -0.380981   -3.114074    0.108519
     17          1           0        1.837359   -2.212144   -0.315973
     18          1           0        0.748787   -1.510452   -1.539090
 ---------------------------------------------------------------------

 SCF Done:  E(UB3LYP) =  -907.662366870     A.U. after   28 cycles

 The electronic state is 2-A.
 Alpha  occ. eigenvalues --  -88.89874 -18.98117 -18.98017 -14.27963 -14.20073
 Alpha  occ. eigenvalues --  -14.19174 -10.09278 -10.08994 -10.08701 -10.05591
 Alpha  occ. eigenvalues --  -10.05217  -7.96519  -5.92762  -5.92705  -5.92565
 Alpha  occ. eigenvalues --   -0.98577  -0.95602  -0.87418  -0.80350  -0.70667
 Alpha  occ. eigenvalues --   -0.66691  -0.61010  -0.56514  -0.51412  -0.41565
 Alpha  occ. eigenvalues --   -0.39240  -0.36900  -0.35360  -0.35168  -0.33627
 Alpha  occ. eigenvalues --   -0.33086  -0.32696  -0.32352  -0.30677  -0.29722
 Alpha  occ. eigenvalues --   -0.28634  -0.27698  -0.23846  -0.19641  -0.18917
 Alpha  occ. eigenvalues --   -0.17617  -0.15159  -0.14844  -0.14538  -0.11252
 Alpha  occ. eigenvalues --    0.05011
 Alpha virt. eigenvalues --    0.07260   0.08165   0.10410   0.10948   0.11639
 Alpha virt. eigenvalues --    0.12278   0.12980   0.14827   0.15236   0.15732
 Alpha virt. eigenvalues --    0.16306   0.16983   0.17400   0.17477   0.18372

  Beta  occ. eigenvalues --  -88.89711 -18.98057 -18.97970 -14.27467 -14.20053
  Beta  occ. eigenvalues --  -14.18406 -10.09258 -10.08932 -10.08701 -10.05588
  Beta  occ. eigenvalues --  -10.05215  -7.96339  -5.92624  -5.92442  -5.92376
  Beta  occ. eigenvalues --   -0.98131  -0.94721  -0.87265  -0.79716  -0.70582
  Beta  occ. eigenvalues --   -0.66656  -0.60824  -0.56225  -0.50718  -0.41227
  Beta  occ. eigenvalues --   -0.39175  -0.36712  -0.35192  -0.34117  -0.33342
  Beta  occ. eigenvalues --   -0.32749  -0.32475  -0.31704  -0.30409  -0.29415
  Beta  occ. eigenvalues --   -0.27984  -0.26598  -0.23071  -0.19261  -0.18728
  Beta  occ. eigenvalues --   -0.17476  -0.15116  -0.14775  -0.13435  -0.10935
  Beta virt. eigenvalues --    0.07558   0.08414   0.10476   0.11092   0.11703
  Beta virt. eigenvalues --    0.12289   0.12928   0.13133   0.15038   0.15323
  Beta virt. eigenvalues --    0.15784   0.16398   0.16979   0.17598   0.17678

 Mulliken charges and spin densities:
               1          2
     1  C   -0.574800   0.064319
     2  C   -0.081791  -0.076029
     3  C    0.325268  -0.145031
     4  C   -0.329746  -0.015242
     5  C   -0.143897  -0.495785
     6  S    0.468968   0.105846
     7  O   -0.334573   0.009974
     8  O   -0.246342   0.030088
     9  N   -0.745701   0.015310
    10  N    0.626270   0.051327
    11  N   -0.327843   0.500841
    12  H    0.131179  -0.001760
    13  H    0.150445   0.000979
    14  H    0.202786  -0.001976
    15  H    0.184715   0.028342
    16  H   -0.275715   0.438105
    17  H   -0.324120   0.560463
    18  H    0.294897  -0.069771
 Sum of Mulliken charges =  -1.00000   1.00000

 Dipole moment (field-independent basis, Debye):
    X=             -4.3560    Y=             -2.0557    Z=             -1.2028  Tot=              4.9647
 Quadrupole moment (field-independent basis, Debye-Ang):
   XX=            -97.5138   YY=           -100.7956   ZZ=            -86.2654
   XY=              3.0288   XZ=              3.0618   YZ=             -2.0381

 Summary of Natural Population Analysis:

                                       Natural Population
                Natural  -----------------------------------------------
    Atom  No    Charge         Core      Valence    Rydberg      Total
 -----------------------------------------------------------------------
      C    1   -0.32017      0.99961     2.31529    0.00527     3.32017
      C    2   -0.00671      0.99925     2.00113    0.00634     3.00671
      C    3   -0.01195      0.99923     2.00494    0.00778     3.01195
      C    4   -0.23461      0.99957     2.22499    0.01005     3.23461
      C    5   -0.27815      0.99958     2.26628    0.01229     3.27815
      S    6    1.10179      4.99931     1.79971    0.09919     6.89821
      O    7   -0.46327      0.99990     3.45728    0.00608     4.46327
      O    8   -0.46287      0.99990     3.45654    0.00642     4.46287
      N    9   -0.32910      0.99974     2.81454    0.01482     3.82910
      N   10    0.14819      0.99971     2.33614    0.01595     3.35181
      N   11    0.06112      0.99981     2.42642    0.01266     3.43888
      H   12    0.10263      0.00000     0.39646    0.00091     0.39737
      H   13    0.10766      0.00000     0.39144    0.00090     0.39234
      H   14    0.12043      0.00000     0.37857    0.00100     0.37957
      H   15    0.12155      0.00000     0.37704    0.00141     0.37845
      H   16    0.11249      0.00000     0.38601    0.00150     0.38751
      H   17    0.11534      0.00000     0.38204    0.00262     0.38466
      H   18    0.11563      0.00000     0.38341    0.00096     0.38437
 =======================================================================
   * Total *   -0.00000     14.99562    29.79821    0.20617    45.00000

 Normal termination of Gaussian 16 at Tue Dec  8 20:03:54 2020.
