 Gaussian 16, Revision A.03,

 -----------------------------------------------------------
 # opt freq B3LYP/6-31G(d) empiricaldispersion=gd3bj scf=xqc
 -----------------------------------------------------------

 --------------------------------
 CID_151064799_JID_10790_neutraal
 --------------------------------
 Symbolic Z-matrix:
 Charge =  0 Multiplicity = 1

 SCF Done:  E(RB3LYP) =  -1270.19121437     A.U. after   16 cycles
 SCF Done:  E(RB3LYP) =  -1270.19596646     A.U. after   15 cycles
 SCF Done:  E(RB3LYP) =  -1270.19723525     A.U. after   14 cycles
 SCF Done:  E(RB3LYP) =  -1270.19809819     A.U. after   13 cycles
 SCF Done:  E(RB3LYP) =  -1270.19838811     A.U. after   13 cycles
 SCF Done:  E(RB3LYP) =  -1270.19856626     A.U. after   13 cycles
 SCF Done:  E(RB3LYP) =  -1270.19875538     A.U. after   14 cycles
 SCF Done:  E(RB3LYP) =  -1270.19890034     A.U. after   13 cycles
 SCF Done:  E(RB3LYP) =  -1270.19805934     A.U. after   14 cycles
 SCF Done:  E(RB3LYP) =  -1270.20124741     A.U. after   14 cycles
 SCF Done:  E(RB3LYP) =  -1270.20763593     A.U. after   10 cycles
 SCF Done:  E(RB3LYP) =  -1270.20763682     A.U. after    8 cycles
 SCF Done:  E(RB3LYP) =  -1270.20763722     A.U. after    8 cycles
 SCF Done:  E(RB3LYP) =  -1270.20763740     A.U. after    7 cycles
 SCF Done:  E(RB3LYP) =  -1270.20763748     A.U. after    7 cycles
 Optimization completed.
    -- Stationary point found.
 Normal termination of Gaussian 16 at Mon Dec 14 18:00:04 2020.

 --------------------------------------------------------------------
 #N Geom=AllCheck Guess=TCheck SCRF=Check GenChk RB3LYP/6-31G(d) Freq
 --------------------------------------------------------------------

 Structure from the checkpoint file:  "JID_10790.chk"
 --------------------------------
 CID_151064799_JID_10790_neutraal
 --------------------------------
 Charge =  0 Multiplicity = 1

 SCF Done:  E(RB3LYP) =  -1270.20763748     A.U. after    1 cycles

  Exact polarizability: 215.454  17.473 165.062  -3.448  25.709 164.979
 Approx polarizability: 327.737  13.552 261.598  -9.476  65.982 324.134

                      1                      2                      3
                      A                      A                      A
 Frequencies --     22.4382                54.4217                67.0985
 Red. masses --      9.7520                 6.0131                 5.7457
 Frc consts  --      0.0029                 0.0105                 0.0152
 IR Inten    --      0.2119                 1.5558                 2.8544

                      4                      5                      6
                      A                      A                      A
 Frequencies --     69.6549                79.5114                87.6368
 Red. masses --      7.7698                 5.7430                 5.0094
 Frc consts  --      0.0222                 0.0214                 0.0227
 IR Inten    --      0.4316                 3.0709                 0.2115

                      7                      8                      9
                      A                      A                      A
 Frequencies --    112.6894               133.7182               194.6381
 Red. masses --      5.0313                 6.8102                 1.1085
 Frc consts  --      0.0376                 0.0717                 0.0247
 IR Inten    --      0.2300                 0.2498                 0.3282

                     10                     11                     12
                      A                      A                      A
 Frequencies --    203.4755               215.5505               238.5958
 Red. masses --      5.3958                 4.5862                 5.4824
 Frc consts  --      0.1316                 0.1255                 0.1839
 IR Inten    --      1.0308                 1.2708                 0.0047

                     13                     14                     15
                      A                      A                      A
 Frequencies --    262.7936               292.2732               312.4941
 Red. masses --      5.2426                 4.2560                 4.5419
 Frc consts  --      0.2133                 0.2142                 0.2613
 IR Inten    --      2.2973                 3.5470                 0.4394

                     16                     17                     18
                      A                      A                      A
 Frequencies --    323.4326               362.2586               401.9698
 Red. masses --      4.9342                 4.1472                 4.7188
 Frc consts  --      0.3041                 0.3207                 0.4492
 IR Inten    --      2.7965                 6.7433                 0.2048

                     19                     20                     21
                      A                      A                      A
 Frequencies --    425.5791               445.0994               470.8809
 Red. masses --      5.4509                 3.4373                 4.6025
 Frc consts  --      0.5817                 0.4012                 0.6013
 IR Inten    --      3.8736                 7.5452                17.9216

                     22                     23                     24
                      A                      A                      A
 Frequencies --    472.8230               478.2915               513.7464
 Red. masses --      6.4646                 4.2625                 5.3416
 Frc consts  --      0.8515                 0.5745                 0.8306
 IR Inten    --     18.7269                12.6038                35.6679

                     25                     26                     27
                      A                      A                      A
 Frequencies --    541.5806               558.6613               581.0305
 Red. masses --     13.5619                 3.8040                 4.1734
 Frc consts  --      2.3437                 0.6995                 0.8301
 IR Inten    --      9.1719                18.3449                10.0749

                     28                     29                     30
                      A                      A                      A
 Frequencies --    622.8747               636.9629               646.5271
 Red. masses --      4.7360                 6.8140                 5.3987
 Frc consts  --      1.0826                 1.6288                 1.3296
 IR Inten    --     12.8617                 3.9405                27.8128

                     31                     32                     33
                      A                      A                      A
 Frequencies --    679.4245               710.9550               733.5559
 Red. masses --      8.3471                 2.2848                 4.6433
 Frc consts  --      2.2702                 0.6804                 1.4721
 IR Inten    --     16.5204                12.0383                20.9943

                     34                     35                     36
                      A                      A                      A
 Frequencies --    741.6958               763.9681               777.0667
 Red. masses --      4.9063                 2.5138                 1.7257
 Frc consts  --      1.5902                 0.8644                 0.6140
 IR Inten    --     15.0028                37.2648                41.0260

                     37                     38                     39
                      A                      A                      A
 Frequencies --    809.9598               857.5053               880.1779
 Red. masses --      1.4721                 3.3017                 1.6964
 Frc consts  --      0.5690                 1.4304                 0.7743
 IR Inten    --     24.1236                 9.9798                41.2980

                     40                     41                     42
                      A                      A                      A
 Frequencies --    883.1719               895.8667               908.5246
 Red. masses --      2.0620                 1.5901                 4.7089
 Frc consts  --      0.9476                 0.7519                 2.2900
 IR Inten    --     75.3800                20.4350                27.3932

                     43                     44                     45
                      A                      A                      A
 Frequencies --    916.2792               946.4789               979.4050
 Red. masses --      1.4753                 1.3766                 1.2764
 Frc consts  --      0.7298                 0.7266                 0.7214
 IR Inten    --      2.4632                 0.4205                 0.2594

                     46                     47                     48
                      A                      A                      A
 Frequencies --    983.5194              1000.1900              1005.0568
 Red. masses --      1.2664                 1.3506                 1.4055
 Frc consts  --      0.7218                 0.7960                 0.8365
 IR Inten    --      0.1429                 2.9147                26.9516

                     49                     50                     51
                      A                      A                      A
 Frequencies --   1022.0015              1064.0649              1086.3136
 Red. masses --      6.1781                 3.3819                 2.1157
 Frc consts  --      3.8020                 2.2560                 1.4710
 IR Inten    --      2.1125                 1.4501                 4.8452

                     52                     53                     54
                      A                      A                      A
 Frequencies --   1118.3231              1129.6308              1144.9021
 Red. masses --      1.6479                 9.8885                 1.7159
 Frc consts  --      1.2143                 7.4346                 1.3252
 IR Inten    --      3.6772               153.8345                 2.5222

                     55                     56                     57
                      A                      A                      A
 Frequencies --   1167.5890              1197.3563              1200.7555
 Red. masses --      2.6215                 1.0908                 1.1350
 Frc consts  --      2.1056                 0.9214                 0.9642
 IR Inten    --     11.9923                 0.5384                 0.9562

                     58                     59                     60
                      A                      A                      A
 Frequencies --   1251.1570              1274.2312              1315.0047
 Red. masses --      3.2378                 1.6829                 2.0160
 Frc consts  --      2.9862                 1.6099                 2.0540
 IR Inten    --     22.4730                21.6501                 5.2024

                     61                     62                     63
                      A                      A                      A
 Frequencies --   1324.2355              1336.0959              1348.3059
 Red. masses --      4.5975                 2.3023                 8.7006
 Frc consts  --      4.7501                 2.4215                 9.3192
 IR Inten    --     25.8420                37.7731                86.4764

                     64                     65                     66
                      A                      A                      A
 Frequencies --   1362.8172              1378.8590              1382.7465
 Red. masses --      2.7039                 5.0630                 1.2214
 Frc consts  --      2.9588                 5.6715                 1.3759
 IR Inten    --     36.2806               130.8010                 5.1896

                     67                     68                     69
                      A                      A                      A
 Frequencies --   1427.6061              1470.3169              1481.1739
 Red. masses --      1.5032                 2.7995                 1.1112
 Frc consts  --      1.8050                 3.5658                 1.4363
 IR Inten    --     76.9260                29.4725                 8.1077

                     70                     71                     72
                      A                      A                      A
 Frequencies --   1482.4284              1498.8067              1533.7464
 Red. masses --      1.0746                 2.3137                 2.3416
 Frc consts  --      1.3914                 3.0623                 3.2454
 IR Inten    --      0.7526                34.0228                63.1646

                     73                     74                     75
                      A                      A                      A
 Frequencies --   1554.4407              1635.8154              1643.8778
 Red. masses --      2.7744                 5.6279                 6.1715
 Frc consts  --      3.9498                 8.8729                 9.8261
 IR Inten    --     13.5839                42.2313                25.4985

                     76                     77                     78
                      A                      A                      A
 Frequencies --   1654.8625              1665.0302              2268.9786
 Red. masses --      5.6975                 5.9847                13.9862
 Frc consts  --      9.1930                 9.7754                42.4240
 IR Inten    --     38.8169                 8.4923               674.6607

                     79                     80                     81
                      A                      A                      A
 Frequencies --   3098.2231              3184.6849              3190.5052
 Red. masses --      1.0316                 1.0877                 1.1060
 Frc consts  --      5.8341                 6.4995                 6.6331
 IR Inten    --      2.8773                 6.1966                 0.1783

                     82                     83                     84
                      A                      A                      A
 Frequencies --   3194.4308              3197.2547              3204.8984
 Red. masses --      1.0878                 1.0875                 1.0925
 Frc consts  --      6.5403                 6.5500                 6.6117
 IR Inten    --      2.0153                 9.5942                18.3185

                     85                     86                     87
                      A                      A                      A
 Frequencies --   3213.4567              3217.2940              3219.0061
 Red. masses --      1.0908                 1.0976                 1.0915
 Frc consts  --      6.6364                 6.6939                 6.6634
 IR Inten    --      0.8314                21.3106                 6.5608

                     88                     89                     90
                      A                      A                      A
 Frequencies --   3224.6615              3230.9059              3530.0453
 Red. masses --      1.0960                 1.1050                 1.0747
 Frc consts  --      6.7147                 6.7960                 7.8901
 IR Inten    --      8.0021                 4.2104                29.9250

 - Thermochemistry -
 -------------------
 Temperature   298.150 Kelvin.  Pressure   1.00000 Atm.
 Atom     1 has atomic number  6 and mass  12.00000

 Molecular mass:   288.06810 amu.
 Principal axes and moments of inertia in atomic units:
                           1         2         3
     Eigenvalues --  4371.911136982.936618298.41120
           X            0.99936   0.03240   0.01518
           Y           -0.03292   0.99884   0.03523
           Z           -0.01402  -0.03571   0.99926
 This molecule is an asymmetric top.
 Rotational symmetry number  1.
 Warning -- assumption of classical behavior for rotation
           may cause significant error
 Rotational temperatures (Kelvin)      0.01981     0.01240     0.01044
 Rotational constants (GHZ):           0.41280     0.25845     0.21748
 Zero-point vibrational energy     630601.6 (Joules/Mol)
                                  150.71739 (Kcal/Mol)
 Warning -- explicit consideration of  27 degrees of freedom as
           vibrations may cause significant error
 Vibrational temperatures:     32.28    78.30    96.54   100.22   114.40
          (Kelvin)            126.09   162.13   192.39   280.04   292.76
                              310.13   343.29   378.10   420.52   449.61
                              465.35   521.21   578.34   612.31   640.40
                              677.49   680.29   688.15   739.17   779.21
                              803.79   835.97   896.18   916.45   930.21
                              977.54  1022.91  1055.42  1067.13  1099.18
                             1118.03  1165.35  1233.76  1266.38  1270.69
                             1288.95  1307.16  1318.32  1361.77  1409.15
                             1415.07  1439.05  1446.05  1470.43  1530.95
                             1562.96  1609.02  1625.29  1647.26  1679.90
                             1722.73  1727.62  1800.14  1833.33  1892.00
                             1905.28  1922.34  1939.91  1960.79  1983.87
                             1989.46  2054.01  2115.46  2131.08  2132.88
                             2156.45  2206.72  2236.49  2353.57  2365.17
                             2380.98  2395.61  3264.55  4457.65  4582.05
                             4590.43  4596.07  4600.14  4611.13  4623.45
                             4628.97  4631.43  4639.57  4648.55  5078.95

 Zero-point correction=                           0.240183 (Hartree/Particle)
 Thermal correction to Energy=                    0.257790
 Thermal correction to Enthalpy=                  0.258734
 Thermal correction to Gibbs Free Energy=         0.193574
 Sum of electronic and zero-point Energies=          -1269.967454
 Sum of electronic and thermal Energies=             -1269.949848
 Sum of electronic and thermal Enthalpies=           -1269.948903
 Sum of electronic and thermal Free Energies=        -1270.014063

                     E (Thermal)             CV                S
                      KCal/Mol        Cal/Mol-Kelvin    Cal/Mol-Kelvin
 Total                  161.766             67.397            137.140
 Electronic               0.000              0.000              0.000
 Translational            0.889              2.981             42.872
 Rotational               0.889              2.981             33.893
 Vibrational            159.988             61.436             60.376
 Vibration     1          0.593              1.985              6.406
 Vibration     2          0.596              1.976              4.650
 Vibration     3          0.598              1.970              4.237
 Vibration     4          0.598              1.969              4.163
 Vibration     5          0.600              1.963              3.903
 Vibration     6          0.601              1.958              3.712
 Vibration     7          0.607              1.939              3.222
 Vibration     8          0.613              1.920              2.892
 Vibration     9          0.635              1.847              2.183
 Vibration    10          0.639              1.835              2.101
 Vibration    11          0.645              1.817              1.996
 Vibration    12          0.657              1.781              1.813
 Vibration    13          0.670              1.741              1.643
 Vibration    14          0.688              1.688              1.461
 Vibration    15          0.701              1.650              1.349
 Vibration    16          0.708              1.629              1.293
 Vibration    17          0.736              1.550              1.112
 Vibration    18          0.768              1.466              0.955
 Vibration    19          0.787              1.415              0.873
 Vibration    20          0.804              1.372              0.811
 Vibration    21          0.828              1.315              0.735
 Vibration    22          0.830              1.310              0.730
 Vibration    23          0.835              1.298              0.715
 Vibration    24          0.869              1.220              0.625
 Vibration    25          0.897              1.158              0.562
 Vibration    26          0.914              1.121              0.527
 Vibration    27          0.938              1.072              0.483

 Optimization completed.
    -- Stationary point found.
 Normal termination of Gaussian 16 at Mon Dec 14 18:16:54 2020.

 ----------------------------------------------------------------------
 # B3LYP/6-311++G(d,p) empiricaldispersion=gd3bj scf=xqc pop=npa geom=c
 heck
 ----------------------------------------------------------------------

 ----------------------------------------
 CID_151064799_JID_10790_Energie_neutraal
 ----------------------------------------
 Structure from the checkpoint file:  "JID_10790.chk"
 Charge =  0 Multiplicity = 1

 SCF Done:  E(RB3LYP) =  -1270.46977592     A.U. after   18 cycles
 Normal termination of Gaussian 16 at Mon Dec 14 18:25:07 2020.

 ----------------------------------------------------------------------
 # B3LYP/6-311++G(d,p) empiricaldispersion=gd3bj scf=xqc pop=npa geom=c
 heck
 ----------------------------------------------------------------------

 --------------------------------------
 CID_151064799_JID_10790_Energie_kation
 --------------------------------------
 Structure from the checkpoint file:  "JID_10790.chk"
 Charge =  1 Multiplicity = 2

 SCF Done:  E(UB3LYP) =  -1270.17346635     A.U. after   31 cycles
 Normal termination of Gaussian 16 at Mon Dec 14 18:46:04 2020.
 Gaussian 16:  ES64L-G16RevA.03 25-Dec-2016

 ----------------------------------------------------------------------
 # B3LYP/6-311++G(d,p) empiricaldispersion=gd3bj scf=xqc pop=npa geom=c
 heck
 ----------------------------------------------------------------------

 -------------------------------------
 CID_151064799_JID_10790_Energie_anion
 -------------------------------------
 Structure from the checkpoint file:  "JID_10790.chk"
 Charge = -1 Multiplicity = 2

                         Standard orientation:
 ---------------------------------------------------------------------
 Center     Atomic      Atomic             Coordinates (Angstroms)
 Number     Number       Type             X           Y           Z
 ---------------------------------------------------------------------
      1          6           0        0.186477    2.697267    0.408260
      2         16           0       -1.170776    1.998408   -0.536303
      3          8           0       -2.131678    3.076505   -0.795740
      4          8           0       -0.615507    1.184512   -1.616977
      5          7           0       -1.942786    0.961253    0.610990
      6          6           0       -2.065461   -0.425905    0.288853
      7          6           0       -3.301792   -0.937194   -0.115891
      8          6           0       -3.441209   -2.287358   -0.427746
      9          6           0       -2.331449   -3.129868   -0.370671
     10          6           0       -1.096781   -2.618166    0.024615
     11          6           0       -0.947312   -1.273026    0.380661
     12          6           0        0.371824   -0.774863    0.851683
     13          6           0        1.461933   -0.758666   -0.022410
     14          6           0        2.709296   -0.301586    0.419137
     15          6           0        2.873297    0.135167    1.738305
     16          6           0        1.784854    0.112500    2.607803
     17          6           0        0.538204   -0.335453    2.172525
     18          7           0        3.860963   -0.237663   -0.407154
     19          7           0        3.751920   -0.613650   -1.582150
     20          7           0        3.791622   -0.929044   -2.677079
     21          1           0        0.664820    3.432023   -0.243241
     22          1           0        0.883085    1.907167    0.680611
     23          1           0       -0.224052    3.182600    1.294406
     24          1           0       -2.845645    1.392761    0.797746
     25          1           0       -4.151773   -0.264976   -0.200854
     26          1           0       -4.409109   -2.672043   -0.734703
     27          1           0       -2.426228   -4.180568   -0.627292
     28          1           0       -0.230668   -3.270243    0.088457
     29          1           0        1.317659   -1.064909   -1.053298
     30          1           0        3.848417    0.485489    2.059307
     31          1           0        1.911934    0.449200    3.632471
     32          1           0       -0.311870   -0.342529    2.845997
 ---------------------------------------------------------------------

 SCF Done:  E(UB3LYP) =  -1270.47074978     A.U. after   33 cycles
 SCF Done:  E(UB3LYP) =  -1270.47075528     a.u. after    4 cycles

 The electronic state is 2-A.
 Alpha  occ. eigenvalues --  -88.96002 -19.01963 -19.01690 -14.33249 -14.24421
 Alpha  occ. eigenvalues --  -14.24246 -14.23482 -10.10579 -10.10154 -10.09913
 Alpha  occ. eigenvalues --  -10.07128 -10.06507 -10.06436 -10.06359 -10.06255
 Alpha  occ. eigenvalues --  -10.06249 -10.06202 -10.05546 -10.05227 -10.05089
 Alpha  occ. eigenvalues --   -8.02264  -5.98551  -5.98504  -5.98324  -1.01885
 Alpha  occ. eigenvalues --   -1.00735  -0.91130  -0.85554  -0.83213  -0.75172
 Alpha  occ. eigenvalues --   -0.73558  -0.67611  -0.67023  -0.64132  -0.63165
 Alpha  occ. eigenvalues --   -0.61377  -0.53616  -0.53221  -0.51444  -0.49941
 Alpha  occ. eigenvalues --   -0.47487  -0.44210  -0.42428  -0.41951  -0.39209
 Alpha  occ. eigenvalues --   -0.39014  -0.38009  -0.37722  -0.37623  -0.36485
 Alpha  occ. eigenvalues --   -0.35389  -0.34018  -0.33763  -0.33373  -0.32723
 Alpha  occ. eigenvalues --   -0.32496  -0.31401  -0.30846  -0.27702  -0.26805
 Alpha  occ. eigenvalues --   -0.26204  -0.25771  -0.25037  -0.24660  -0.23282
 Alpha  occ. eigenvalues --   -0.22589  -0.21430  -0.21116  -0.20320  -0.18794
 Alpha  occ. eigenvalues --   -0.18513  -0.15518  -0.14123  -0.12754  -0.10185
 Alpha  occ. eigenvalues --    0.04737
 Alpha virt. eigenvalues --    0.06887   0.06994   0.07616   0.08292   0.08474
 Alpha virt. eigenvalues --    0.09048   0.09270   0.09678   0.10176   0.10260
 Alpha virt. eigenvalues --    0.11260   0.11769   0.12091   0.12808   0.13582

  Beta  occ. eigenvalues --  -88.95983 -19.01956 -19.01680 -14.32903 -14.24415
  Beta  occ. eigenvalues --  -14.23865 -14.23536 -10.10570 -10.10016 -10.09821
  Beta  occ. eigenvalues --  -10.07174 -10.06514 -10.06377 -10.06293 -10.06163
  Beta  occ. eigenvalues --  -10.06136 -10.06071 -10.05543 -10.05157 -10.04941
  Beta  occ. eigenvalues --   -8.02244  -5.98508  -5.98491  -5.98310  -1.01851
  Beta  occ. eigenvalues --   -1.00126  -0.91112  -0.85285  -0.83091  -0.74956
  Beta  occ. eigenvalues --   -0.73382  -0.67552  -0.66702  -0.63940  -0.63030
  Beta  occ. eigenvalues --   -0.61143  -0.53426  -0.53013  -0.51261  -0.49768
  Beta  occ. eigenvalues --   -0.47266  -0.44088  -0.42352  -0.41824  -0.39083
  Beta  occ. eigenvalues --   -0.38563  -0.37683  -0.37552  -0.37044  -0.36405
  Beta  occ. eigenvalues --   -0.35142  -0.33917  -0.33546  -0.33063  -0.32576
  Beta  occ. eigenvalues --   -0.32234  -0.31088  -0.30471  -0.27552  -0.26381
  Beta  occ. eigenvalues --   -0.25974  -0.25535  -0.24947  -0.24563  -0.23124
  Beta  occ. eigenvalues --   -0.22533  -0.21364  -0.21083  -0.20055  -0.18408
  Beta  occ. eigenvalues --   -0.17878  -0.14873  -0.13778  -0.12124  -0.09719
  Beta virt. eigenvalues --    0.06874   0.07466   0.08231   0.08508   0.08643
  Beta virt. eigenvalues --    0.09118   0.09301   0.09430   0.10070   0.10665
  Beta virt. eigenvalues --    0.11131   0.11256   0.11879   0.12095   0.12752

 Mulliken charges and spin densities:
               1          2
     1  C   -0.522324  -0.023301
     2  S    0.410035  -0.109936
     3  O   -0.152693   0.002566
     4  O   -0.189094   0.005255
     5  N   -0.182815   0.050060
     6  C   -0.048738   0.136929
     7  C    0.065377  -0.103790
     8  C   -0.216414   0.037556
     9  C   -0.461415   0.056449
    10  C   -0.278082  -0.014609
    11  C    0.047153   0.103851
    12  C    1.443143   0.074800
    13  C   -0.360383   0.175955
    14  C   -1.352426  -0.055850
    15  C    0.278386  -0.069179
    16  C   -0.290834   0.039149
    17  C   -0.731765  -0.128679
    18  N    0.098530   0.097602
    19  N    0.240894   0.008546
    20  N   -0.366046   0.188055
    21  H    0.187565   0.010251
    22  H    0.241948  -0.051887
    23  H    0.063368   0.128574
    24  H    0.262711   0.055427
    25  H    0.069942   0.049824
    26  H    0.108093   0.008018
    27  H    0.132257  -0.006009
    28  H    0.159762   0.001715
    29  H    0.228052  -0.005636
    30  H   -0.009365   0.164141
    31  H    0.006561   0.148608
    32  H    0.118617   0.025548
 Sum of Mulliken charges =  -1.00000   1.00000

 Dipole moment (field-independent basis, Debye):
    X=             -3.8321    Y=              0.9412    Z=              3.5280  Tot=              5.2932
 Quadrupole moment (field-independent basis, Debye-Ang):
   XX=           -175.9089   YY=           -144.0242   ZZ=           -154.6046
   XY=              8.2144   XZ=              4.8463   YZ=              3.5117

 Summary of Natural Population Analysis:

                                       Natural Population
                Natural  -----------------------------------------------
    Atom  No    Charge         Core      Valence    Rydberg      Total
 -----------------------------------------------------------------------
      C    1   -0.38744      0.99959     2.37823    0.00962     3.38744
      S    2    1.08758      4.99936     1.81408    0.09897     6.91242
      O    3   -0.47228      0.99991     3.46711    0.00526     4.47228
      O    4   -0.44806      0.99990     3.44271    0.00545     4.44806
      N    5   -0.42304      0.99971     2.91049    0.01285     3.92304
      C    6    0.09051      0.99941     1.89619    0.01389     2.90949
      C    7   -0.11819      0.99952     2.11037    0.00830     3.11819
      C    8   -0.07986      0.99958     2.07135    0.00894     3.07986
      C    9   -0.09461      0.99957     2.08642    0.00862     3.09461
      C   10   -0.09182      0.99953     2.08472    0.00757     3.09182
      C   11    0.00255      0.99944     1.98589    0.01212     2.99745
      C   12   -0.00627      0.99950     1.99524    0.01152     3.00627
      C   13   -0.11734      0.99947     2.10885    0.00902     3.11734
      C   14    0.07296      0.99942     1.91498    0.01263     2.92704
      C   15   -0.09412      0.99952     2.08466    0.00994     3.09412
      C   16   -0.11014      0.99957     2.09990    0.01067     3.11014
      C   17   -0.09905      0.99952     2.09059    0.00895     3.09905
      N   18   -0.19890      0.99965     2.68566    0.01360     3.69890
      N   19    0.14668      0.99971     2.33715    0.01647     3.35332
      N   20    0.00011      0.99982     2.48764    0.01243     3.49989
      H   21    0.11232      0.00000     0.38680    0.00089     0.38768
      H   22    0.12946      0.00000     0.36911    0.00143     0.37054
      H   23    0.11312      0.00000     0.38581    0.00107     0.38688
      H   24    0.19462      0.00000     0.30306    0.00231     0.30538
      H   25    0.09643      0.00000     0.40242    0.00115     0.40357
      H   26    0.09272      0.00000     0.40588    0.00140     0.40728
      H   27    0.09402      0.00000     0.40504    0.00094     0.40598
      H   28    0.10017      0.00000     0.39868    0.00115     0.39983
      H   29    0.11029      0.00000     0.38858    0.00113     0.38971
      H   30    0.10143      0.00000     0.39721    0.00136     0.39857
      H   31    0.09644      0.00000     0.40279    0.00077     0.40356
      H   32    0.09973      0.00000     0.39903    0.00124     0.40027
 =======================================================================
   * Total *   -0.00000     23.99169    50.69664    0.31167    75.00000

 Normal termination of Gaussian 16 at Mon Dec 14 20:25:26 2020.
