 Gaussian 16, Revision A.03,

 -----------------------------------------------------------
 # opt freq B3LYP/6-31G(d) empiricaldispersion=gd3bj scf=xqc
 -----------------------------------------------------------

 ------------------------------
 CID_43086234_JID_6195_neutraal
 ------------------------------
 Symbolic Z-matrix:
 Charge =  0 Multiplicity = 1

 SCF Done:  E(RB3LYP) =  -713.061888702     A.U. after   14 cycles
 SCF Done:  E(RB3LYP) =  -713.066101344     A.U. after   12 cycles
 SCF Done:  E(RB3LYP) =  -713.061858690     A.U. after   12 cycles
 SCF Done:  E(RB3LYP) =  -713.065630090     A.U. after   11 cycles
 SCF Done:  E(RB3LYP) =  -713.067008351     A.U. after    9 cycles
 SCF Done:  E(RB3LYP) =  -713.068030360     A.U. after   11 cycles
 SCF Done:  E(RB3LYP) =  -713.068534477     A.U. after   12 cycles
 SCF Done:  E(RB3LYP) =  -713.068621683     A.U. after   11 cycles
 SCF Done:  E(RB3LYP) =  -713.068829268     A.U. after   10 cycles
 SCF Done:  E(RB3LYP) =  -713.068928747     A.U. after   10 cycles
 SCF Done:  E(RB3LYP) =  -713.069082984     A.U. after    9 cycles
 SCF Done:  E(RB3LYP) =  -713.069085846     A.U. after    9 cycles
 SCF Done:  E(RB3LYP) =  -713.069088154     A.U. after    9 cycles
 SCF Done:  E(RB3LYP) =  -713.069090721     A.U. after    9 cycles
 SCF Done:  E(RB3LYP) =  -713.069091439     A.U. after    7 cycles
 SCF Done:  E(RB3LYP) =  -713.069091704     A.U. after    7 cycles
 Optimization completed.
    -- Stationary point found.
 Normal termination of Gaussian 16 at Thu Dec 10 21:31:06 2020.

 --------------------------------------------------------------------
 #N Geom=AllCheck Guess=TCheck SCRF=Check GenChk RB3LYP/6-31G(d) Freq
 --------------------------------------------------------------------

 Structure from the checkpoint file:  "JID_6195.chk"
 ------------------------------
 CID_43086234_JID_6195_neutraal
 ------------------------------
 Charge =  0 Multiplicity = 1

 SCF Done:  E(RB3LYP) =  -713.069091704     A.U. after    1 cycles

  Exact polarizability: 176.377  -4.745 144.729   1.957  -2.876 132.802
 Approx polarizability: 212.238   2.244 215.679   0.614  -8.340 193.281

                      1                      2                      3
                      A                      A                      A
 Frequencies --     18.1158                41.2928                50.6964
 Red. masses --      3.5885                 3.6577                 4.1735
 Frc consts  --      0.0007                 0.0037                 0.0063
 IR Inten    --      0.6728                 0.6745                 2.2494

                      4                      5                      6
                      A                      A                      A
 Frequencies --     68.1762                73.9402                98.7587
 Red. masses --      3.7005                 3.6140                 2.3452
 Frc consts  --      0.0101                 0.0116                 0.0135
 IR Inten    --      1.0126                 0.4689                 0.2355

                      7                      8                      9
                      A                      A                      A
 Frequencies --    111.1579               114.9625               129.8572
 Red. masses --      2.3054                 2.1199                 1.4067
 Frc consts  --      0.0168                 0.0165                 0.0140
 IR Inten    --      0.1174                 0.2187                 0.2739

                     10                     11                     12
                      A                      A                      A
 Frequencies --    142.2692               170.4052               189.1792
 Red. masses --      2.2661                 1.9944                 1.9439
 Frc consts  --      0.0270                 0.0341                 0.0410
 IR Inten    --      0.8799                 3.2237                 0.6580

                     13                     14                     15
                      A                      A                      A
 Frequencies --    207.8711               219.0593               223.6796
 Red. masses --      1.8218                 1.7911                 1.6056
 Frc consts  --      0.0464                 0.0506                 0.0473
 IR Inten    --      0.5816                 1.8053                 2.2285

                     16                     17                     18
                      A                      A                      A
 Frequencies --    230.6190               238.5586               260.6540
 Red. masses --      1.5540                 1.1119                 2.7693
 Frc consts  --      0.0487                 0.0373                 0.1109
 IR Inten    --      0.8142                 0.1434                 4.3964

                     19                     20                     21
                      A                      A                      A
 Frequencies --    276.2809               301.2910               319.6663
 Red. masses --      1.3877                 2.5722                 2.1112
 Frc consts  --      0.0624                 0.1376                 0.1271
 IR Inten    --      0.5100                 0.0447                 1.3161

                     22                     23                     24
                      A                      A                      A
 Frequencies --    329.1439               357.1507               387.3519
 Red. masses --      3.1658                 2.6291                 3.0086
 Frc consts  --      0.2021                 0.1976                 0.2660
 IR Inten    --      1.0469                 1.1735                 7.1046

                     25                     26                     27
                      A                      A                      A
 Frequencies --    406.2383               421.2299               436.4964
 Red. masses --      3.0200                 2.4274                 1.8319
 Frc consts  --      0.2936                 0.2538                 0.2056
 IR Inten    --      6.6584                 3.2338                 0.6314

                     28                     29                     30
                      A                      A                      A
 Frequencies --    496.5781               545.8263               584.9520
 Red. masses --      2.2567                 3.0709                 2.9585
 Frc consts  --      0.3279                 0.5390                 0.5964
 IR Inten    --      3.4362                 8.3111                 9.6020

                     31                     32                     33
                      A                      A                      A
 Frequencies --    664.3348               713.7899               729.1762
 Red. masses --      4.1066                 2.6262                 3.1316
 Frc consts  --      1.0678                 0.7884                 0.9810
 IR Inten    --      9.8324                 1.9600                 3.6097

                     34                     35                     36
                      A                      A                      A
 Frequencies --    739.5347               783.1751               794.4612
 Red. masses --      3.7420                 1.9372                 1.1869
 Frc consts  --      1.2058                 0.7001                 0.4414
 IR Inten    --     12.9871                27.6375                 3.2010

                     37                     38                     39
                      A                      A                      A
 Frequencies --    802.7014               818.7916               865.4122
 Red. masses --      1.2539                 1.2663                 2.6036
 Frc consts  --      0.4760                 0.5002                 1.1489
 IR Inten    --      7.8285                13.5018                 4.8710

                     40                     41                     42
                      A                      A                      A
 Frequencies --    915.8832               921.6293               967.2484
 Red. masses --      1.6947                 2.0613                 2.2249
 Frc consts  --      0.8376                 1.0316                 1.2264
 IR Inten    --      5.5858                 1.6075                 1.9913

                     43                     44                     45
                      A                      A                      A
 Frequencies --    983.5860              1007.7733              1039.0013
 Red. masses --      1.9579                 2.0695                 1.9603
 Frc consts  --      1.1160                 1.2383                 1.2469
 IR Inten    --      7.0687                24.5215                 8.1083

                     46                     47                     48
                      A                      A                      A
 Frequencies --   1058.0685              1081.5299              1092.3526
 Red. masses --      1.8176                 2.3685                 1.4523
 Frc consts  --      1.1989                 1.6323                 1.0210
 IR Inten    --     48.9989                 2.2005                 8.1188

                     49                     50                     51
                      A                      A                      A
 Frequencies --   1097.0642              1100.4934              1114.6063
 Red. masses --      1.8430                 2.1711                 2.3380
 Frc consts  --      1.3069                 1.5492                 1.7114
 IR Inten    --      1.1877                 4.5718                16.0157

                     52                     53                     54
                      A                      A                      A
 Frequencies --   1132.1826              1137.7241              1141.1861
 Red. masses --      1.8085                 1.3856                 1.7405
 Frc consts  --      1.3658                 1.0567                 1.3355
 IR Inten    --     23.7855                 1.6674                17.7227

                     55                     56                     57
                      A                      A                      A
 Frequencies --   1148.8498              1173.8922              1181.2007
 Red. masses --      2.6894                 1.7860                 1.3604
 Frc consts  --      2.0913                 1.4500                 1.1183
 IR Inten    --     84.8471                92.9818                 6.3479

                     58                     59                     60
                      A                      A                      A
 Frequencies --   1215.3344              1234.5457              1261.2159
 Red. masses --      1.6390                 2.2521                 1.7942
 Frc consts  --      1.4263                 2.0223                 1.6815
 IR Inten    --      4.7218                17.3272                28.1298

                     61                     62                     63
                      A                      A                      A
 Frequencies --   1270.7823              1300.8945              1307.2793
 Red. masses --      1.6352                 2.7946                 1.6547
 Frc consts  --      1.5559                 2.7865                 1.6661
 IR Inten    --      5.0161                42.3520                 1.4927

                     64                     65                     66
                      A                      A                      A
 Frequencies --   1328.8228              1340.5503              1372.5784
 Red. masses --      1.1225                 1.3601                 1.3195
 Frc consts  --      1.1679                 1.4400                 1.4647
 IR Inten    --      3.4808                 7.8066                14.7541

                     67                     68                     69
                      A                      A                      A
 Frequencies --   1381.5572              1394.5438              1405.1140
 Red. masses --      1.2236                 1.3768                 1.2617
 Frc consts  --      1.3760                 1.5775                 1.4677
 IR Inten    --     13.9235                16.4010                15.3872

                     70                     71                     72
                      A                      A                      A
 Frequencies --   1413.3975              1422.4699              1425.7903
 Red. masses --      1.3469                 1.3676                 1.4233
 Frc consts  --      1.5853                 1.6305                 1.7048
 IR Inten    --     13.9996                16.7644                20.1400

                     73                     74                     75
                      A                      A                      A
 Frequencies --   1428.7392              1435.7618              1438.7017
 Red. masses --      1.2595                 1.2681                 1.7788
 Frc consts  --      1.5148                 1.5402                 2.1693
 IR Inten    --      3.4256                15.0822                82.0225

                     76                     77                     78
                      A                      A                      A
 Frequencies --   1440.6384              1449.7911              1452.2520
 Red. masses --      1.3038                 1.3527                 1.2644
 Frc consts  --      1.5943                 1.6752                 1.5712
 IR Inten    --     20.2243                16.6534                 4.8784

                     79                     80                     81
                      A                      A                      A
 Frequencies --   1497.4333              1500.8092              1503.9055
 Red. masses --      1.2300                 1.1046                 1.0742
 Frc consts  --      1.6249                 1.4659                 1.4315
 IR Inten    --     33.9413                 7.8721                 0.2120

                     82                     83                     84
                      A                      A                      A
 Frequencies --   1510.7381              1511.8931              1518.1415
 Red. masses --      1.0895                 1.0956                 1.0508
 Frc consts  --      1.4651                 1.4755                 1.4269
 IR Inten    --     10.6802                15.2414                 5.8843

                     85                     86                     87
                      A                      A                      A
 Frequencies --   1523.3716              1525.4300              1530.2011
 Red. masses --      1.0535                 1.0521                 1.0468
 Frc consts  --      1.4404                 1.4425                 1.4442
 IR Inten    --     13.6474                 8.7699                 6.1881

                     88                     89                     90
                      A                      A                      A
 Frequencies --   1530.4250              1532.4275              1534.6971
 Red. masses --      1.0591                 1.0524                 1.0624
 Frc consts  --      1.4615                 1.4561                 1.4743
 IR Inten    --      5.4921                 9.8385                 7.3218

                     91                     92                     93
                      A                      A                      A
 Frequencies --   1537.1197              1543.9464              1547.4895
 Red. masses --      1.0757                 1.0864                 1.0904
 Frc consts  --      1.4975                 1.5259                 1.5385
 IR Inten    --     14.3671                10.3074                 6.8581

                     94                     95                     96
                      A                      A                      A
 Frequencies --   1555.8921              1557.8494              1750.8739
 Red. masses --      1.1420                 1.1599                 9.2058
 Frc consts  --      1.6289                 1.6585                16.6273
 IR Inten    --     14.5860                35.7241               274.3866

                     97                     98                     99
                      A                      A                      A
 Frequencies --   2964.5016              2974.5246              3011.1875
 Red. masses --      1.0725                 1.0708                 1.0670
 Frc consts  --      5.5534                 5.5820                 5.7001
 IR Inten    --     72.9086                73.0543                52.4447

                    100                    101                    102
                      A                      A                      A
 Frequencies --   3025.1057              3029.8136              3044.3737
 Red. masses --      1.0691                 1.0408                 1.0617
 Frc consts  --      5.7645                 5.6294                 5.7977
 IR Inten    --     29.9362                61.2719                41.4749

                    103                    104                    105
                      A                      A                      A
 Frequencies --   3047.9835              3050.7642              3051.2469
 Red. masses --      1.0387                 1.0373                 1.0386
 Frc consts  --      5.6856                 5.6882                 5.6973
 IR Inten    --     38.3664                19.3706                31.9708

                    106                    107                    108
                      A                      A                      A
 Frequencies --   3052.4167              3061.4499              3068.0134
 Red. masses --      1.0395                 1.0873                 1.0958
 Frc consts  --      5.7061                 6.0039                 6.0769
 IR Inten    --      9.2652                24.6184                23.1525

                    109                    110                    111
                      A                      A                      A
 Frequencies --   3071.9022              3077.1329              3080.7324
 Red. masses --      1.0877                 1.0971                 1.1023
 Frc consts  --      6.0474                 6.1208                 6.1640
 IR Inten    --     33.6703                19.5321                43.4749

                    112                    113                    114
                      A                      A                      A
 Frequencies --   3094.6761              3099.3575              3110.0020
 Red. masses --      1.0976                 1.0889                 1.1005
 Frc consts  --      6.1935                 6.1631                 6.2713
 IR Inten    --     75.4261                 5.6173                24.5848

                    115                    116                    117
                      A                      A                      A
 Frequencies --   3112.2737              3112.9075              3119.8828
 Red. masses --      1.1006                 1.0998                 1.0989
 Frc consts  --      6.2813                 6.2793                 6.3021
 IR Inten    --     64.0673                53.0355                42.4422

                    118                    119                    120
                      A                      A                      A
 Frequencies --   3128.1227              3131.9008              3141.0072
 Red. masses --      1.1020                 1.1028                 1.1000
 Frc consts  --      6.3533                 6.3734                 6.3942
 IR Inten    --     34.8730                29.9313                36.6520

                    121                    122                    123
                      A                      A                      A
 Frequencies --   3152.9589              3194.8321              3540.2803
 Red. masses --      1.0983                 1.0956                 1.0727
 Frc consts  --      6.4328                 6.5886                 7.9212
 IR Inten    --     27.2204                 1.8146                 0.8557

 - Thermochemistry -
 -------------------
 Temperature   298.150 Kelvin.  Pressure   1.00000 Atm.
 Atom     1 has atomic number  6 and mass  12.00000

 Molecular mass:   229.21541 amu.
 Principal axes and moments of inertia in atomic units:
                           1         2         3
     Eigenvalues --  1944.213767358.203657780.98680
           X            0.99982  -0.01790   0.00601
           Y            0.01787   0.99983   0.00453
           Z           -0.00609  -0.00442   0.99997
 This molecule is an asymmetric top.
 Rotational symmetry number  1.
 Warning -- assumption of classical behavior for rotation
           may cause significant error
 Rotational temperatures (Kelvin)      0.04455     0.01177     0.01113
 Rotational constants (GHZ):           0.92826     0.24527     0.23194
 Zero-point vibrational energy    1038597.0 (Joules/Mol)
                                  248.23065 (Kcal/Mol)
 Warning -- explicit consideration of  30 degrees of freedom as
           vibrations may cause significant error
 Vibrational temperatures:     26.06    59.41    72.94    98.09   106.38
          (Kelvin)            142.09   159.93   165.41   186.84   204.69
                              245.18   272.19   299.08   315.18   321.83
                              331.81   343.23   375.02   397.51   433.49
                              459.93   473.56   513.86   557.31   584.49
                              606.06   628.02   714.47   785.32   841.62
                              955.83  1026.98  1049.12  1064.03  1126.81
                             1143.05  1154.91  1178.06  1245.14  1317.75
                             1326.02  1391.65  1415.16  1449.96  1494.89
                             1522.32  1556.08  1571.65  1578.43  1583.36
                             1603.67  1628.96  1636.93  1641.91  1652.94
                             1688.97  1699.48  1748.60  1776.24  1814.61
                             1828.37  1871.70  1880.88  1911.88  1928.75
                             1974.83  1987.75  2006.44  2021.65  2033.56
                             2046.62  2051.39  2055.64  2065.74  2069.97
                             2072.76  2085.93  2089.47  2154.47  2159.33
                             2163.78  2173.62  2175.28  2184.27  2191.79
                             2194.75  2201.62  2201.94  2204.82  2208.09
                             2211.57  2221.39  2226.49  2238.58  2241.40
                             2519.12  4265.26  4279.68  4332.43  4352.45
                             4359.23  4380.17  4385.37  4389.37  4390.06
                             4391.75  4404.74  4414.19  4419.78  4427.31
                             4432.49  4452.55  4459.28  4474.60  4477.87
                             4478.78  4488.82  4500.67  4506.11  4519.21
                             4536.40  4596.65  5093.67

 Zero-point correction=                           0.395581 (Hartree/Particle)
 Thermal correction to Energy=                    0.415740
 Thermal correction to Enthalpy=                  0.416684
 Thermal correction to Gibbs Free Energy=         0.346308
 Sum of electronic and zero-point Energies=           -712.673511
 Sum of electronic and thermal Energies=              -712.653352
 Sum of electronic and thermal Enthalpies=            -712.652407
 Sum of electronic and thermal Free Energies=         -712.722784

                     E (Thermal)             CV                S
                      KCal/Mol        Cal/Mol-Kelvin    Cal/Mol-Kelvin
 Total                  260.881             73.204            148.119
 Electronic               0.000              0.000              0.000
 Translational            0.889              2.981             42.191
 Rotational               0.889              2.981             33.076
 Vibrational            259.103             67.242             72.853
 Vibration     1          0.593              1.986              6.831
 Vibration     2          0.594              1.981              5.196
 Vibration     3          0.595              1.977              4.790
 Vibration     4          0.598              1.969              4.205
 Vibration     5          0.599              1.966              4.046
 Vibration     6          0.604              1.950              3.479
 Vibration     7          0.607              1.940              3.249
 Vibration     8          0.608              1.937              3.183
 Vibration     9          0.612              1.923              2.948
 Vibration    10          0.616              1.911              2.773
 Vibration    11          0.626              1.879              2.431
 Vibration    12          0.633              1.855              2.236
 Vibration    13          0.641              1.829              2.062
 Vibration    14          0.647              1.812              1.967
 Vibration    15          0.649              1.805              1.929
 Vibration    16          0.652              1.794              1.874
 Vibration    17          0.657              1.782              1.814
 Vibration    18          0.669              1.745              1.657
 Vibration    19          0.678              1.717              1.557
 Vibration    20          0.693              1.671              1.410
 Vibration    21          0.706              1.636              1.312
 Vibration    22          0.712              1.617              1.264
 Vibration    23          0.732              1.561              1.134
 Vibration    24          0.756              1.497              1.010
 Vibration    25          0.771              1.457              0.940
 Vibration    26          0.784              1.424              0.888
 Vibration    27          0.797              1.391              0.838
 Vibration    28          0.852              1.258              0.667
 Vibration    29          0.901              1.149              0.553
 Vibration    30          0.942              1.064              0.476

                           ! Non-Optimized Parameters !
 Normal termination of Gaussian 16 at Thu Dec 10 21:49:23 2020.

 ----------------------------------------------------------------------
 # B3LYP/6-311++G(d,p) empiricaldispersion=gd3bj scf=xqc pop=npa geom=c
 heck
 ----------------------------------------------------------------------

 --------------------------------------
 CID_43086234_JID_6195_Energie_neutraal
 --------------------------------------
 Structure from the checkpoint file:  "JID_6195.chk"
 Charge =  0 Multiplicity = 1

 SCF Done:  E(RB3LYP) =  -713.276647908     A.U. after   14 cycles
 Normal termination of Gaussian 16 at Thu Dec 10 21:59:05 2020.

 ----------------------------------------------------------------------
 # B3LYP/6-311++G(d,p) empiricaldispersion=gd3bj scf=xqc pop=npa geom=c
 heck
 ----------------------------------------------------------------------

 ------------------------------------
 CID_43086234_JID_6195_Energie_kation
 ------------------------------------
 Structure from the checkpoint file:  "JID_6195.chk"
 Charge =  1 Multiplicity = 2

 SCF Done:  E(UB3LYP) =  -713.004679007     A.U. after   31 cycles
 Normal termination of Gaussian 16 at Thu Dec 10 22:29:17 2020.
 Gaussian 16:  ES64L-G16RevA.03 25-Dec-2016

 ----------------------------------------------------------------------
 # B3LYP/6-311++G(d,p) empiricaldispersion=gd3bj scf=xqc pop=npa geom=c
 heck
 ----------------------------------------------------------------------

 -----------------------------------
 CID_43086234_JID_6195_Energie_anion
 -----------------------------------
 Structure from the checkpoint file:  "JID_6195.chk"
 Charge = -1 Multiplicity = 2

                         Standard orientation:
 ---------------------------------------------------------------------
 Center     Atomic      Atomic             Coordinates (Angstroms)
 Number     Number       Type             X           Y           Z
 ---------------------------------------------------------------------
      1          6           0        1.582937    2.441945    0.788973
      2          6           0        2.348502    1.122219    0.919161
      3          7           0        3.003656    0.712208   -0.314110
      4          6           0        4.234910   -0.045391   -0.144890
      5          6           0        4.153985   -1.374180    0.627467
      6          6           0        2.184780    0.393346   -1.474555
      7          6           0        1.558600   -1.013491   -1.610757
      8          6           0        0.611880   -1.453570   -0.492602
      9          7           0       -0.513474   -0.527589   -0.352795
     10          6           0       -1.500059   -0.935509    0.657467
     11          6           0       -1.238480   -0.386265    2.070715
     12          6           0       -2.961047   -0.696694    0.227398
     13          8           0       -3.767872   -1.612182    0.377456
     14          7           0       -3.338190    0.526735   -0.268115
     15          6           0       -2.444542    1.643470   -0.523484
     16          6           0       -4.692800    0.675294   -0.781219
     17          1           0        2.247353    3.232382    0.426133
     18          1           0        1.175903    2.739922    1.761919
     19          1           0        0.740952    2.374049    0.090667
     20          1           0        3.141838    1.265623    1.662955
     21          1           0        1.679943    0.353174    1.344176
     22          1           0        4.646528   -0.229439   -1.145211
     23          1           0        4.957912    0.603238    0.371854
     24          1           0        3.531282   -2.113130    0.115876
     25          1           0        5.157086   -1.801301    0.746173
     26          1           0        3.739144   -1.223007    1.630391
     27          1           0        1.387133    1.141620   -1.539874
     28          1           0        2.806052    0.554357   -2.366722
     29          1           0        1.001245   -1.025873   -2.556938
     30          1           0        2.356239   -1.759883   -1.706109
     31          1           0        0.198577   -2.435522   -0.751193
     32          1           0        1.177500   -1.590014    0.445870
     33          1           0       -0.148010    0.389797   -0.117828
     34          1           0       -1.462596   -2.026028    0.716156
     35          1           0       -1.272636    0.708881    2.096769
     36          1           0       -1.989612   -0.762695    2.772833
     37          1           0       -0.249945   -0.701380    2.422519
     38          1           0       -1.931613    1.555132   -1.489043
     39          1           0       -3.035612    2.564625   -0.520165
     40          1           0       -1.695057    1.743235    0.263124
     41          1           0       -5.248209   -0.229479   -0.540477
     42          1           0       -5.180747    1.542838   -0.320131
     43          1           0       -4.683619    0.819804   -1.870286
 ---------------------------------------------------------------------

 SCF Done:  E(UB3LYP) =  -713.265558333     A.U. after   30 cycles

 The electronic state is 2-A.
 Alpha  occ. eigenvalues --  -18.99183 -14.25247 -14.21227 -14.20638 -10.17463
 Alpha  occ. eigenvalues --  -10.11947 -10.11016 -10.10607 -10.10507 -10.10266
 Alpha  occ. eigenvalues --  -10.10261 -10.10168 -10.07902 -10.07689 -10.06833
 Alpha  occ. eigenvalues --  -10.06775  -0.94471  -0.84410  -0.83202  -0.82089
 Alpha  occ. eigenvalues --   -0.69643  -0.67218  -0.66048  -0.63262  -0.62855
 Alpha  occ. eigenvalues --   -0.60716  -0.58224  -0.54402  -0.53932  -0.51479
 Alpha  occ. eigenvalues --   -0.46496  -0.45461  -0.41852  -0.41185  -0.39132
 Alpha  occ. eigenvalues --   -0.38736  -0.38586  -0.37658  -0.36525  -0.35486
 Alpha  occ. eigenvalues --   -0.34586  -0.33567  -0.33236  -0.32555  -0.32048
 Alpha  occ. eigenvalues --   -0.31958  -0.30917  -0.30872  -0.29846  -0.29211
 Alpha  occ. eigenvalues --   -0.29141  -0.28170  -0.27828  -0.27309  -0.27085
 Alpha  occ. eigenvalues --   -0.26018  -0.25782  -0.24911  -0.24557  -0.23707
 Alpha  occ. eigenvalues --   -0.17235  -0.15276  -0.13835  -0.11172   0.03921
 Alpha virt. eigenvalues --    0.05549   0.06506   0.06888   0.07443   0.08188
 Alpha virt. eigenvalues --    0.08440   0.09079   0.09421   0.09627   0.09912
 Alpha virt. eigenvalues --    0.10337   0.10757   0.11576   0.11868   0.11949

  Beta  occ. eigenvalues --  -18.99182 -14.25244 -14.21220 -14.20640 -10.17462
  Beta  occ. eigenvalues --  -10.11945 -10.10977 -10.10602 -10.10484 -10.10248
  Beta  occ. eigenvalues --  -10.10247 -10.10148 -10.07878 -10.07680 -10.06810
  Beta  occ. eigenvalues --  -10.06742  -0.94468  -0.84399  -0.83191  -0.82079
  Beta  occ. eigenvalues --   -0.69625  -0.67183  -0.66022  -0.63214  -0.62821
  Beta  occ. eigenvalues --   -0.60674  -0.58187  -0.54368  -0.53864  -0.51443
  Beta  occ. eigenvalues --   -0.46454  -0.45417  -0.41830  -0.41167  -0.39101
  Beta  occ. eigenvalues --   -0.38710  -0.38562  -0.37633  -0.36500  -0.35462
  Beta  occ. eigenvalues --   -0.34564  -0.33540  -0.33209  -0.32534  -0.32025
  Beta  occ. eigenvalues --   -0.31925  -0.30884  -0.30842  -0.29809  -0.29178
  Beta  occ. eigenvalues --   -0.29116  -0.28140  -0.27801  -0.27293  -0.27039
  Beta  occ. eigenvalues --   -0.25997  -0.25754  -0.24885  -0.24536  -0.23685
  Beta  occ. eigenvalues --   -0.17227  -0.15260  -0.13825  -0.11163
  Beta virt. eigenvalues --    0.05921   0.06458   0.06973   0.07273   0.07785
  Beta virt. eigenvalues --    0.08732   0.08836   0.09361   0.09636   0.09921
  Beta virt. eigenvalues --    0.10202   0.10566   0.10890   0.11702   0.12058

 Mulliken charges and spin densities:
               1          2
     1  C    0.790661  -1.276934
     2  C   -0.978042   0.632055
     3  N    0.275654  -0.019703
     4  C    0.113329  -0.365527
     5  C    0.162388  -0.584881
     6  C   -0.548943   0.099026
     7  C   -0.081205  -0.305599
     8  C   -0.137670  -0.052882
     9  N    0.222872  -0.002628
    10  C   -1.041327   0.580322
    11  C    0.353203  -0.820738
    12  C   -0.206638   0.175148
    13  O   -0.342095   0.003319
    14  N   -0.048153   0.100006
    15  C    0.167310  -0.648223
    16  C    0.261266  -0.549410
    17  H   -0.123679   0.288752
    18  H   -0.132611   0.287132
    19  H   -0.243432   0.353475
    20  H   -0.476886   0.627659
    21  H    0.593330  -0.513928
    22  H   -0.053340   0.168705
    23  H   -0.052259   0.220819
    24  H   -0.036544   0.156506
    25  H   -0.380040   0.528321
    26  H   -0.089337   0.237919
    27  H   -0.016718   0.142288
    28  H   -0.225185   0.396620
    29  H    0.069125   0.088120
    30  H    0.092559   0.051013
    31  H    0.069219   0.075388
    32  H    0.390191  -0.200749
    33  H    1.515736  -1.426621
    34  H    0.138977   0.049638
    35  H   -0.032113   0.186889
    36  H   -0.004959   0.186243
    37  H   -0.230310   0.380899
    38  H    0.030608   0.165803
    39  H   -0.779402   0.941806
    40  H    0.058753   0.112510
    41  H    0.098515   0.080895
    42  H   -0.079163   0.236039
    43  H   -0.063645   0.214509
 Sum of Mulliken charges =  -1.00000   1.00000

 Dipole moment (field-independent basis, Debye):
    X=             -0.0656    Y=             -3.2742    Z=             -1.5206  Tot=              3.6107
 Quadrupole moment (field-independent basis, Debye-Ang):
   XX=           -202.6178   YY=           -156.6952   ZZ=           -143.6488
   XY=              1.9158   XZ=             -4.8739   YZ=              0.3443

 Summary of Natural Population Analysis:

                                       Natural Population
                Natural  -----------------------------------------------
    Atom  No    Charge         Core      Valence    Rydberg      Total
 -----------------------------------------------------------------------
      C    1   -0.28796      0.99966     2.28231    0.00599     3.28796
      C    2   -0.08595      0.99961     2.07523    0.01110     3.08595
      N    3   -0.28759      0.99972     2.77308    0.01480     3.78759
      C    4   -0.07976      0.99962     2.06881    0.01132     3.07976
      C    5   -0.29714      0.99966     2.29227    0.00521     3.29714
      C    6   -0.08342      0.99959     2.07196    0.01186     3.08342
      C    7   -0.20185      0.99962     2.19400    0.00823     3.20185
      C    8   -0.08519      0.99962     2.07694    0.00863     3.08519
      N    9   -0.35315      0.99973     2.84310    0.01032     3.85315
      C   10   -0.04537      0.99956     2.03377    0.01205     3.04537
      C   11   -0.29181      0.99964     2.28640    0.00576     3.29181
      C   12    0.35079      0.99961     1.62632    0.02329     2.64921
      O   13   -0.33393      0.99988     3.32894    0.00512     4.33393
      N   14   -0.25267      0.99965     2.74272    0.01030     3.75267
      C   15   -0.17485      0.99963     2.16667    0.00856     3.17485
      C   16   -0.17940      0.99964     2.17181    0.00796     3.17940
      H   17    0.10151      0.00000     0.39707    0.00141     0.39849
      H   18    0.10183      0.00000     0.39702    0.00115     0.39817
      H   19    0.09053      0.00000     0.40766    0.00181     0.40947
      H   20    0.09680      0.00000     0.40182    0.00139     0.40320
      H   21    0.07875      0.00000     0.41850    0.00276     0.42125
      H   22    0.09171      0.00000     0.40723    0.00106     0.40829
      H   23    0.09114      0.00000     0.40758    0.00127     0.40886
      H   24    0.09439      0.00000     0.40438    0.00123     0.40561
      H   25    0.09865      0.00000     0.40003    0.00133     0.40135
      H   26    0.09793      0.00000     0.40088    0.00119     0.40207
      H   27    0.09500      0.00000     0.40351    0.00148     0.40500
      H   28    0.09460      0.00000     0.40428    0.00112     0.40540
      H   29    0.09983      0.00000     0.39894    0.00122     0.40017
      H   30    0.09601      0.00000     0.40295    0.00105     0.40399
      H   31    0.09347      0.00000     0.40541    0.00112     0.40653
      H   32    0.08083      0.00000     0.41756    0.00161     0.41917
      H   33    0.17849      0.00000     0.31677    0.00474     0.32151
      H   34    0.10601      0.00000     0.39215    0.00184     0.39399
      H   35    0.09905      0.00000     0.39960    0.00135     0.40095
      H   36    0.10530      0.00000     0.39384    0.00087     0.39470
      H   37    0.10148      0.00000     0.39743    0.00109     0.39852
      H   38    0.09859      0.00000     0.39992    0.00149     0.40141
      H   39    0.10072      0.00000     0.39748    0.00180     0.39928
      H   40    0.09632      0.00000     0.40183    0.00186     0.40368
      H   41    0.11481      0.00000     0.38411    0.00109     0.38519
      H   42    0.09413      0.00000     0.40481    0.00106     0.40587
      H   43    0.09137      0.00000     0.40766    0.00097     0.40863
 =======================================================================
   * Total *    0.00000     15.99442    47.80473    0.20085    64.00000

 Normal termination of Gaussian 16 at Thu Dec 10 22:59:01 2020.
