 Gaussian 16, Revision A.03,

 -----------------------------------------------------------
 # opt freq B3LYP/6-31G(d) empiricaldispersion=gd3bj scf=xqc
 -----------------------------------------------------------

 ------------------------------
 CID_11008684_JID_4768_neutraal
 ------------------------------
 Symbolic Z-matrix:
 Charge =  0 Multiplicity = 1

 SCF Done:  E(RB3LYP) =  -576.423685668     A.U. after   15 cycles
 SCF Done:  E(RB3LYP) =  -576.447027859     A.U. after   13 cycles
 SCF Done:  E(RB3LYP) =  -576.448646499     A.U. after   12 cycles
 SCF Done:  E(RB3LYP) =  -576.449153517     A.U. after   13 cycles
 SCF Done:  E(RB3LYP) =  -576.449674274     A.U. after   12 cycles
 SCF Done:  E(RB3LYP) =  -576.449834624     A.U. after   12 cycles
 SCF Done:  E(RB3LYP) =  -576.449909351     A.U. after   11 cycles
 SCF Done:  E(RB3LYP) =  -576.449936526     A.U. after   11 cycles
 SCF Done:  E(RB3LYP) =  -576.449940837     A.U. after    9 cycles
 SCF Done:  E(RB3LYP) =  -576.449942672     A.U. after    8 cycles
 SCF Done:  E(RB3LYP) =  -576.449942928     A.U. after    8 cycles
 SCF Done:  E(RB3LYP) =  -576.449942955     A.U. after    7 cycles
 Optimization completed.
    -- Stationary point found.
 Normal termination of Gaussian 16 at Thu Dec 10 10:36:04 2020.

 --------------------------------------------------------------------
 #N Geom=AllCheck Guess=TCheck SCRF=Check GenChk RB3LYP/6-31G(d) Freq
 --------------------------------------------------------------------

 Structure from the checkpoint file:  "JID_4768.chk"
 ------------------------------
 CID_11008684_JID_4768_neutraal
 ------------------------------
 Charge =  0 Multiplicity = 1

 SCF Done:  E(RB3LYP) =  -576.449942955     A.U. after    1 cycles

  Exact polarizability: 138.304 -18.551 125.256  15.792   5.685 115.346
 Approx polarizability: 178.678 -40.155 208.076  34.562   6.991 195.326

                      1                      2                      3
                      A                      A                      A
 Frequencies --     25.6980                40.6168                52.4343
 Red. masses --      4.5654                 3.7101                 5.1034
 Frc consts  --      0.0018                 0.0036                 0.0083
 IR Inten    --      0.7912                 0.2863                 0.7996

                      4                      5                      6
                      A                      A                      A
 Frequencies --     58.9278               103.6483               138.6866
 Red. masses --      3.4385                 2.7135                 6.3558
 Frc consts  --      0.0070                 0.0172                 0.0720
 IR Inten    --      0.7084                 0.1974                 4.4990

                      7                      8                      9
                      A                      A                      A
 Frequencies --    158.5976               200.7238               232.4902
 Red. masses --      2.8575                 2.0196                 4.0125
 Frc consts  --      0.0423                 0.0479                 0.1278
 IR Inten    --      3.1699                 0.1338                 5.1337

                     10                     11                     12
                      A                      A                      A
 Frequencies --    263.0276               271.6013               314.3366
 Red. masses --      3.1576                 1.9714                 2.1539
 Frc consts  --      0.1287                 0.0857                 0.1254
 IR Inten    --      6.2860                 0.6505                 0.9015

                     13                     14                     15
                      A                      A                      A
 Frequencies --    361.7865               413.9016               418.9947
 Red. masses --      1.9776                 2.9921                 3.9661
 Frc consts  --      0.1525                 0.3020                 0.4102
 IR Inten    --      1.4618                 0.4390                 3.6586

                     16                     17                     18
                      A                      A                      A
 Frequencies --    458.2122               509.6860               562.7894
 Red. masses --      2.6665                 4.1149                 4.0995
 Frc consts  --      0.3299                 0.6298                 0.7650
 IR Inten    --      1.4796                 2.9376                 4.7074

                     19                     20                     21
                      A                      A                      A
 Frequencies --    582.9263               625.3840               637.7146
 Red. masses --      4.3754                 2.8575                 6.2136
 Frc consts  --      0.8760                 0.6585                 1.4888
 IR Inten    --      5.2193                 7.3271                 0.1041

                     22                     23                     24
                      A                      A                      A
 Frequencies --    709.4920               728.8822               761.8685
 Red. masses --      1.8698                 1.8464                 1.3104
 Frc consts  --      0.5546                 0.5779                 0.4482
 IR Inten    --     42.0152                52.4615                30.5817

                     25                     26                     27
                      A                      A                      A
 Frequencies --    766.3028               831.6395               847.9732
 Red. masses --      2.2734                 2.1372                 2.4765
 Frc consts  --      0.7866                 0.8709                 1.0492
 IR Inten    --     19.0514                 1.1779                49.3629

                     28                     29                     30
                      A                      A                      A
 Frequencies --    856.1012               886.5323               916.8386
 Red. masses --      1.2561                 2.6949                 1.4361
 Frc consts  --      0.5424                 1.2479                 0.7112
 IR Inten    --      0.9449                 0.6168                 0.4964

                     31                     32                     33
                      A                      A                      A
 Frequencies --    937.6557               952.3704               961.6939
 Red. masses --      1.5236                 1.9927                 1.3644
 Frc consts  --      0.7893                 1.0649                 0.7435
 IR Inten    --     15.2837                 3.6514                 0.3704

                     34                     35                     36
                      A                      A                      A
 Frequencies --    994.3966              1015.2299              1022.5544
 Red. masses --      1.2568                 1.7533                 6.1904
 Frc consts  --      0.7322                 1.0647                 3.8137
 IR Inten    --      0.3412                 2.2114                 0.7385

                     37                     38                     39
                      A                      A                      A
 Frequencies --   1055.7787              1060.9535              1090.7202
 Red. masses --      2.4823                 2.2158                 2.2041
 Frc consts  --      1.6303                 1.4695                 1.5449
 IR Inten    --      4.3576                 2.0498                 5.8304

                     40                     41                     42
                      A                      A                      A
 Frequencies --   1118.4904              1136.7896              1147.2882
 Red. masses --      1.6939                 2.5800                 1.9216
 Frc consts  --      1.2485                 1.9644                 1.4903
 IR Inten    --      3.9473                47.3936                 5.8590

                     43                     44                     45
                      A                      A                      A
 Frequencies --   1154.8395              1195.2253              1214.8280
 Red. masses --      2.1427                 1.0997                 1.1316
 Frc consts  --      1.6837                 0.9256                 0.9839
 IR Inten    --     27.8259                 0.1028                 0.3166

                     46                     47                     48
                      A                      A                      A
 Frequencies --   1234.1208              1239.4907              1272.1033
 Red. masses --      3.1586                 1.3262                 1.3176
 Frc consts  --      2.8344                 1.2004                 1.2563
 IR Inten    --      8.7929                 0.7226                 0.4992

                     49                     50                     51
                      A                      A                      A
 Frequencies --   1314.9417              1344.8997              1359.9183
 Red. masses --      1.3122                 1.1963                 1.7368
 Frc consts  --      1.3368                 1.2748                 1.8925
 IR Inten    --      1.6469                 2.9695                 4.0415

                     52                     53                     54
                      A                      A                      A
 Frequencies --   1368.9513              1377.2900              1391.6493
 Red. masses --      2.3330                 1.2792                 1.3568
 Frc consts  --      2.5759                 1.4297                 1.5481
 IR Inten    --      0.4624                 3.7389                 4.4175

                     55                     56                     57
                      A                      A                      A
 Frequencies --   1401.3967              1404.9089              1444.8291
 Red. masses --      1.3416                 1.3628                 1.2608
 Frc consts  --      1.5523                 1.5848                 1.5507
 IR Inten    --      7.1990                 8.6719                 5.0653

                     58                     59                     60
                      A                      A                      A
 Frequencies --   1502.7082              1506.0716              1512.4481
 Red. masses --      1.1064                 2.1370                 1.0832
 Frc consts  --      1.4720                 2.8559                 1.4599
 IR Inten    --      1.4763                 7.6854                 2.3929

                     61                     62                     63
                      A                      A                      A
 Frequencies --   1521.3450              1522.8392              1533.1922
 Red. masses --      1.0773                 1.1717                 1.0641
 Frc consts  --      1.4691                 1.6010                 1.4737
 IR Inten    --      6.1686                 9.0039                 4.7436

                     64                     65                     66
                      A                      A                      A
 Frequencies --   1540.7665              1548.2702              1650.0245
 Red. masses --      1.0603                 2.2000                 5.5450
 Frc consts  --      1.4830                 3.1071                 8.8947
 IR Inten    --      8.9749                 4.0680                 0.8437

                     67                     68                     69
                      A                      A                      A
 Frequencies --   1669.2672              2348.4133              3043.7504
 Red. masses --      5.6170                12.6424                 1.0447
 Frc consts  --      9.2216                41.0797                 5.7024
 IR Inten    --      0.4436                 2.1559                18.2341

                     70                     71                     72
                      A                      A                      A
 Frequencies --   3047.8503              3051.4239              3055.9014
 Red. masses --      1.0558                 1.0601                 1.0616
 Frc consts  --      5.7786                 5.8158                 5.8412
 IR Inten    --     12.1300                42.7571                30.2247

                     73                     74                     75
                      A                      A                      A
 Frequencies --   3071.5453              3081.8295              3095.3539
 Red. masses --      1.0820                 1.1020                 1.1055
 Frc consts  --      6.0145                 6.1669                 6.2407
 IR Inten    --      6.4890                 5.2443                19.1095

                     76                     77                     78
                      A                      A                      A
 Frequencies --   3102.8352              3113.4810              3119.6512
 Red. masses --      1.1015                 1.1023                 1.1011
 Frc consts  --      6.2480                 6.2957                 6.3138
 IR Inten    --     17.0447                61.8142                42.7440

                     79                     80                     81
                      A                      A                      A
 Frequencies --   3166.2020              3170.6576              3189.7621
 Red. masses --      1.0879                 1.0876                 1.0882
 Frc consts  --      6.4255                 6.4419                 6.5235
 IR Inten    --     13.0315                12.2053                 2.8225

                     82                     83                     84
                      A                      A                      A
 Frequencies --   3199.7530              3212.5316              3503.6151
 Red. masses --      1.0932                 1.0977                 1.0742
 Frc consts  --      6.5946                 6.6749                 7.7691
 IR Inten    --     35.2494                21.8163                 0.3821

 - Thermochemistry -
 -------------------
 Temperature   298.150 Kelvin.  Pressure   1.00000 Atm.
 Atom     1 has atomic number  6 and mass  12.00000

 Molecular mass:   188.13135 amu.
 Principal axes and moments of inertia in atomic units:
                           1         2         3
     Eigenvalues --  1378.854224560.231724922.19877
           X            0.99995   0.00365   0.00933
           Y           -0.00432   0.99736   0.07248
           Z           -0.00904  -0.07252   0.99733
 This molecule is an asymmetric top.
 Rotational symmetry number  1.
 Warning -- assumption of classical behavior for rotation
           may cause significant error
 Rotational temperatures (Kelvin)      0.06282     0.01899     0.01760
 Rotational constants (GHZ):           1.30887     0.39576     0.36665
 Zero-point vibrational energy     682066.5 (Joules/Mol)
                                  163.01781 (Kcal/Mol)
 Warning -- explicit consideration of  19 degrees of freedom as
           vibrations may cause significant error
 Vibrational temperatures:     36.97    58.44    75.44    84.78   149.13
          (Kelvin)            199.54   228.19   288.80   334.50   378.44
                              390.77   452.26   520.53   595.51   602.84
                              659.27   733.32   809.73   838.70   899.79
                              917.53  1020.80  1048.70  1096.16  1102.54
                             1196.54  1220.04  1231.74  1275.52  1319.13
                             1349.08  1370.25  1383.66  1430.71  1460.69
                             1471.23  1519.03  1526.48  1569.30  1609.26
                             1635.59  1650.69  1661.56  1719.66  1747.87
                             1775.62  1783.35  1830.27  1891.91  1935.01
                             1956.62  1969.62  1981.61  2002.27  2016.30
                             2021.35  2078.79  2162.06  2166.90  2176.08
                             2188.88  2191.03  2205.92  2216.82  2227.62
                             2374.02  2401.70  3378.84  4379.28  4385.18
                             4390.32  4396.76  4419.27  4434.07  4453.52
                             4464.29  4479.60  4488.48  4555.46  4561.87
                             4589.36  4603.73  4622.12  5040.92

 Zero-point correction=                           0.259785 (Hartree/Particle)
 Thermal correction to Energy=                    0.273767
 Thermal correction to Enthalpy=                  0.274711
 Thermal correction to Gibbs Free Energy=         0.217326
 Sum of electronic and zero-point Energies=           -576.190158
 Sum of electronic and thermal Energies=              -576.176176
 Sum of electronic and thermal Enthalpies=            -576.175232
 Sum of electronic and thermal Free Energies=         -576.232617

                     E (Thermal)             CV                S
                      KCal/Mol        Cal/Mol-Kelvin    Cal/Mol-Kelvin
 Total                  171.791             52.140            120.778
 Electronic               0.000              0.000              0.000
 Translational            0.889              2.981             41.602
 Rotational               0.889              2.981             31.804
 Vibrational            170.014             46.179             47.372
 Vibration     1          0.593              1.985              6.137
 Vibration     2          0.594              1.981              5.229
 Vibration     3          0.596              1.977              4.723
 Vibration     4          0.596              1.974              4.493
 Vibration     5          0.605              1.946              3.385
 Vibration     6          0.614              1.915              2.822
 Vibration     7          0.621              1.893              2.566
 Vibration     8          0.638              1.839              2.126
 Vibration     9          0.653              1.791              1.860
 Vibration    10          0.670              1.741              1.642
 Vibration    11          0.675              1.726              1.586
 Vibration    12          0.702              1.646              1.339
 Vibration    13          0.736              1.551              1.114
 Vibration    14          0.777              1.440              0.913
 Vibration    15          0.782              1.429              0.895
 Vibration    16          0.816              1.343              0.771
 Vibration    17          0.865              1.229              0.634
 Vibration    18          0.919              1.112              0.518
 Vibration    19          0.940              1.068              0.480

 Optimization completed.
    -- Stationary point found.
 Normal termination of Gaussian 16 at Thu Dec 10 10:45:25 2020.

 ----------------------------------------------------------------------
 # B3LYP/6-311++G(d,p) empiricaldispersion=gd3bj scf=xqc pop=npa geom=c
 heck
 ----------------------------------------------------------------------

 --------------------------------------
 CID_11008684_JID_4768_Energie_neutraal
 --------------------------------------
 Structure from the checkpoint file:  "JID_4768.chk"
 Charge =  0 Multiplicity = 1

 SCF Done:  E(RB3LYP) =  -576.608450384     A.U. after   14 cycles
 Normal termination of Gaussian 16 at Thu Dec 10 10:49:36 2020.

 ----------------------------------------------------------------------
 # B3LYP/6-311++G(d,p) empiricaldispersion=gd3bj scf=xqc pop=npa geom=c
 heck
 ----------------------------------------------------------------------

 ------------------------------------
 CID_11008684_JID_4768_Energie_kation
 ------------------------------------
 Structure from the checkpoint file:  "JID_4768.chk"
 Charge =  1 Multiplicity = 2

 SCF Done:  E(UB3LYP) =  -576.296468541     A.U. after   28 cycles
 Normal termination of Gaussian 16 at Thu Dec 10 11:01:12 2020.
 Gaussian 16:  ES64L-G16RevA.03 25-Dec-2016

 ----------------------------------------------------------------------
 # B3LYP/6-311++G(d,p) empiricaldispersion=gd3bj scf=xqc pop=npa geom=c
 heck
 ----------------------------------------------------------------------

 -----------------------------------
 CID_11008684_JID_4768_Energie_anion
 -----------------------------------
 Structure from the checkpoint file:  "JID_4768.chk"
 Charge = -1 Multiplicity = 2

                         Standard orientation:
 ---------------------------------------------------------------------
 Center     Atomic      Atomic             Coordinates (Angstroms)
 Number     Number       Type             X           Y           Z
 ---------------------------------------------------------------------
      1          6           0        3.849408    1.176818    0.975500
      2          6           0        3.728199    0.550755   -0.417408
      3          6           0        2.852276   -0.707406   -0.457460
      4          6           0        1.394994   -0.499789    0.006314
      5          6           0        0.781639    0.611001   -0.766220
      6          7           0        0.350797    1.457674   -1.434405
      7          7           0        0.665159   -1.762242   -0.078371
      8          6           0       -0.552756   -1.855761    0.741860
      9          6           0       -1.614021   -0.807352    0.475866
     10          6           0       -2.392449   -0.868387   -0.686214
     11          6           0       -3.306218    0.138898   -0.983522
     12          6           0       -3.459439    1.221920   -0.114860
     13          6           0       -2.700650    1.285732    1.052705
     14          6           0       -1.784579    0.274739    1.344104
     15          1           0        2.890094    1.574303    1.326264
     16          1           0        4.560598    2.009428    0.969301
     17          1           0        4.199330    0.442837    1.712188
     18          1           0        3.333216    1.293693   -1.120869
     19          1           0        4.726128    0.278514   -0.782702
     20          1           0        2.830568   -1.110566   -1.477949
     21          1           0        3.269006   -1.490520    0.185785
     22          1           0        1.396589   -0.199422    1.060492
     23          1           0        0.448419   -1.964430   -1.052449
     24          1           0       -0.958023   -2.860443    0.576131
     25          1           0       -0.240868   -1.807241    1.792192
     26          1           0       -2.272606   -1.707983   -1.368436
     27          1           0       -3.898556    0.082630   -1.892407
     28          1           0       -4.168156    2.011047   -0.348697
     29          1           0       -2.816740    2.124299    1.733499
     30          1           0       -1.189120    0.328816    2.253088
 ---------------------------------------------------------------------

 SCF Done:  E(UB3LYP) =  -576.595585591     A.U. after   33 cycles
 SCF Done:  E(UB3LYP) =  -576.595585591     a.u. after    1 cycles

 The electronic state is 2-A.
 Alpha  occ. eigenvalues --  -14.21703 -14.20887 -10.14292 -10.10505 -10.10277
 Alpha  occ. eigenvalues --  -10.08168 -10.08023 -10.07934 -10.07870 -10.07768
 Alpha  occ. eigenvalues --  -10.07628 -10.07582 -10.07562 -10.06574  -0.83558
 Alpha  occ. eigenvalues --   -0.79918  -0.76037  -0.71143  -0.66965  -0.65093
 Alpha  occ. eigenvalues --   -0.63637  -0.57788  -0.55929  -0.51196  -0.49705
 Alpha  occ. eigenvalues --   -0.49055  -0.44645  -0.42125  -0.38729  -0.37560
 Alpha  occ. eigenvalues --   -0.36640  -0.35907  -0.35397  -0.32906  -0.32693
 Alpha  occ. eigenvalues --   -0.32162  -0.30246  -0.29928  -0.28035  -0.27534
 Alpha  occ. eigenvalues --   -0.26546  -0.25691  -0.25153  -0.24985  -0.24603
 Alpha  occ. eigenvalues --   -0.24271  -0.23438  -0.22088  -0.16019  -0.15938
 Alpha  occ. eigenvalues --   -0.14351   0.04318
 Alpha virt. eigenvalues --    0.06210   0.06784   0.07207   0.07793   0.08073
 Alpha virt. eigenvalues --    0.08439   0.08655   0.09384   0.09525   0.10089
 Alpha virt. eigenvalues --    0.11463   0.11672   0.12101   0.12267   0.12732

  Beta  occ. eigenvalues --  -14.21681 -14.20874 -10.14277 -10.10506 -10.10252
  Beta  occ. eigenvalues --  -10.08148 -10.07996 -10.07931 -10.07863 -10.07734
  Beta  occ. eigenvalues --  -10.07617 -10.07561 -10.07534 -10.06540  -0.83518
  Beta  occ. eigenvalues --   -0.79893  -0.75988  -0.71104  -0.66902  -0.65048
  Beta  occ. eigenvalues --   -0.63582  -0.57723  -0.55854  -0.51153  -0.49643
  Beta  occ. eigenvalues --   -0.48987  -0.44607  -0.42071  -0.38678  -0.37515
  Beta  occ. eigenvalues --   -0.36592  -0.35854  -0.35349  -0.32862  -0.32656
  Beta  occ. eigenvalues --   -0.32108  -0.30194  -0.29882  -0.27992  -0.27480
  Beta  occ. eigenvalues --   -0.26496  -0.25644  -0.25115  -0.24945  -0.24566
  Beta  occ. eigenvalues --   -0.24240  -0.23400  -0.22055  -0.15924  -0.15858
  Beta  occ. eigenvalues --   -0.14268
  Beta virt. eigenvalues --    0.06495   0.06956   0.07385   0.07656   0.07954
  Beta virt. eigenvalues --    0.08468   0.08743   0.09207   0.09830   0.10009
  Beta virt. eigenvalues --    0.10455   0.11733   0.12049   0.12319   0.12624

 Mulliken charges and spin densities:
               1          2
     1  C    0.669282  -1.311788
     2  C   -0.663693   0.605613
     3  C    0.659379  -1.039870
     4  C   -0.367879   0.308510
     5  C    0.196417  -0.564131
     6  N   -0.273057   0.026726
     7  N    0.068654   0.051792
     8  C    2.109359  -2.836084
     9  C   -0.863800   1.640580
    10  C   -0.490140   0.330574
    11  C   -0.237836  -0.064155
    12  C    0.749123  -0.960282
    13  C    0.083432  -0.436682
    14  C   -0.194276   0.081852
    15  H   -0.078283   0.232187
    16  H   -0.169336   0.302900
    17  H   -0.297897   0.445330
    18  H    0.094517   0.065814
    19  H   -0.111898   0.269890
    20  H   -0.101241   0.219509
    21  H   -0.187537   0.407950
    22  H    0.308324  -0.085405
    23  H    0.101076   0.135676
    24  H   -0.420369   0.639151
    25  H   -0.360253   0.510713
    26  H   -0.543239   0.713148
    27  H   -0.131801   0.294869
    28  H    0.095255   0.040886
    29  H   -0.216421   0.385483
    30  H   -0.425863   0.589246
 Sum of Mulliken charges =  -1.00000   1.00000

 Dipole moment (field-independent basis, Debye):
    X=             -1.7767    Y=              1.6909    Z=             -1.7098  Tot=              2.9899
 Quadrupole moment (field-independent basis, Debye-Ang):
   XX=           -149.5094   YY=           -130.8880   ZZ=           -125.0997
   XY=             -3.9408   XZ=             -6.8460   YZ=              1.3882

 Summary of Natural Population Analysis:

                                       Natural Population
                Natural  -----------------------------------------------
    Atom  No    Charge         Core      Valence    Rydberg      Total
 -----------------------------------------------------------------------
      C    1   -0.28831      0.99967     2.28349    0.00515     3.28831
      C    2   -0.19593      0.99963     2.18766    0.00864     3.19593
      C    3   -0.18045      0.99961     2.17048    0.01036     3.18045
      C    4   -0.06421      0.99949     2.05232    0.01240     3.06421
      C    5    0.15116      0.99964     1.83044    0.01876     2.84884
      N    6   -0.18056      0.99979     2.66927    0.01150     3.68056
      N    7   -0.32307      0.99975     2.81094    0.01238     3.82307
      C    8   -0.09316      0.99958     2.08060    0.01299     3.09316
      C    9   -0.02896      0.99950     2.01778    0.01167     3.02896
      C   10   -0.09382      0.99950     2.08360    0.01072     3.09382
      C   11   -0.09887      0.99956     2.08883    0.01049     3.09887
      C   12   -0.09613      0.99956     2.08749    0.00908     3.09613
      C   13   -0.09895      0.99956     2.08884    0.01055     3.09895
      C   14   -0.09723      0.99950     2.08750    0.01023     3.09723
      H   15    0.09693      0.00000     0.40165    0.00142     0.40307
      H   16    0.09959      0.00000     0.39954    0.00087     0.40041
      H   17    0.09870      0.00000     0.39988    0.00143     0.40130
      H   18    0.09960      0.00000     0.39932    0.00108     0.40040
      H   19    0.09750      0.00000     0.40152    0.00098     0.40250
      H   20    0.09931      0.00000     0.39931    0.00137     0.40069
      H   21    0.10596      0.00000     0.39236    0.00168     0.39404
      H   22    0.11477      0.00000     0.38169    0.00354     0.38523
      H   23    0.17605      0.00000     0.32023    0.00372     0.32395
      H   24    0.10394      0.00000     0.39422    0.00184     0.39606
      H   25    0.09737      0.00000     0.40075    0.00188     0.40263
      H   26    0.10057      0.00000     0.39771    0.00172     0.39943
      H   27    0.09913      0.00000     0.40005    0.00082     0.40087
      H   28    0.09785      0.00000     0.40140    0.00075     0.40215
      H   29    0.09976      0.00000     0.39936    0.00089     0.40024
      H   30    0.10147      0.00000     0.39692    0.00161     0.39853
 =======================================================================
   * Total *    0.00000     13.99435    36.82513    0.18052    51.00000

 Normal termination of Gaussian 16 at Thu Dec 10 11:15:30 2020.
