 Gaussian 16, Revision A.03,

 -----------------------------------------------------------
 # opt freq B3LYP/6-31G(d) empiricaldispersion=gd3bj scf=xqc
 -----------------------------------------------------------

 ------------------------------
 CID_95843082_JID_7990_neutraal
 ------------------------------
 Symbolic Z-matrix:
 Charge =  0 Multiplicity = 1

 SCF Done:  E(RB3LYP) =  -1215.27253379     A.U. after   15 cycles
 SCF Done:  E(RB3LYP) =  -1215.28007939     A.U. after   13 cycles
 SCF Done:  E(RB3LYP) =  -1215.28175666     A.U. after   12 cycles
 SCF Done:  E(RB3LYP) =  -1215.28291680     A.U. after   13 cycles
 SCF Done:  E(RB3LYP) =  -1215.28388555     A.U. after   13 cycles
 SCF Done:  E(RB3LYP) =  -1215.28457974     A.U. after   12 cycles
 SCF Done:  E(RB3LYP) =  -1215.28512695     A.U. after   12 cycles
 SCF Done:  E(RB3LYP) =  -1215.28525235     A.U. after   12 cycles
 SCF Done:  E(RB3LYP) =  -1215.28532045     A.U. after   11 cycles
 SCF Done:  E(RB3LYP) =  -1215.28535427     A.U. after   10 cycles
 SCF Done:  E(RB3LYP) =  -1215.28541543     A.U. after    8 cycles
 SCF Done:  E(RB3LYP) =  -1215.28541547     A.U. after    8 cycles
 SCF Done:  E(RB3LYP) =  -1215.28541549     A.U. after    8 cycles
 SCF Done:  E(RB3LYP) =  -1215.28541551     A.U. after    7 cycles
 SCF Done:  E(RB3LYP) =  -1215.28541552     A.U. after    7 cycles
 Optimization completed.
    -- Stationary point found.
 Normal termination of Gaussian 16 at Fri Dec 11 13:41:05 2020.

 --------------------------------------------------------------------
 #N Geom=AllCheck Guess=TCheck SCRF=Check GenChk RB3LYP/6-31G(d) Freq
 --------------------------------------------------------------------

 Structure from the checkpoint file:  "JID_7990.chk"
 ------------------------------
 CID_95843082_JID_7990_neutraal
 ------------------------------
 Charge =  0 Multiplicity = 1

 SCF Done:  E(RB3LYP) =  -1215.28541552     A.U. after    1 cycles

  Exact polarizability: 155.629  -7.590 136.470  -8.843  -4.496 115.404
 Approx polarizability: 215.020  -7.063 199.956 -20.803  -8.456 187.851

                      1                      2                      3
                      A                      A                      A
 Frequencies --     14.0907                28.7542                49.5605
 Red. masses --      5.3333                 5.2938                 6.5397
 Frc consts  --      0.0006                 0.0026                 0.0095
 IR Inten    --      0.4439                 3.9268                 3.0424

                      4                      5                      6
                      A                      A                      A
 Frequencies --     99.6666               109.8559               135.9909
 Red. masses --      3.6544                 3.5307                 1.1758
 Frc consts  --      0.0214                 0.0251                 0.0128
 IR Inten    --      1.2243                 2.2523                 0.3464

                      7                      8                      9
                      A                      A                      A
 Frequencies --    164.2464               186.8346               200.2042
 Red. masses --      4.2425                 2.3993                 3.2816
 Frc consts  --      0.0674                 0.0493                 0.0775
 IR Inten    --      0.4915                 5.3185                 1.9903

                     10                     11                     12
                      A                      A                      A
 Frequencies --    220.9696               231.7779               253.1319
 Red. masses --      1.1693                 1.3489                 2.4276
 Frc consts  --      0.0336                 0.0427                 0.0916
 IR Inten    --      2.8157                 1.5159                 3.8117

                     13                     14                     15
                      A                      A                      A
 Frequencies --    265.1751               287.3361               290.9283
 Red. masses --      3.4265                 3.1723                 4.6260
 Frc consts  --      0.1420                 0.1543                 0.2307
 IR Inten    --      0.3624                 8.2637                 1.8935

                     16                     17                     18
                      A                      A                      A
 Frequencies --    309.6128               326.4953               337.7502
 Red. masses --      4.3518                 3.0395                 3.5010
 Frc consts  --      0.2458                 0.1909                 0.2353
 IR Inten    --      0.6717                 2.0304                 3.1789

                     19                     20                     21
                      A                      A                      A
 Frequencies --    375.6138               402.1696               438.1533
 Red. masses --      2.4919                 3.4118                 5.5438
 Frc consts  --      0.2071                 0.3251                 0.6271
 IR Inten    --      1.7953                 0.7757                 7.5618

                     22                     23                     24
                      A                      A                      A
 Frequencies --    464.5409               489.8777               502.6752
 Red. masses --      5.0374                 7.6003                 5.7793
 Frc consts  --      0.6405                 1.0746                 0.8604
 IR Inten    --      1.6565                24.7262                40.9586

                     25                     26                     27
                      A                      A                      A
 Frequencies --    533.4844               577.0866               624.3780
 Red. masses --      3.3267                 3.6640                 3.4020
 Frc consts  --      0.5578                 0.7189                 0.7814
 IR Inten    --     12.3384                13.8854                 1.7591

                     28                     29                     30
                      A                      A                      A
 Frequencies --    680.2025               705.6372               716.2275
 Red. masses --      5.3410                 3.5185                 4.5125
 Frc consts  --      1.4560                 1.0322                 1.3639
 IR Inten    --      1.8989                12.4395                29.9258

                     31                     32                     33
                      A                      A                      A
 Frequencies --    775.1568               786.9307               830.6129
 Red. masses --      4.9415                 8.2413                 3.0462
 Frc consts  --      1.7494                 3.0069                 1.2382
 IR Inten    --     90.2034                 9.2545                 6.6112

                     34                     35                     36
                      A                      A                      A
 Frequencies --    905.6052               912.5795               939.4037
 Red. masses --      9.7459                 2.4439                 2.0558
 Frc consts  --      4.7092                 1.1991                 1.0689
 IR Inten    --      6.4364                11.3173                25.3046

                     37                     38                     39
                      A                      A                      A
 Frequencies --    954.6626               995.1150              1002.1129
 Red. masses --      2.1677                 1.5069                 1.4074
 Frc consts  --      1.1640                 0.8792                 0.8327
 IR Inten    --     97.3962                46.3242                10.5860

                     40                     41                     42
                      A                      A                      A
 Frequencies --   1004.4376              1016.4369              1029.1580
 Red. masses --      2.9684                 2.0331                 3.6569
 Frc consts  --      1.7645                 1.2376                 2.2821
 IR Inten    --      6.0795                 5.2387                 4.9686

                     43                     44                     45
                      A                      A                      A
 Frequencies --   1045.7412              1062.5171              1084.6552
 Red. masses --      1.9149                 2.9473                 1.5596
 Frc consts  --      1.2338                 1.9604                 1.0811
 IR Inten    --     64.1396                 4.5197                 3.4951

                     46                     47                     48
                      A                      A                      A
 Frequencies --   1116.7838              1124.8778              1135.1373
 Red. masses --      4.6020                 2.5595                 3.9951
 Frc consts  --      3.3817                 1.9082                 3.0330
 IR Inten    --     80.7432                52.6805               154.5538

                     49                     50                     51
                      A                      A                      A
 Frequencies --   1161.2637              1185.5334              1220.0644
 Red. masses --      4.7981                 2.5329                 2.5093
 Frc consts  --      3.8122                 2.0975                 2.2007
 IR Inten    --     71.6609                39.3500                 6.3854

                     52                     53                     54
                      A                      A                      A
 Frequencies --   1229.8803              1267.0926              1297.3351
 Red. masses --      4.7170                 1.8081                 2.1033
 Frc consts  --      4.2038                 1.7104                 2.0858
 IR Inten    --     16.2491                18.4963                56.3226

                     55                     56                     57
                      A                      A                      A
 Frequencies --   1320.2720              1337.4451              1368.2650
 Red. masses --      1.4432                 8.5289                 1.4782
 Frc consts  --      1.4822                 8.9887                 1.6305
 IR Inten    --     43.5467               169.3475                26.1240

                     58                     59                     60
                      A                      A                      A
 Frequencies --   1375.6684              1384.4066              1391.1140
 Red. masses --      2.2350                 1.2450                 1.5856
 Frc consts  --      2.4921                 1.4059                 1.8079
 IR Inten    --     77.7692                15.2489                 4.1282

                     61                     62                     63
                      A                      A                      A
 Frequencies --   1416.8452              1432.2442              1440.2928
 Red. masses --      1.4446                 1.3132                 1.2539
 Frc consts  --      1.7086                 1.5872                 1.5326
 IR Inten    --      6.6513                 8.5027                12.0674

                     64                     65                     66
                      A                      A                      A
 Frequencies --   1446.5050              1481.1460              1484.0705
 Red. masses --      1.5171                 1.0509                 1.0529
 Frc consts  --      1.8703                 1.3584                 1.3663
 IR Inten    --     23.1711                10.6260                 2.4455

                     67                     68                     69
                      A                      A                      A
 Frequencies --   1501.0015              1504.2833              1505.4959
 Red. masses --      1.2140                 1.0439                 1.0666
 Frc consts  --      1.6115                 1.3917                 1.4243
 IR Inten    --     20.2992                 7.9734                 0.5785

                     70                     71                     72
                      A                      A                      A
 Frequencies --   1511.9636              1520.6192              1521.6797
 Red. masses --      1.0774                 1.0572                 1.1012
 Frc consts  --      1.4512                 1.4403                 1.5024
 IR Inten    --      2.8477                 5.5519                 8.0107

                     73                     74                     75
                      A                      A                      A
 Frequencies --   1526.4209              1570.5667              1625.9551
 Red. masses --      1.0897                 5.1792                 7.1272
 Frc consts  --      1.4959                 7.5270                11.1016
 IR Inten    --      3.2650                 0.0692                81.6428

                     76                     77                     78
                      A                      A                      A
 Frequencies --   3018.4180              3025.1562              3061.7027
 Red. masses --      1.0722                 1.0719                 1.0627
 Frc consts  --      5.7554                 5.7797                 5.8695
 IR Inten    --     34.7562                40.2180                32.5074

                     79                     80                     81
                      A                      A                      A
 Frequencies --   3069.9293              3082.6191              3090.8307
 Red. masses --      1.0365                 1.0351                 1.0299
 Frc consts  --      5.7554                 5.7954                 5.7967
 IR Inten    --      8.1043                 9.8700                 1.0317

                     82                     83                     84
                      A                      A                      A
 Frequencies --   3127.5425              3130.4443              3145.0998
 Red. masses --      1.1028                 1.1015                 1.0938
 Frc consts  --      6.3553                 6.3597                 6.3747
 IR Inten    --     31.5086                 6.1309                 6.8496

                     85                     86                     87
                      A                      A                      A
 Frequencies --   3156.4159              3162.3306              3166.4929
 Red. masses --      1.1013                 1.0948                 1.1027
 Frc consts  --      6.4644                 6.4503                 6.5145
 IR Inten    --      8.1445                10.5131                 5.2343

                     88                     89                     90
                      A                      A                      A
 Frequencies --   3173.5884              3186.3940              3206.8356
 Red. masses --      1.1029                 1.1067                 1.1072
 Frc consts  --      6.5444                 6.6200                 6.7085
 IR Inten    --      7.9363                 1.6862                 0.3007

 - Thermochemistry -
 -------------------
 Temperature   298.150 Kelvin.  Pressure   1.00000 Atm.
 Atom     1 has atomic number  6 and mass  12.00000

 Molecular mass:   261.07833 amu.
 Principal axes and moments of inertia in atomic units:
                           1         2         3
     Eigenvalues --  2615.185335649.181106755.35575
           X            0.99980  -0.01380  -0.01461
           Y            0.01341   0.99955  -0.02673
           Z            0.01498   0.02653   0.99954
 This molecule is an asymmetric top.
 Rotational symmetry number  1.
 Warning -- assumption of classical behavior for rotation
           may cause significant error
 Rotational temperatures (Kelvin)      0.03312     0.01533     0.01282
 Rotational constants (GHZ):           0.69010     0.31947     0.26716
 Zero-point vibrational energy     673351.5 (Joules/Mol)
                                  160.93487 (Kcal/Mol)
 Warning -- explicit consideration of  26 degrees of freedom as
           vibrations may cause significant error
 Vibrational temperatures:     20.27    41.37    71.31   143.40   158.06
          (Kelvin)            195.66   236.31   268.81   288.05   317.93
                              333.48   364.20   381.53   413.41   418.58
                              445.46   469.75   485.95   540.42   578.63
                              630.40   668.37   704.82   723.24   767.57
                              830.30   898.34   978.66  1015.25  1030.49
                             1115.28  1132.22  1195.07  1302.96  1313.00
                             1351.59  1373.55  1431.75  1441.82  1445.16
                             1462.43  1480.73  1504.59  1528.73  1560.58
                             1606.80  1618.45  1633.21  1670.80  1705.72
                             1755.40  1769.52  1823.06  1866.58  1899.58
                             1924.29  1968.63  1979.28  1991.85  2001.50
                             2038.52  2060.68  2072.26  2081.20  2131.04
                             2135.25  2159.61  2164.33  2166.07  2175.38
                             2187.83  2189.36  2196.18  2259.70  2339.39
                             4342.83  4352.53  4405.11  4416.94  4435.20
                             4447.02  4499.84  4504.01  4525.10  4541.38
                             4549.89  4555.88  4566.09  4584.51  4613.92

 Zero-point correction=                           0.256466 (Hartree/Particle)
 Thermal correction to Energy=                    0.273298
 Thermal correction to Enthalpy=                  0.274242
 Thermal correction to Gibbs Free Energy=         0.210616
 Sum of electronic and zero-point Energies=          -1215.028949
 Sum of electronic and thermal Energies=             -1215.012117
 Sum of electronic and thermal Enthalpies=           -1215.011173
 Sum of electronic and thermal Free Energies=        -1215.074799

                     E (Thermal)             CV                S
                      KCal/Mol        Cal/Mol-Kelvin    Cal/Mol-Kelvin
 Total                  171.497             62.981            133.912
 Electronic               0.000              0.000              0.000
 Translational            0.889              2.981             42.579
 Rotational               0.889              2.981             32.967
 Vibrational            169.720             57.020             58.366
 Vibration     1          0.593              1.986              7.330
 Vibration     2          0.593              1.984              5.914
 Vibration     3          0.595              1.978              4.835
 Vibration     4          0.604              1.949              3.461
 Vibration     5          0.606              1.941              3.271
 Vibration     6          0.614              1.917              2.860
 Vibration     7          0.623              1.886              2.500
 Vibration     8          0.632              1.858              2.259
 Vibration     9          0.638              1.840              2.131
 Vibration    10          0.648              1.809              1.951
 Vibration    11          0.653              1.792              1.865
 Vibration    12          0.664              1.758              1.709
 Vibration    13          0.671              1.737              1.627
 Vibration    14          0.685              1.697              1.490
 Vibration    15          0.687              1.691              1.469
 Vibration    16          0.699              1.655              1.364
 Vibration    17          0.710              1.623              1.277
 Vibration    18          0.718              1.600              1.223
 Vibration    19          0.746              1.522              1.057
 Vibration    20          0.768              1.465              0.955
 Vibration    21          0.798              1.387              0.832
 Vibration    22          0.822              1.329              0.753
 Vibration    23          0.846              1.272              0.684
 Vibration    24          0.858              1.244              0.651
 Vibration    25          0.888              1.176              0.579
 Vibration    26          0.934              1.081              0.491

                           ! Non-Optimized Parameters !
 Normal termination of Gaussian 16 at Fri Dec 11 13:53:25 2020.

 ----------------------------------------------------------------------
 # B3LYP/6-311++G(d,p) empiricaldispersion=gd3bj scf=xqc pop=npa geom=c
 heck
 ----------------------------------------------------------------------

 --------------------------------------
 CID_95843082_JID_7990_Energie_neutraal
 --------------------------------------
 Structure from the checkpoint file:  "JID_7990.chk"
 Charge =  0 Multiplicity = 1

 SCF Done:  E(RB3LYP) =  -1215.54122952     A.U. after   15 cycles
 Normal termination of Gaussian 16 at Fri Dec 11 13:59:04 2020.

 ----------------------------------------------------------------------
 # B3LYP/6-311++G(d,p) empiricaldispersion=gd3bj scf=xqc pop=npa geom=c
 heck
 ----------------------------------------------------------------------

 ------------------------------------
 CID_95843082_JID_7990_Energie_kation
 ------------------------------------
 Structure from the checkpoint file:  "JID_7990.chk"
 Charge =  1 Multiplicity = 2

 SCF Done:  E(UB3LYP) =  -1215.21306974     A.U. after   25 cycles
 Normal termination of Gaussian 16 at Fri Dec 11 14:12:10 2020.
 Gaussian 16:  ES64L-G16RevA.03 25-Dec-2016

 ----------------------------------------------------------------------
 # B3LYP/6-311++G(d,p) empiricaldispersion=gd3bj scf=xqc pop=npa geom=c
 heck
 ----------------------------------------------------------------------

 -----------------------------------
 CID_95843082_JID_7990_Energie_anion
 -----------------------------------
 Structure from the checkpoint file:  "JID_7990.chk"
 Charge = -1 Multiplicity = 2

                         Standard orientation:
 ---------------------------------------------------------------------
 Center     Atomic      Atomic             Coordinates (Angstroms)
 Number     Number       Type             X           Y           Z
 ---------------------------------------------------------------------
      1          6           0        4.525600   -1.734264   -0.062525
      2          6           0        3.187633   -1.096463    0.089246
      3          7           0        2.216358   -1.650111    0.771840
      4          8           0        1.160723   -0.718198    0.645292
      5          6           0        1.629235    0.299375   -0.106744
      6          7           0        2.864454    0.123056   -0.476311
      7          6           0        0.730411    1.477770   -0.429439
      8          6           0       -0.614702    1.003120   -1.015037
      9          7           0       -1.417757    0.394104    0.034344
     10          6           0       -1.688567    1.290033    1.156672
     11          6           0       -0.343099    1.705340    1.739948
     12          8           0        0.510240    2.273534    0.744445
     13         16           0       -2.498524   -0.834683   -0.339324
     14          8           0       -3.791096   -0.518316    0.275455
     15          8           0       -2.372841   -1.093603   -1.776578
     16          6           0       -1.808184   -2.243297    0.542196
     17          6           0        1.439793    2.399801   -1.416405
     18          1           0        4.745809   -1.900301   -1.122055
     19          1           0        5.303752   -1.076362    0.337817
     20          1           0        4.554206   -2.689408    0.465625
     21          1           0       -1.126118    1.883029   -1.433377
     22          1           0       -0.459455    0.284958   -1.820552
     23          1           0       -2.289942    0.773476    1.907156
     24          1           0       -2.251564    2.172049    0.817278
     25          1           0        0.138140    0.839480    2.210759
     26          1           0       -0.471420    2.491870    2.488367
     27          1           0       -0.796394   -2.421494    0.178603
     28          1           0       -1.792852   -2.013192    1.608852
     29          1           0       -2.457460   -3.099427    0.346510
     30          1           0        2.392760    2.730909   -1.000730
     31          1           0        1.634441    1.883297   -2.359980
     32          1           0        0.806144    3.270867   -1.600571
 ---------------------------------------------------------------------

 SCF Done:  E(UB3LYP) =  -1215.53288803     A.U. after   33 cycles
 SCF Done:  E(UB3LYP) =  -1215.53288803     a.u. after    1 cycles

 The electronic state is 2-A.
 Alpha  occ. eigenvalues --  -88.97057 -19.08943 -19.03336 -19.02466 -19.02324
 Alpha  occ. eigenvalues --  -14.24801 -14.23989 -14.19894 -10.15322 -10.14368
 Alpha  occ. eigenvalues --  -10.12310 -10.12182 -10.11795 -10.11480 -10.10984
 Alpha  occ. eigenvalues --  -10.07996 -10.06942  -8.03195  -5.99500  -5.99451
 Alpha  occ. eigenvalues --   -5.99258  -1.04001  -1.02665  -0.95019  -0.91757
 Alpha  occ. eigenvalues --   -0.84677  -0.81973  -0.76188  -0.70806  -0.68454
 Alpha  occ. eigenvalues --   -0.63751  -0.63623  -0.60873  -0.56016  -0.54541
 Alpha  occ. eigenvalues --   -0.49510  -0.49053  -0.45933  -0.44583  -0.41145
 Alpha  occ. eigenvalues --   -0.40654  -0.39911  -0.38951  -0.37046  -0.36900
 Alpha  occ. eigenvalues --   -0.36281  -0.36081  -0.34108  -0.33581  -0.33507
 Alpha  occ. eigenvalues --   -0.31992  -0.31778  -0.30698  -0.29860  -0.29343
 Alpha  occ. eigenvalues --   -0.29130  -0.27710  -0.27143  -0.25783  -0.23182
 Alpha  occ. eigenvalues --   -0.23074  -0.22362  -0.21588  -0.21353  -0.21157
 Alpha  occ. eigenvalues --   -0.19088  -0.18233  -0.17276  -0.15051   0.04604
 Alpha virt. eigenvalues --    0.06521   0.06834   0.07416   0.07944   0.09290
 Alpha virt. eigenvalues --    0.09763   0.09972   0.10461   0.10791   0.11582
 Alpha virt. eigenvalues --    0.11844   0.12671   0.13090   0.13242   0.13709

  Beta  occ. eigenvalues --  -88.97055 -19.08734 -19.03270 -19.02460 -19.02319
  Beta  occ. eigenvalues --  -14.24800 -14.23779 -14.19896 -10.15333 -10.14069
  Beta  occ. eigenvalues --  -10.12258 -10.12164 -10.11767 -10.11456 -10.10963
  Beta  occ. eigenvalues --  -10.07982 -10.06934  -8.03193  -5.99498  -5.99450
  Beta  occ. eigenvalues --   -5.99256  -1.03651  -1.02650  -0.94891  -0.91742
  Beta  occ. eigenvalues --   -0.84655  -0.81773  -0.75841  -0.70728  -0.68428
  Beta  occ. eigenvalues --   -0.63705  -0.63518  -0.60834  -0.55903  -0.54294
  Beta  occ. eigenvalues --   -0.49425  -0.48871  -0.45798  -0.44542  -0.40967
  Beta  occ. eigenvalues --   -0.40584  -0.39886  -0.38669  -0.36862  -0.36671
  Beta  occ. eigenvalues --   -0.36160  -0.36021  -0.34010  -0.33543  -0.33481
  Beta  occ. eigenvalues --   -0.31818  -0.31589  -0.30634  -0.29818  -0.29313
  Beta  occ. eigenvalues --   -0.28999  -0.27619  -0.27068  -0.25763  -0.23091
  Beta  occ. eigenvalues --   -0.22948  -0.22197  -0.21566  -0.21238  -0.20618
  Beta  occ. eigenvalues --   -0.18786  -0.18096  -0.16218  -0.14995
  Beta virt. eigenvalues --    0.06731   0.07287   0.07704   0.08430   0.09101
  Beta virt. eigenvalues --    0.09651   0.09986   0.10482   0.10575   0.10920
  Beta virt. eigenvalues --    0.11811   0.12016   0.12649   0.13161   0.13258

 Mulliken charges and spin densities:
               1          2
     1  C    0.273437  -0.624568
     2  C    0.022151   0.530035
     3  N   -0.303454   0.122114
     4  O    0.270629   0.039677
     5  C   -0.066669  -0.309378
     6  N   -0.058695   0.045356
     7  C   -0.298246  -0.105014
     8  C   -0.648428  -0.194395
     9  N    0.002804   0.083603
    10  C    0.416984  -0.672920
    11  C    0.395765  -0.529369
    12  O    0.072742   0.027001
    13  S    0.354848   0.012310
    14  O   -0.144277   0.012648
    15  O   -0.153442  -0.006874
    16  C   -0.213066  -0.419884
    17  C   -0.749656  -0.000762
    18  H   -0.099312   0.264354
    19  H   -0.033465   0.190661
    20  H   -0.001027   0.152995
    21  H   -0.012738   0.227120
    22  H    0.236660   0.013924
    23  H   -0.246929   0.433317
    24  H    0.047954   0.147876
    25  H    0.276879  -0.129300
    26  H   -0.698862   0.888846
    27  H    0.036455   0.197246
    28  H   -0.033939   0.255374
    29  H    0.085658   0.112591
    30  H    0.120477   0.071993
    31  H    0.122033   0.041246
    32  H    0.026729   0.122176
 Sum of Mulliken charges =  -1.00000   1.00000

 Dipole moment (field-independent basis, Debye):
    X=              0.5559    Y=             -0.6220    Z=             -1.6282  Tot=              1.8295
 Quadrupole moment (field-independent basis, Debye-Ang):
   XX=           -173.1161   YY=           -147.2144   ZZ=           -142.2264
   XY=              7.7539   XZ=              3.5493   YZ=             -8.5666

 Summary of Natural Population Analysis:

                                       Natural Population
                Natural  -----------------------------------------------
    Atom  No    Charge         Core      Valence    Rydberg      Total
 -----------------------------------------------------------------------
      C    1   -0.30139      0.99962     2.29700    0.00477     3.30139
      C    2    0.17489      0.99966     1.80807    0.01738     2.82511
      N    3   -0.07828      0.99966     2.56589    0.01272     3.57828
      O    4   -0.16374      0.99985     3.15515    0.00874     4.16374
      C    5    0.32245      0.99955     1.65815    0.01985     2.67755
      N    6   -0.28052      0.99967     2.77213    0.00873     3.78052
      C    7    0.10509      0.99947     1.87844    0.01701     2.89491
      C    8   -0.08992      0.99955     2.07907    0.01129     3.08992
      N    9   -0.38393      0.99970     2.86912    0.01512     3.88393
      C   10   -0.09726      0.99960     2.08545    0.01221     3.09726
      C   11   -0.01654      0.99955     2.00368    0.01330     3.01654
      O   12   -0.29708      0.99988     3.28730    0.00990     4.29708
      S   13    1.10741      4.99928     1.79276    0.10056     6.89259
      O   14   -0.46551      0.99991     3.46000    0.00561     4.46551
      O   15   -0.46660      0.99991     3.46116    0.00553     4.46660
      C   16   -0.38621      0.99960     2.37980    0.00681     3.38621
      C   17   -0.28321      0.99962     2.27701    0.00658     3.28321
      H   18    0.10796      0.00000     0.39018    0.00187     0.39204
      H   19    0.10591      0.00000     0.39279    0.00129     0.39409
      H   20    0.10783      0.00000     0.39092    0.00124     0.39217
      H   21    0.09447      0.00000     0.40401    0.00152     0.40553
      H   22    0.12026      0.00000     0.37852    0.00122     0.37974
      H   23    0.11278      0.00000     0.38572    0.00150     0.38722
      H   24    0.09386      0.00000     0.40460    0.00155     0.40614
      H   25    0.08926      0.00000     0.40873    0.00201     0.41074
      H   26    0.09646      0.00000     0.40152    0.00203     0.40354
      H   27    0.12497      0.00000     0.37351    0.00153     0.37503
      H   28    0.11614      0.00000     0.38247    0.00139     0.38386
      H   29    0.11108      0.00000     0.38788    0.00104     0.38892
      H   30    0.11300      0.00000     0.38574    0.00126     0.38700
      H   31    0.10504      0.00000     0.39408    0.00088     0.39496
      H   32    0.10133      0.00000     0.39748    0.00119     0.39867
 =======================================================================
   * Total *   -0.00000     20.99407    47.70832    0.29761    69.00000

 Normal termination of Gaussian 16 at Fri Dec 11 14:29:59 2020.
