 Gaussian 16, Revision A.03,

 -----------------------------------------------------------
 # opt freq B3LYP/6-31G(d) empiricaldispersion=gd3bj scf=xqc
 -----------------------------------------------------------

 -------------------------------
 CID_119083447_JID_4059_neutraal
 -------------------------------
 Symbolic Z-matrix:
 Charge =  0 Multiplicity = 1

 SCF Done:  E(RB3LYP) =  -648.256139826     A.U. after   15 cycles
 SCF Done:  E(RB3LYP) =  -648.263754704     A.U. after   13 cycles
 SCF Done:  E(RB3LYP) =  -648.266534733     A.U. after   13 cycles
 SCF Done:  E(RB3LYP) =  -648.267083717     A.U. after   13 cycles
 SCF Done:  E(RB3LYP) =  -648.268558226     A.U. after   12 cycles
 SCF Done:  E(RB3LYP) =  -648.268890424     A.U. after   11 cycles
 SCF Done:  E(RB3LYP) =  -648.268950657     A.U. after   10 cycles
 SCF Done:  E(RB3LYP) =  -648.268963224     A.U. after   10 cycles
 SCF Done:  E(RB3LYP) =  -648.268965934     A.U. after    9 cycles
 SCF Done:  E(RB3LYP) =  -648.268966266     A.U. after    8 cycles
 SCF Done:  E(RB3LYP) =  -648.268966319     A.U. after    7 cycles
 Optimization completed.
    -- Stationary point found.
 Normal termination of Gaussian 16 at Thu Dec 10 09:14:10 2020.

 --------------------------------------------------------------------
 #N Geom=AllCheck Guess=TCheck SCRF=Check GenChk RB3LYP/6-31G(d) Freq
 --------------------------------------------------------------------

 Structure from the checkpoint file:  "JID_4059.chk"
 -------------------------------
 CID_119083447_JID_4059_neutraal
 -------------------------------
 Charge =  0 Multiplicity = 1

 SCF Done:  E(RB3LYP) =  -648.268966319     A.U. after    1 cycles

  Exact polarizability: 247.765   1.342 118.824   7.579   2.174  57.819
 Approx polarizability: 339.677   6.751 215.819  12.711   4.988  84.556

                      1                      2                      3
                      A                      A                      A
 Frequencies --     37.6958                50.5998                82.0408
 Red. masses --      4.5866                 3.1569                 5.4069
 Frc consts  --      0.0038                 0.0048                 0.0214
 IR Inten    --      0.6346                 0.4738                 1.2526

                      4                      5                      6
                      A                      A                      A
 Frequencies --     93.5744               115.8279               138.5365
 Red. masses --      4.6309                 3.5364                 2.4128
 Frc consts  --      0.0239                 0.0280                 0.0273
 IR Inten    --      2.2355                 0.2354                11.1998

                      7                      8                      9
                      A                      A                      A
 Frequencies --    172.7851               197.3493               235.5373
 Red. masses --      3.0357                 4.4285                 1.3574
 Frc consts  --      0.0534                 0.1016                 0.0444
 IR Inten    --      3.3663                13.8254                 4.4318

                     10                     11                     12
                      A                      A                      A
 Frequencies --    279.9996               336.0556               347.2291
 Red. masses --      4.3298                 3.8397                 3.5215
 Frc consts  --      0.2000                 0.2555                 0.2502
 IR Inten    --      3.2193                17.4385                15.8973

                     13                     14                     15
                      A                      A                      A
 Frequencies --    400.9364               417.4477               425.0458
 Red. masses --      5.1537                 2.8015                 2.7029
 Frc consts  --      0.4881                 0.2876                 0.2877
 IR Inten    --      4.8843                 3.7759                13.5936

                     16                     17                     18
                      A                      A                      A
 Frequencies --    462.2691               486.9963               521.8027
 Red. masses --      1.5353                 3.6823                 5.9118
 Frc consts  --      0.1933                 0.5145                 0.9484
 IR Inten    --     12.5492                 1.5955                29.9421

                     19                     20                     21
                      A                      A                      A
 Frequencies --    529.3139               651.7506               691.2289
 Red. masses --      3.0434                 7.0695                 2.8634
 Frc consts  --      0.5024                 1.7693                 0.8061
 IR Inten    --      1.8107                 0.1355               278.9061

                     22                     23                     24
                      A                      A                      A
 Frequencies --    706.2742               715.4883               775.2818
 Red. masses --      3.2330                 2.1533                 4.4861
 Frc consts  --      0.9502                 0.6495                 1.5887
 IR Inten    --     66.9086               376.8613                16.5646

                     25                     26                     27
                      A                      A                      A
 Frequencies --    790.3823               853.1483               856.5261
 Red. masses --      1.5659                 1.4034                 2.3117
 Frc consts  --      0.5763                 0.6018                 0.9992
 IR Inten    --      5.2108                 5.3379                 6.5358

                     28                     29                     30
                      A                      A                      A
 Frequencies --    879.3260               893.0464               897.6004
 Red. masses --      1.4797                 3.1032                 3.4174
 Frc consts  --      0.6741                 1.4582                 1.6222
 IR Inten    --     11.0565                 0.2033                 8.9872

                     31                     32                     33
                      A                      A                      A
 Frequencies --    952.9070               974.4004              1004.4093
 Red. masses --      1.5098                 1.3670                 1.3070
 Frc consts  --      0.8077                 0.7647                 0.7769
 IR Inten    --     19.7648                 2.7003                 0.2347

                     34                     35                     36
                      A                      A                      A
 Frequencies --   1033.3151              1045.1181              1126.3362
 Red. masses --      3.6121                 2.7938                 2.1928
 Frc consts  --      2.2724                 1.7979                 1.6390
 IR Inten    --      2.1729                23.9246                23.8130

                     37                     38                     39
                      A                      A                      A
 Frequencies --   1134.0536              1146.6952              1161.6610
 Red. masses --      1.8124                 3.4621                 2.1612
 Frc consts  --      1.3733                 2.6822                 1.7183
 IR Inten    --    103.1168               132.3793                51.2763

                     40                     41                     42
                      A                      A                      A
 Frequencies --   1208.1081              1212.4802              1267.9185
 Red. masses --      1.1695                 1.8114                 2.5017
 Frc consts  --      1.0057                 1.5690                 2.3695
 IR Inten    --     82.4152                38.0331                45.5614

                     43                     44                     45
                      A                      A                      A
 Frequencies --   1281.2199              1310.0948              1342.1500
 Red. masses --      1.1968                 4.2246                 1.2086
 Frc consts  --      1.1575                 4.2721                 1.2827
 IR Inten    --     31.8588               618.2862                 5.9132

                     46                     47                     48
                      A                      A                      A
 Frequencies --   1345.8848              1369.0328              1419.8422
 Red. masses --      1.2141                 8.3223                 1.2916
 Frc consts  --      1.2958                 9.1902                 1.5341
 IR Inten    --      9.9287                12.2809                22.9377

                     49                     50                     51
                      A                      A                      A
 Frequencies --   1443.5526              1449.4354              1465.9544
 Red. masses --      1.3502                 2.0372                 2.2024
 Frc consts  --      1.6578                 2.5217                 2.7886
 IR Inten    --      9.1876                20.6696                32.4272

                     52                     53                     54
                      A                      A                      A
 Frequencies --   1515.4212              1518.6301              1538.4579
 Red. masses --      1.0571                 1.0759                 1.0571
 Frc consts  --      1.4303                 1.4619                 1.4741
 IR Inten    --     15.4879                 7.6182                 7.5984

                     55                     56                     57
                      A                      A                      A
 Frequencies --   1559.7381              1617.5646              1664.3667
 Red. masses --      2.6252                 6.8851                 5.2097
 Frc consts  --      3.7628                10.6142                 8.5028
 IR Inten    --      1.8350                 0.2567               145.6133

                     58                     59                     60
                      A                      A                      A
 Frequencies --   1685.6079              1707.1857              1792.0027
 Red. masses --      1.8100                 2.0654                11.5153
 Frc consts  --      3.0301                 3.5466                21.7872
 IR Inten    --     18.8877                14.6153               246.6825

                     61                     62                     63
                      A                      A                      A
 Frequencies --   3037.5961              3061.2142              3093.1356
 Red. masses --      1.0855                 1.0364                 1.0588
 Frc consts  --      5.9012                 5.7223                 5.9685
 IR Inten    --     68.9160                20.8622                33.7558

                     64                     65                     66
                      A                      A                      A
 Frequencies --   3126.6233              3140.0477              3159.5399
 Red. masses --      1.1020                 1.1044                 1.1068
 Frc consts  --      6.3471                 6.4159                 6.5096
 IR Inten    --     29.3751                 9.0037                27.7502

                     67                     68                     69
                      A                      A                      A
 Frequencies --   3183.3408              3218.9441              3232.2792
 Red. masses --      1.0894                 1.0877                 1.0943
 Frc consts  --      6.5043                 6.6401                 6.7358
 IR Inten    --     16.5372                 0.2753                 4.0466

                     70                     71                     72
                      A                      A                      A
 Frequencies --   3235.8318              3424.5234              3613.6094
 Red. masses --      1.0923                 1.0536                 1.0903
 Frc consts  --      6.7386                 7.2796                 8.3881
 IR Inten    --      3.2403                 3.6761                21.5160

 - Thermochemistry -
 -------------------
 Temperature   298.150 Kelvin.  Pressure   1.00000 Atm.
 Atom     1 has atomic number  6 and mass  12.00000

 Molecular mass:   192.08988 amu.
 Principal axes and moments of inertia in atomic units:
                           1         2         3
     Eigenvalues --   652.416327266.688887725.92721
           X            1.00000   0.00173  -0.00247
           Y           -0.00172   0.99999   0.00313
           Z            0.00248  -0.00313   0.99999
 This molecule is an asymmetric top.
 Rotational symmetry number  1.
 Warning -- assumption of classical behavior for rotation
           may cause significant error
 Rotational temperatures (Kelvin)      0.13276     0.01192     0.01121
 Rotational constants (GHZ):           2.76624     0.24836     0.23360
 Zero-point vibrational energy     555434.1 (Joules/Mol)
                                  132.75193 (Kcal/Mol)
 Warning -- explicit consideration of  19 degrees of freedom as
           vibrations may cause significant error
 Vibrational temperatures:     54.24    72.80   118.04   134.63   166.65
          (Kelvin)            199.32   248.60   283.94   338.89   402.86
                              483.51   499.59   576.86   600.61   611.55
                              665.10   700.68   750.76   761.56   937.72
                              994.52  1016.17  1029.43  1115.46  1137.18
                             1227.49  1232.35  1265.15  1284.89  1291.45
                             1371.02  1401.94  1445.12  1486.71  1503.69
                             1620.55  1631.65  1649.84  1671.37  1738.20
                             1744.49  1824.25  1843.39  1884.93  1931.05
                             1936.43  1969.73  2042.84  2076.95  2085.41
                             2109.18  2180.35  2184.97  2213.50  2244.12
                             2327.31  2394.65  2425.21  2456.26  2578.29
                             4370.42  4404.40  4450.33  4498.51  4517.83
                             4545.87  4580.12  4631.34  4650.53  4655.64
                             4927.13  5199.18

 Zero-point correction=                           0.211554 (Hartree/Particle)
 Thermal correction to Energy=                    0.224962
 Thermal correction to Enthalpy=                  0.225907
 Thermal correction to Gibbs Free Energy=         0.170568
 Sum of electronic and zero-point Energies=           -648.057413
 Sum of electronic and thermal Energies=              -648.044004
 Sum of electronic and thermal Enthalpies=            -648.043060
 Sum of electronic and thermal Free Energies=         -648.098399

                     E (Thermal)             CV                S
                      KCal/Mol        Cal/Mol-Kelvin    Cal/Mol-Kelvin
 Total                  141.166             49.746            116.470
 Electronic               0.000              0.000              0.000
 Translational            0.889              2.981             41.664
 Rotational               0.889              2.981             31.971
 Vibrational            139.389             43.785             42.835
 Vibration     1          0.594              1.982              5.377
 Vibration     2          0.595              1.977              4.794
 Vibration     3          0.600              1.961              3.841
 Vibration     4          0.603              1.954              3.584
 Vibration     5          0.608              1.936              3.169
 Vibration     6          0.614              1.915              2.824
 Vibration     7          0.626              1.876              2.405
 Vibration     8          0.637              1.844              2.158
 Vibration     9          0.655              1.786              1.836
 Vibration    10          0.680              1.711              1.534
 Vibration    11          0.717              1.603              1.231
 Vibration    12          0.725              1.581              1.179
 Vibration    13          0.767              1.468              0.959
 Vibration    14          0.780              1.432              0.901
 Vibration    15          0.787              1.416              0.875
 Vibration    16          0.820              1.334              0.760
 Vibration    17          0.843              1.279              0.691
 Vibration    18          0.877              1.202              0.606
 Vibration    19          0.884              1.185              0.589

 Optimization completed.
    -- Stationary point found.
 Normal termination of Gaussian 16 at Thu Dec 10 09:19:48 2020.

 ----------------------------------------------------------------------
 # B3LYP/6-311++G(d,p) empiricaldispersion=gd3bj scf=xqc pop=npa geom=c
 heck
 ----------------------------------------------------------------------

 ---------------------------------------
 CID_119083447_JID_4059_Energie_neutraal
 ---------------------------------------
 Structure from the checkpoint file:  "JID_4059.chk"
 Charge =  0 Multiplicity = 1

 SCF Done:  E(RB3LYP) =  -648.454640691     A.U. after   15 cycles
 Normal termination of Gaussian 16 at Thu Dec 10 09:22:00 2020.

 ----------------------------------------------------------------------
 # B3LYP/6-311++G(d,p) empiricaldispersion=gd3bj scf=xqc pop=npa geom=c
 heck
 ----------------------------------------------------------------------

 -------------------------------------
 CID_119083447_JID_4059_Energie_kation
 -------------------------------------
 Structure from the checkpoint file:  "JID_4059.chk"
 Charge =  1 Multiplicity = 2

 SCF Done:  E(UB3LYP) =  -648.161539272     A.U. after   23 cycles
 Normal termination of Gaussian 16 at Thu Dec 10 09:27:13 2020.
 Gaussian 16:  ES64L-G16RevA.03 25-Dec-2016

 ----------------------------------------------------------------------
 # B3LYP/6-311++G(d,p) empiricaldispersion=gd3bj scf=xqc pop=npa geom=c
 heck
 ----------------------------------------------------------------------

 ------------------------------------
 CID_119083447_JID_4059_Energie_anion
 ------------------------------------
 Structure from the checkpoint file:  "JID_4059.chk"
 Charge = -1 Multiplicity = 2

                         Standard orientation:
 ---------------------------------------------------------------------
 Center     Atomic      Atomic             Coordinates (Angstroms)
 Number     Number       Type             X           Y           Z
 ---------------------------------------------------------------------
      1          6           0       -4.892294   -0.280761    1.020984
      2          6           0       -4.311617   -0.456802   -0.373169
      3          8           0       -2.881227   -0.651957   -0.323238
      4          6           0       -2.128576    0.470168   -0.228994
      5          8           0       -2.598718    1.592590   -0.204503
      6          6           0       -0.675856    0.169714   -0.163393
      7          6           0        0.218485    1.248755   -0.076300
      8          6           0        1.584321    1.027554   -0.011882
      9          6           0        2.093928   -0.284691   -0.030394
     10          6           0        1.193951   -1.359094   -0.118189
     11          6           0       -0.177094   -1.138318   -0.184199
     12          6           0        3.527891   -0.556624    0.042419
     13          7           0        4.392026    0.387053    0.155295
     14          7           0        5.714906    0.054198    0.136702
     15          1           0       -4.632890   -1.131953    1.658814
     16          1           0       -5.984538   -0.210940    0.964486
     17          1           0       -4.510954    0.635609    1.478760
     18          1           0       -4.690215   -1.360937   -0.855854
     19          1           0       -4.526615    0.409835   -1.002796
     20          1           0       -0.186586    2.254880   -0.062794
     21          1           0        2.280105    1.856827    0.052432
     22          1           0        1.577804   -2.376199   -0.134979
     23          1           0       -0.865746   -1.972274   -0.251585
     24          1           0        3.837350   -1.610592   -0.006100
     25          1           0        5.932921   -0.895975    0.444703
     26          1           0        6.261556    0.748492    0.631572
 ---------------------------------------------------------------------

 SCF Done:  E(UB3LYP) =  -648.470866015     A.U. after   25 cycles

 The electronic state is 2-A.
 Alpha  occ. eigenvalues --  -19.02532 -18.94956 -14.21130 -14.17799 -10.13576
 Alpha  occ. eigenvalues --  -10.11651 -10.06551 -10.04671 -10.02385 -10.02234
 Alpha  occ. eigenvalues --  -10.02152 -10.02139 -10.01631 -10.01492  -0.96233
 Alpha  occ. eigenvalues --   -0.86906  -0.85680  -0.71251  -0.67414  -0.66046
 Alpha  occ. eigenvalues --   -0.60698  -0.59687  -0.54679  -0.49902  -0.45996
 Alpha  occ. eigenvalues --   -0.44673  -0.42540  -0.39665  -0.38804  -0.36819
 Alpha  occ. eigenvalues --   -0.35519  -0.33927  -0.32669  -0.30960  -0.29887
 Alpha  occ. eigenvalues --   -0.28852  -0.28169  -0.27437  -0.27157  -0.26519
 Alpha  occ. eigenvalues --   -0.25601  -0.22429  -0.21727  -0.21127  -0.19291
 Alpha  occ. eigenvalues --   -0.17362  -0.14149  -0.13572  -0.13172  -0.11190
 Alpha  occ. eigenvalues --   -0.07845   0.03986
 Alpha virt. eigenvalues --    0.07261   0.07861   0.09641   0.09961   0.10502
 Alpha virt. eigenvalues --    0.11120   0.12003   0.12630   0.12659   0.13679
 Alpha virt. eigenvalues --    0.14025   0.14102   0.15463   0.15864   0.16271

  Beta  occ. eigenvalues --  -19.02478 -18.94712 -14.21050 -14.17195 -10.13402
  Beta  occ. eigenvalues --  -10.11655 -10.06541 -10.04716 -10.02400 -10.02124
  Beta  occ. eigenvalues --  -10.02023 -10.01973 -10.01451 -10.01428  -0.96020
  Beta  occ. eigenvalues --   -0.86535  -0.85047  -0.70920  -0.67084  -0.65931
  Beta  occ. eigenvalues --   -0.60222  -0.59399  -0.54474  -0.49356  -0.45919
  Beta  occ. eigenvalues --   -0.44355  -0.42345  -0.39541  -0.38666  -0.36567
  Beta  occ. eigenvalues --   -0.35329  -0.33745  -0.32387  -0.30725  -0.29725
  Beta  occ. eigenvalues --   -0.28740  -0.27988  -0.27368  -0.26564  -0.25653
  Beta  occ. eigenvalues --   -0.24633  -0.22292  -0.21046  -0.20734  -0.19189
  Beta  occ. eigenvalues --   -0.16555  -0.13083  -0.12903  -0.12747  -0.10428
  Beta  occ. eigenvalues --   -0.06268
  Beta virt. eigenvalues --    0.07180   0.07813   0.09471   0.09764   0.09908
  Beta virt. eigenvalues --    0.10434   0.11074   0.12005   0.12596   0.13164
  Beta virt. eigenvalues --    0.13743   0.14033   0.14885   0.15414   0.16245

 Mulliken charges and spin densities:
               1          2
     1  C   -0.269741  -0.061350
     2  C   -0.204442   0.020332
     3  O   -0.021629   0.010898
     4  C   -0.154896   0.054985
     5  O   -0.358467   0.086855
     6  C    0.639610   0.137833
     7  C   -0.413976   0.070141
     8  C   -0.278658   0.087237
     9  C    0.563622   0.137100
    10  C   -0.870480  -0.029024
    11  C   -0.600704   0.124785
    12  C   -0.270135  -0.038494
    13  N   -0.112744   0.236262
    14  N   -0.201594   0.061028
    15  H    0.118428   0.011921
    16  H    0.072287   0.030497
    17  H    0.156762   0.018727
    18  H    0.124363   0.005222
    19  H    0.166393  -0.003763
    20  H    0.151445  -0.002167
    21  H    0.167537  -0.004705
    22  H    0.088904   0.002631
    23  H    0.126448  -0.007164
    24  H    0.047914   0.001627
    25  H    0.127827   0.036106
    26  H    0.205925   0.012478
 Sum of Mulliken charges =  -1.00000   1.00000

 Dipole moment (field-independent basis, Debye):
    X=             -3.2480    Y=             -3.0078    Z=              0.9990  Tot=              4.5381
 Quadrupole moment (field-independent basis, Debye-Ang):
   XX=           -127.4588   YY=            -94.5351   ZZ=            -92.8086
   XY=              2.8981   XZ=              5.6254   YZ=              1.0003

 Summary of Natural Population Analysis:

                                       Natural Population
                Natural  -----------------------------------------------
    Atom  No    Charge         Core      Valence    Rydberg      Total
 -----------------------------------------------------------------------
      C    1   -0.29966      0.99967     2.29498    0.00502     3.29966
      C    2   -0.01574      0.99960     2.00583    0.01032     3.01574
      O    3   -0.28645      0.99986     3.27777    0.00882     4.28645
      C    4    0.41938      0.99964     1.55691    0.02408     2.58062
      O    5   -0.30901      0.99987     3.30359    0.00555     4.30901
      C    6   -0.05468      0.99945     2.04569    0.00954     3.05468
      C    7   -0.07582      0.99955     2.06761    0.00866     3.07582
      C    8   -0.09322      0.99954     2.08498    0.00871     3.09322
      C    9    0.00747      0.99950     1.98347    0.00956     2.99253
      C   10   -0.11159      0.99954     2.10348    0.00856     3.11159
      C   11   -0.06597      0.99955     2.05798    0.00844     3.06597
      C   12   -0.00942      0.99960     1.99569    0.01413     3.00942
      N   13   -0.05067      0.99964     2.53329    0.01774     3.55067
      N   14   -0.30510      0.99976     2.79178    0.01357     3.80510
      H   15    0.09654      0.00000     0.40207    0.00139     0.40346
      H   16    0.09176      0.00000     0.40670    0.00154     0.40824
      H   17    0.10876      0.00000     0.38950    0.00173     0.39124
      H   18    0.08108      0.00000     0.41781    0.00111     0.41892
      H   19    0.09285      0.00000     0.40570    0.00145     0.40715
      H   20    0.10262      0.00000     0.39633    0.00105     0.39738
      H   21    0.10172      0.00000     0.39702    0.00126     0.39828
      H   22    0.08828      0.00000     0.41015    0.00158     0.41172
      H   23    0.09818      0.00000     0.40084    0.00098     0.40182
      H   24    0.06009      0.00000     0.43765    0.00226     0.43991
      H   25    0.15620      0.00000     0.34032    0.00348     0.34380
      H   26    0.17242      0.00000     0.32529    0.00229     0.32758
 =======================================================================
   * Total *    0.00000     13.99477    36.83240    0.17283    51.00000

 Normal termination of Gaussian 16 at Thu Dec 10 09:32:24 2020.
