 Gaussian 16, Revision A.03,

 -----------------------------------------------------------
 # opt freq B3LYP/6-31G(d) empiricaldispersion=gd3bj scf=xqc
 -----------------------------------------------------------

 -------------------------------
 CID_104256855_JID_5632_neutraal
 -------------------------------
 Symbolic Z-matrix:
 Charge =  0 Multiplicity = 1

 SCF Done:  E(RB3LYP) =  -704.852052161     A.U. after   15 cycles
 SCF Done:  E(RB3LYP) =  -704.856864588     A.U. after   12 cycles
 SCF Done:  E(RB3LYP) =  -704.857928852     A.U. after   13 cycles
 SCF Done:  E(RB3LYP) =  -704.857383978     A.U. after   13 cycles
 SCF Done:  E(RB3LYP) =  -704.856401083     A.U. after   13 cycles
 SCF Done:  E(RB3LYP) =  -704.856681669     A.U. after   12 cycles
 SCF Done:  E(RB3LYP) =  -704.858344221     A.U. after   10 cycles
 SCF Done:  E(RB3LYP) =  -704.858855394     A.U. after   12 cycles
 SCF Done:  E(RB3LYP) =  -704.859166550     A.U. after   12 cycles
 SCF Done:  E(RB3LYP) =  -704.859236512     A.U. after   11 cycles
 SCF Done:  E(RB3LYP) =  -704.859318427     A.U. after    9 cycles
 SCF Done:  E(RB3LYP) =  -704.859320125     A.U. after    9 cycles
 SCF Done:  E(RB3LYP) =  -704.859320487     A.U. after    8 cycles
 SCF Done:  E(RB3LYP) =  -704.859320703     A.U. after    7 cycles
 SCF Done:  E(RB3LYP) =  -704.859320783     A.U. after    7 cycles
 SCF Done:  E(RB3LYP) =  -704.859320825     A.U. after    7 cycles
 Optimization completed.
    -- Stationary point found.
 Normal termination of Gaussian 16 at Thu Dec 10 16:39:39 2020.

 --------------------------------------------------------------------
 #N Geom=AllCheck Guess=TCheck SCRF=Check GenChk RB3LYP/6-31G(d) Freq
 --------------------------------------------------------------------

 Structure from the checkpoint file:  "JID_5632.chk"
 -------------------------------
 CID_104256855_JID_5632_neutraal
 -------------------------------
 Charge =  0 Multiplicity = 1

 SCF Done:  E(RB3LYP) =  -704.859320825     A.U. after    1 cycles

  Exact polarizability: 170.006  13.244 148.246  -6.025   5.428  79.859
 Approx polarizability: 235.518  26.367 249.178  -8.157  17.240 120.565

                      1                      2                      3
                      A                      A                      A
 Frequencies --     32.2267                52.2523                62.8768
 Red. masses --      5.3197                 3.5407                 3.8536
 Frc consts  --      0.0033                 0.0057                 0.0090
 IR Inten    --      3.8485                 0.6186                 0.0676

                      4                      5                      6
                      A                      A                      A
 Frequencies --     88.9398               123.1797               139.1016
 Red. masses --      6.4092                 3.9946                 5.4397
 Frc consts  --      0.0299                 0.0357                 0.0620
 IR Inten    --      1.7547                 0.0844                 0.6739

                      7                      8                      9
                      A                      A                      A
 Frequencies --    186.4552               227.9816               237.4012
 Red. masses --      4.7236                 4.2343                 2.2196
 Frc consts  --      0.0968                 0.1297                 0.0737
 IR Inten    --      1.1777                 0.4832                 5.6406

                     10                     11                     12
                      A                      A                      A
 Frequencies --    266.2777               296.5046               307.1107
 Red. masses --      1.4999                 2.5996                 1.5572
 Frc consts  --      0.0627                 0.1347                 0.0865
 IR Inten    --      2.3574                 2.1920                72.4510

                     13                     14                     15
                      A                      A                      A
 Frequencies --    327.7799               349.1981               371.4425
 Red. masses --      2.0782                 1.2562                 2.8932
 Frc consts  --      0.1316                 0.0903                 0.2352
 IR Inten    --     57.2113                69.2964                24.5979

                     16                     17                     18
                      A                      A                      A
 Frequencies --    393.2791               422.7313               467.6916
 Red. masses --      2.0198                 2.5242                 4.6692
 Frc consts  --      0.1841                 0.2658                 0.6017
 IR Inten    --      2.3791                 8.6019                 8.7281

                     19                     20                     21
                      A                      A                      A
 Frequencies --    473.9449               546.7677               562.8612
 Red. masses --      4.3701                 2.8219                 3.7386
 Frc consts  --      0.5784                 0.4970                 0.6979
 IR Inten    --      9.0063                 4.3431                 2.1260

                     22                     23                     24
                      A                      A                      A
 Frequencies --    575.6024               583.0809               654.4869
 Red. masses --      3.1051                 4.3616                 3.9084
 Frc consts  --      0.6061                 0.8737                 0.9864
 IR Inten    --      5.8364                 1.1251                21.5677

                     25                     26                     27
                      A                      A                      A
 Frequencies --    661.2783               704.9498               752.4744
 Red. masses --      2.6333                 1.7529                 4.4638
 Frc consts  --      0.6785                 0.5133                 1.4892
 IR Inten    --     20.6274                68.2361                21.1510

                     28                     29                     30
                      A                      A                      A
 Frequencies --    788.7122               793.3942               796.4915
 Red. masses --      2.6223                 1.8743                 2.4058
 Frc consts  --      0.9611                 0.6951                 0.8992
 IR Inten    --      1.1637                17.8092                14.4585

                     31                     32                     33
                      A                      A                      A
 Frequencies --    849.6135               907.0345               910.2596
 Red. masses --      6.6442                 2.2809                 1.3379
 Frc consts  --      2.8258                 1.1056                 0.6532
 IR Inten    --      9.0925                10.4286                 2.7466

                     34                     35                     36
                      A                      A                      A
 Frequencies --    931.2397               952.9396               962.6471
 Red. masses --      2.2569                 1.3081                 3.0314
 Frc consts  --      1.1531                 0.6999                 1.6551
 IR Inten    --     50.3640                 0.4812                13.5946

                     37                     38                     39
                      A                      A                      A
 Frequencies --    980.9548               987.8003              1012.8506
 Red. masses --      1.5909                 1.3835                 1.8769
 Frc consts  --      0.9020                 0.7954                 1.1345
 IR Inten    --     31.1987                19.1421                 5.9711

                     40                     41                     42
                      A                      A                      A
 Frequencies --   1051.3613              1101.6688              1114.7033
 Red. masses --      2.0042                 2.1099                 2.0581
 Frc consts  --      1.3052                 1.5088                 1.5068
 IR Inten    --      3.4953                 9.4396                55.4466

                     43                     44                     45
                      A                      A                      A
 Frequencies --   1122.4555              1174.5849              1187.6144
 Red. masses --      1.9724                 1.2702                 1.3456
 Frc consts  --      1.4642                 1.0325                 1.1182
 IR Inten    --      8.7566                43.0039                97.9567

                     46                     47                     48
                      A                      A                      A
 Frequencies --   1205.7598              1240.3633              1257.6162
 Red. masses --      1.7589                 1.6913                 1.4579
 Frc consts  --      1.5067                 1.5331                 1.3586
 IR Inten    --    106.4951                72.1518                22.4564

                     49                     50                     51
                      A                      A                      A
 Frequencies --   1292.5805              1306.1783              1311.1863
 Red. masses --      1.8588                 1.7945                 2.0556
 Frc consts  --      1.8298                 1.8038                 2.0822
 IR Inten    --    267.7553                19.8696                61.0716

                     52                     53                     54
                      A                      A                      A
 Frequencies --   1339.6499              1376.9563              1393.6773
 Red. masses --      1.7900                 1.3853                 1.6358
 Frc consts  --      1.8927                 1.5475                 1.8720
 IR Inten    --     24.2141                 8.1900                22.8660

                     55                     56                     57
                      A                      A                      A
 Frequencies --   1402.8969              1420.2567              1432.7445
 Red. masses --      2.4327                 1.5345                 1.2645
 Frc consts  --      2.8209                 1.8237                 1.5294
 IR Inten    --     40.7733                70.5262                16.1598

                     58                     59                     60
                      A                      A                      A
 Frequencies --   1439.3591              1484.1938              1506.4573
 Red. masses --      1.3874                 2.1629                 1.1081
 Frc consts  --      1.6935                 2.8071                 1.4817
 IR Inten    --     47.3586                33.6129                 9.6139

                     61                     62                     63
                      A                      A                      A
 Frequencies --   1515.0594              1524.0020              1530.0323
 Red. masses --      1.0798                 1.9463                 1.0969
 Frc consts  --      1.4603                 2.6634                 1.5130
 IR Inten    --     10.8574                 0.1703                11.0427

                     64                     65                     66
                      A                      A                      A
 Frequencies --   1533.0878              1548.6605              1643.4976
 Red. masses --      1.0691                 3.2532                 6.3288
 Frc consts  --      1.4805                 4.5970                10.0718
 IR Inten    --      2.0750               313.9906                 8.3443

                     67                     68                     69
                      A                      A                      A
 Frequencies --   1664.6150              1713.2558              1796.1659
 Red. masses --      5.7476                 1.0869                 8.0228
 Frc consts  --      9.3834                 1.8796                15.2500
 IR Inten    --    124.9270                18.8262               368.8149

                     70                     71                     72
                      A                      A                      A
 Frequencies --   3034.5155              3036.6116              3052.8115
 Red. masses --      1.0700                 1.0488                 1.0691
 Frc consts  --      5.8053                 5.6977                 5.8706
 IR Inten    --     32.1451                20.5641                27.9796

                     73                     74                     75
                      A                      A                      A
 Frequencies --   3065.5301              3100.0475              3112.2058
 Red. masses --      1.0692                 1.1016                 1.1012
 Frc consts  --      5.9198                 6.2377                 6.2843
 IR Inten    --     41.5070                42.5221                54.4306

                     76                     77                     78
                      A                      A                      A
 Frequencies --   3114.1808              3169.7410              3178.7938
 Red. masses --      1.0991                 1.0912                 1.0899
 Frc consts  --      6.2800                 6.4594                 6.4890
 IR Inten    --     13.6096                 6.2140                14.5186

                     79                     80                     81
                      A                      A                      A
 Frequencies --   3190.0456              3224.7344              3437.7725
 Red. masses --      1.0897                 1.0958                 1.0514
 Frc consts  --      6.5335                 6.7138                 7.3209
 IR Inten    --     15.4250                13.5885                48.1804

                     82                     83                     84
                      A                      A                      A
 Frequencies --   3528.2853              3586.0698              3754.9680
 Red. masses --      1.0905                 1.0753                 1.0662
 Frc consts  --      7.9986                 8.1474                 8.8575
 IR Inten    --     14.7601                50.4422                56.8002

 - Thermochemistry -
 -------------------
 Temperature   298.150 Kelvin.  Pressure   1.00000 Atm.
 Atom     1 has atomic number  6 and mass  12.00000

 Molecular mass:   209.11643 amu.
 Principal axes and moments of inertia in atomic units:
                           1         2         3
     Eigenvalues --  1949.400624225.617675632.23410
           X            0.99977  -0.02082  -0.00436
           Y            0.02081   0.99978  -0.00240
           Z            0.00441   0.00230   0.99999
 This molecule is an asymmetric top.
 Rotational symmetry number  1.
 Warning -- assumption of classical behavior for rotation
           may cause significant error
 Rotational temperatures (Kelvin)      0.04443     0.02050     0.01538
 Rotational constants (GHZ):           0.92579     0.42710     0.32043
 Zero-point vibrational energy     663680.8 (Joules/Mol)
                                  158.62352 (Kcal/Mol)
 Warning -- explicit consideration of  23 degrees of freedom as
           vibrations may cause significant error
 Vibrational temperatures:     46.37    75.18    90.47   127.96   177.23
          (Kelvin)            200.14   268.27   328.01   341.57   383.11
                              426.60   441.86   471.60   502.42   534.42
                              565.84   608.22   672.90   681.90   786.68
                              809.83   828.16   838.92   941.66   951.43
                             1014.27  1082.64  1134.78  1141.52  1145.97
                             1222.40  1305.02  1309.66  1339.85  1371.07
                             1385.03  1411.38  1421.22  1457.27  1512.67
                             1585.06  1603.81  1614.96  1689.97  1708.71
                             1734.82  1784.61  1809.43  1859.74  1879.30
                             1886.50  1927.46  1981.13  2005.19  2018.46
                             2043.43  2061.40  2070.92  2135.42  2167.46
                             2179.83  2192.70  2201.38  2205.77  2228.18
                             2364.63  2395.01  2464.99  2584.28  4365.99
                             4369.01  4392.31  4410.61  4460.28  4477.77
                             4480.61  4560.55  4573.58  4589.76  4639.67
                             4946.19  5076.42  5159.55  5402.56

 Zero-point correction=                           0.252783 (Hartree/Particle)
 Thermal correction to Energy=                    0.267473
 Thermal correction to Enthalpy=                  0.268418
 Thermal correction to Gibbs Free Energy=         0.210687
 Sum of electronic and zero-point Energies=           -704.606538
 Sum of electronic and thermal Energies=              -704.591847
 Sum of electronic and thermal Enthalpies=            -704.590903
 Sum of electronic and thermal Free Energies=         -704.648634

                     E (Thermal)             CV                S
                      KCal/Mol        Cal/Mol-Kelvin    Cal/Mol-Kelvin
 Total                  167.842             56.198            121.505
 Electronic               0.000              0.000              0.000
 Translational            0.889              2.981             41.917
 Rotational               0.889              2.981             32.206
 Vibrational            166.065             50.236             47.382
 Vibration     1          0.594              1.983              5.687
 Vibration     2          0.596              1.977              4.730
 Vibration     3          0.597              1.972              4.365
 Vibration     4          0.602              1.957              3.683
 Vibration     5          0.610              1.930              3.050
 Vibration     6          0.615              1.914              2.816
 Vibration     7          0.632              1.858              2.263
 Vibration     8          0.651              1.798              1.895
 Vibration     9          0.656              1.783              1.822
 Vibration    10          0.672              1.735              1.620
 Vibration    11          0.690              1.680              1.437
 Vibration    12          0.697              1.660              1.378
 Vibration    13          0.711              1.620              1.271
 Vibration    14          0.726              1.577              1.170
 Vibration    15          0.743              1.531              1.074
 Vibration    16          0.760              1.485              0.988
 Vibration    17          0.785              1.421              0.883
 Vibration    18          0.825              1.322              0.744
 Vibration    19          0.831              1.308              0.727
 Vibration    20          0.902              1.147              0.551
 Vibration    21          0.919              1.112              0.518
 Vibration    22          0.932              1.084              0.494
 Vibration    23          0.940              1.068              0.480

 Optimization completed.
    -- Stationary point found.
 Normal termination of Gaussian 16 at Thu Dec 10 16:49:53 2020.

 ----------------------------------------------------------------------
 # B3LYP/6-311++G(d,p) empiricaldispersion=gd3bj scf=xqc pop=npa geom=c
 heck
 ----------------------------------------------------------------------

 ---------------------------------------
 CID_104256855_JID_5632_Energie_neutraal
 ---------------------------------------
 Structure from the checkpoint file:  "JID_5632.chk"
 Charge =  0 Multiplicity = 1

 SCF Done:  E(RB3LYP) =  -705.074518405     A.U. after   15 cycles
 Normal termination of Gaussian 16 at Thu Dec 10 16:55:30 2020.

 ----------------------------------------------------------------------
 # B3LYP/6-311++G(d,p) empiricaldispersion=gd3bj scf=xqc pop=npa geom=c
 heck
 ----------------------------------------------------------------------

 -------------------------------------
 CID_104256855_JID_5632_Energie_kation
 -------------------------------------
 Structure from the checkpoint file:  "JID_5632.chk"
 Charge =  1 Multiplicity = 2

 SCF Done:  E(UB3LYP) =  -704.781757027     A.U. after   24 cycles
 Normal termination of Gaussian 16 at Thu Dec 10 17:06:41 2020.
 Gaussian 16:  ES64L-G16RevA.03 25-Dec-2016

 ----------------------------------------------------------------------
 # B3LYP/6-311++G(d,p) empiricaldispersion=gd3bj scf=xqc pop=npa geom=c
 heck
 ----------------------------------------------------------------------

 ------------------------------------
 CID_104256855_JID_5632_Energie_anion
 ------------------------------------
 Structure from the checkpoint file:  "JID_5632.chk"
 Charge = -1 Multiplicity = 2

                         Standard orientation:
 ---------------------------------------------------------------------
 Center     Atomic      Atomic             Coordinates (Angstroms)
 Number     Number       Type             X           Y           Z
 ---------------------------------------------------------------------
      1          6           0        2.896519   -2.110473   -0.192647
      2          6           0        2.995704   -0.749420    0.516803
      3          6           0        3.024457    0.424310   -0.477923
      4          6           0        1.660195    0.757818   -1.112592
      5          6           0        0.839233    1.692045   -0.240796
      6          8           0        1.270445    2.772591    0.124490
      7          7           0       -0.496142    1.394990    0.050847
      8          6           0       -1.261114    0.241212   -0.046725
      9          6           0       -2.666339    0.385214    0.097725
     10          6           0       -3.465202   -0.741780    0.021501
     11          6           0       -2.865439   -1.988778   -0.199777
     12          6           0       -1.485737   -2.037075   -0.320107
     13          7           0       -0.699879   -0.950817   -0.233504
     14          8           0       -3.129374    1.654966    0.309174
     15          7           0        1.931397   -0.529946    1.508277
     16          1           0        1.958214   -2.187792   -0.754435
     17          1           0        2.913656   -2.926972    0.539606
     18          1           0        3.727235   -2.267589   -0.892079
     19          1           0        3.947952   -0.721324    1.063222
     20          1           0        3.382079    1.324089    0.031656
     21          1           0        3.740308    0.192200   -1.275853
     22          1           0        1.835359    1.333950   -2.029829
     23          1           0        1.105173   -0.139401   -1.382279
     24          1           0       -0.971871    2.188252    0.466065
     25          1           0       -4.544433   -0.651609    0.125956
     26          1           0       -3.463800   -2.890716   -0.267559
     27          1           0       -0.968286   -2.979547   -0.479682
     28          1           0       -4.089416    1.632113    0.443711
     29          1           0        2.075505   -1.154329    2.300719
     30          1           0        1.042454   -0.809814    1.089353
 ---------------------------------------------------------------------

 SCF Done:  E(UB3LYP) =  -705.073136003     A.U. after   31 cycles

 The electronic state is 2-A.
 Alpha  occ. eigenvalues --  -19.04782 -18.97556 -14.23137 -14.18784 -14.18115
 Alpha  occ. eigenvalues --  -10.16058 -10.12877 -10.12614 -10.10129 -10.08879
 Alpha  occ. eigenvalues --  -10.06648 -10.06626 -10.06551 -10.06264 -10.06121
 Alpha  occ. eigenvalues --   -0.95934  -0.93065  -0.85246  -0.79281  -0.78483
 Alpha  occ. eigenvalues --   -0.68498  -0.67772  -0.64097  -0.62816  -0.56940
 Alpha  occ. eigenvalues --   -0.54211  -0.52569  -0.48114  -0.45053  -0.43712
 Alpha  occ. eigenvalues --   -0.43202  -0.40467  -0.39096  -0.36582  -0.35545
 Alpha  occ. eigenvalues --   -0.34315  -0.33413  -0.32623  -0.32158  -0.31714
 Alpha  occ. eigenvalues --   -0.30968  -0.29968  -0.29403  -0.28400  -0.27407
 Alpha  occ. eigenvalues --   -0.26071  -0.25809  -0.25057  -0.23514  -0.22442
 Alpha  occ. eigenvalues --   -0.20104  -0.16013  -0.15760  -0.14779  -0.13840
 Alpha  occ. eigenvalues --   -0.10615   0.04292
 Alpha virt. eigenvalues --    0.06246   0.06848   0.07857   0.08250   0.08997
 Alpha virt. eigenvalues --    0.09398   0.10039   0.10726   0.11521   0.11614
 Alpha virt. eigenvalues --    0.12103   0.12370   0.13444   0.14088   0.14272

  Beta  occ. eigenvalues --  -19.04729 -18.97470 -14.23175 -14.18578 -14.18103
  Beta  occ. eigenvalues --  -10.15971 -10.12757 -10.12645 -10.10127 -10.08881
  Beta  occ. eigenvalues --  -10.06652 -10.06620 -10.06546 -10.06100 -10.06044
  Beta  occ. eigenvalues --   -0.95828  -0.92913  -0.85021  -0.79148  -0.78466
  Beta  occ. eigenvalues --   -0.68206  -0.67730  -0.63927  -0.62782  -0.56842
  Beta  occ. eigenvalues --   -0.54006  -0.52453  -0.48017  -0.44929  -0.43551
  Beta  occ. eigenvalues --   -0.43127  -0.40440  -0.39008  -0.36505  -0.35435
  Beta  occ. eigenvalues --   -0.34225  -0.33193  -0.32504  -0.32085  -0.31605
  Beta  occ. eigenvalues --   -0.30824  -0.29905  -0.29267  -0.28341  -0.27272
  Beta  occ. eigenvalues --   -0.25988  -0.25441  -0.24994  -0.23461  -0.22406
  Beta  occ. eigenvalues --   -0.19648  -0.15713  -0.15129  -0.14634  -0.13806
  Beta  occ. eigenvalues --   -0.10266
  Beta virt. eigenvalues --    0.06206   0.07695   0.07979   0.08452   0.08618
  Beta virt. eigenvalues --    0.09262   0.09532   0.10180   0.11030   0.11409
  Beta virt. eigenvalues --    0.11599   0.12226   0.12465   0.13675   0.14156

 Mulliken charges and spin densities:
               1          2
     1  C   -0.519517  -0.137081
     2  C    0.011673   0.059118
     3  C   -0.333240  -0.098755
     4  C    0.112890  -0.011109
     5  C    0.071192  -0.223322
     6  O   -0.338465   0.042157
     7  N   -0.106007  -0.099940
     8  C    0.567387  -0.598415
     9  C   -0.127439  -0.166284
    10  C    0.060926   0.008482
    11  C    0.909357  -1.172334
    12  C   -0.733995   0.607134
    13  N   -0.110157   0.146933
    14  O   -0.286447   0.017461
    15  N   -0.416290  -0.015559
    16  H    0.145094   0.016568
    17  H    0.070298   0.046430
    18  H    0.071807   0.038239
    19  H    0.109203   0.048274
    20  H    0.241656  -0.028955
    21  H    0.041276   0.078473
    22  H    0.110301   0.083278
    23  H    0.216502  -0.021503
    24  H    0.331594   0.015681
    25  H   -1.213209   1.381801
    26  H    0.015052   0.128573
    27  H    0.030620   0.090845
    28  H   -0.412002   0.717120
    29  H    0.207800   0.034152
    30  H    0.272138   0.012535
 Sum of Mulliken charges =  -1.00000   1.00000

 Dipole moment (field-independent basis, Debye):
    X=              8.5621    Y=             -4.1998    Z=             -1.7167  Tot=              9.6899
 Quadrupole moment (field-independent basis, Debye-Ang):
   XX=           -170.8864   YY=           -125.5339   ZZ=           -107.8450
   XY=             -1.8714   XZ=              5.5291   YZ=             -4.8367

 Summary of Natural Population Analysis:

                                       Natural Population
                Natural  -----------------------------------------------
    Atom  No    Charge         Core      Valence    Rydberg      Total
 -----------------------------------------------------------------------
      C    1   -0.29641      0.99965     2.29154    0.00522     3.29641
      C    2   -0.01241      0.99962     2.00260    0.01018     3.01241
      C    3   -0.18624      0.99960     2.17797    0.00867     3.18624
      C    4   -0.24448      0.99957     2.23667    0.00824     3.24448
      C    5    0.36755      0.99969     1.60981    0.02296     2.63245
      O    6   -0.31305      0.99987     3.30735    0.00583     4.31305
      N    7   -0.31694      0.99963     2.80801    0.00929     3.81694
      C    8    0.19602      0.99950     1.78912    0.01536     2.80398
      C    9    0.12897      0.99936     1.85823    0.01344     2.87103
      C   10   -0.08838      0.99952     2.07803    0.01083     3.08838
      C   11   -0.12397      0.99957     2.11376    0.01065     3.12397
      C   12    0.01456      0.99958     1.97269    0.01317     2.98544
      N   13   -0.24707      0.99966     2.73682    0.01059     3.74707
      O   14   -0.34916      0.99987     3.34171    0.00757     4.34916
      N   15   -0.43070      0.99977     2.92023    0.01070     3.93070
      H   16    0.10349      0.00000     0.39521    0.00130     0.39651
      H   17    0.09410      0.00000     0.40454    0.00135     0.40590
      H   18    0.09293      0.00000     0.40599    0.00108     0.40707
      H   19    0.08298      0.00000     0.41522    0.00180     0.41702
      H   20    0.10883      0.00000     0.38975    0.00141     0.39117
      H   21    0.09225      0.00000     0.40657    0.00118     0.40775
      H   22    0.10967      0.00000     0.38908    0.00125     0.39033
      H   23    0.11729      0.00000     0.38113    0.00159     0.38271
      H   24    0.20659      0.00000     0.29062    0.00279     0.29341
      H   25    0.10463      0.00000     0.39121    0.00416     0.39537
      H   26    0.10022      0.00000     0.39893    0.00085     0.39978
      H   27    0.08534      0.00000     0.41367    0.00099     0.41466
      H   28    0.24585      0.00000     0.23607    0.01808     0.25415
      H   29    0.16896      0.00000     0.32970    0.00134     0.33104
      H   30    0.18857      0.00000     0.30880    0.00263     0.31143
 =======================================================================
   * Total *    0.00000     14.99447    40.80104    0.20449    56.00000

 Normal termination of Gaussian 16 at Thu Dec 10 17:21:27 2020.
