 Gaussian 16, Revision A.03,

 -----------------------------------------------------------
 # opt freq B3LYP/6-31G(d) empiricaldispersion=gd3bj scf=xqc
 -----------------------------------------------------------

 ------------------------------
 CID_12427801_JID_2407_neutraal
 ------------------------------
 Symbolic Z-matrix:
 Charge =  0 Multiplicity = 1

 SCF Done:  E(RB3LYP) =  -495.374099060     A.U. after   16 cycles
 SCF Done:  E(RB3LYP) =  -495.388318383     A.U. after   13 cycles
 SCF Done:  E(RB3LYP) =  -495.389600611     A.U. after   12 cycles
 SCF Done:  E(RB3LYP) =  -495.389648480     A.U. after   10 cycles
 SCF Done:  E(RB3LYP) =  -495.389652165     A.U. after    8 cycles
 Optimization completed.
    -- Stationary point found.

 1\1\GINC-NODE355\FOpt\RB3LYP\6-31G(d)\C10H8N2\VSC10255\09-Dec-2020\0\\
 # opt freq B3LYP/6-31G(d) empiricaldispersion=gd3bj scf=xqc\\CID_12427
 801_JID_2407_neutraal\\0,1\C,0.927560578,-0.0395080448,0.0999438012\C,
 2.2744905882,-0.1290006338,0.8057806878\C,2.4709306497,-0.5270242611,2
 .0819394253\C,1.3034713986,-0.900944923,2.8468033309\C,0.0419734353,-0
 .8422843651,2.2636109\C,-0.2618520155,-0.4450819996,0.9558319191\C,-1.
 6020830787,-0.4770300121,0.6244793829\C,-2.5716549054,-0.8958415876,1.
 5905025814\C,-2.2576816173,-1.2859828864,2.8800134794\C,-0.8863317934,

 Normal termination of Gaussian 16 at Wed Dec  9 17:15:38 2020.

 --------------------------------------------------------------------
 #N Geom=AllCheck Guess=TCheck SCRF=Check GenChk RB3LYP/6-31G(d) Freq
 --------------------------------------------------------------------

 Structure from the checkpoint file:  "JID_2407.chk"
 ------------------------------
 CID_12427801_JID_2407_neutraal
 ------------------------------
 Charge =  0 Multiplicity = 1

 SCF Done:  E(RB3LYP) =  -495.389652165     A.U. after    1 cycles

  Exact polarizability: 152.077  -4.544 139.695   0.002   0.001  42.964
 Approx polarizability: 259.733 -26.348 274.658   0.007   0.003  68.364

                      1                      2                      3
                      A                      A                      A
 Frequencies --    115.9843               190.2294               219.6526
 Red. masses --      2.4175                 4.0413                 4.0292
 Frc consts  --      0.0192                 0.0862                 0.1145
 IR Inten    --      0.0805                 3.0799                 0.7444

                      4                      5                      6
                      A                      A                      A
 Frequencies --    293.9253               400.7532               454.4074
 Red. masses --      3.6571                 4.6969                 3.0246
 Frc consts  --      0.1861                 0.4444                 0.3680
 IR Inten    --      5.5220                 1.6209                 1.3816

                      7                      8                      9
                      A                      A                      A
 Frequencies --    485.6385               505.7271               514.2030
 Red. masses --      5.6092                 6.8508                 4.1286
 Frc consts  --      0.7794                 1.0323                 0.6432
 IR Inten    --     12.2306                 1.4933                 1.0565

                     10                     11                     12
                      A                      A                      A
 Frequencies --    562.0448               580.8141               600.8745
 Red. masses --      6.2095                 1.8730                 3.2476
 Frc consts  --      1.1557                 0.3723                 0.6909
 IR Inten    --      0.9082                31.8965                 3.8471

                     13                     14                     15
                      A                      A                      A
 Frequencies --    661.7270               664.9091               723.7045
 Red. masses --      6.4278                 1.5503                 1.8078
 Frc consts  --      1.6583                 0.4038                 0.5579
 IR Inten    --      1.1869                67.7256                 9.8847

                     16                     17                     18
                      A                      A                      A
 Frequencies --    725.0508               780.1459               812.7419
 Red. masses --      6.1626                 1.3810                 4.8890
 Frc consts  --      1.9088                 0.4952                 1.9027
 IR Inten    --      6.9968                28.3206                 6.1303

                     19                     20                     21
                      A                      A                      A
 Frequencies --    817.4245               882.9479               893.7628
 Red. masses --      3.5697                 1.4767                 5.1373
 Frc consts  --      1.4053                 0.6783                 2.4179
 IR Inten    --     18.5374                 0.0361                 2.5095

                     22                     23                     24
                      A                      A                      A
 Frequencies --    931.1315               958.2453               969.6873
 Red. masses --      2.9298                 1.5039                 1.2633
 Frc consts  --      1.4966                 0.8136                 0.6999
 IR Inten    --     30.1173                 0.5541                 0.1485

                     25                     26                     27
                      A                      A                      A
 Frequencies --    983.6418              1053.6548              1065.0377
 Red. masses --      1.5782                 2.1040                 3.6941
 Frc consts  --      0.8997                 1.3762                 2.4688
 IR Inten    --      0.1723                 3.1028                17.7977

                     28                     29                     30
                      A                      A                      A
 Frequencies --   1113.2612              1160.3714              1191.6050
 Red. masses --      4.7988                 2.8584                 1.3078
 Frc consts  --      3.5041                 2.2676                 1.0941
 IR Inten    --     66.6186                 5.6753                 5.0606

                     31                     32                     33
                      A                      A                      A
 Frequencies --   1214.2804              1223.1966              1261.0492
 Red. masses --      1.3038                 1.0935                 1.5877
 Frc consts  --      1.1326                 0.9639                 1.4876
 IR Inten    --      2.5741                 1.5436                 0.6226

                     34                     35                     36
                      A                      A                      A
 Frequencies --   1300.0652              1355.8848              1370.7116
 Red. masses --      1.9778                 1.8383                 2.5317
 Frc consts  --      1.9695                 1.9912                 2.8026
 IR Inten    --      2.8507                 1.3112                14.7653

                     37                     38                     39
                      A                      A                      A
 Frequencies --   1392.5914              1445.0978              1458.2484
 Red. masses --      3.0494                 1.8253                 4.5391
 Frc consts  --      3.4843                 2.2458                 5.6870
 IR Inten    --      7.5285                15.2740                 2.4405

                     40                     41                     42
                      A                      A                      A
 Frequencies --   1471.3639              1485.3694              1556.0676
 Red. masses --      2.4745                 1.1784                 3.8036
 Frc consts  --      3.1562                 1.5319                 5.4263
 IR Inten    --      0.1416                 6.4928                 6.9886

                     43                     44                     45
                      A                      A                      A
 Frequencies --   1594.7870              1626.3810              1655.1973
 Red. masses --      4.4816                 7.0947                 6.3619
 Frc consts  --      6.7157                11.0568                10.2692
 IR Inten    --      0.4172                10.9300                 4.2104

                     46                     47                     48
                      A                      A                      A
 Frequencies --   1701.7201              3004.9016              3018.9942
 Red. masses --      7.3181                 1.0604                 1.1000
 Frc consts  --     12.4861                 5.6411                 5.9070
 IR Inten    --     19.4478                28.6916                15.1223

                     49                     50                     51
                      A                      A                      A
 Frequencies --   3178.4676              3182.4303              3193.8523
 Red. masses --      1.0871                 1.0860                 1.0913
 Frc consts  --      6.4708                 6.4803                 6.5586
 IR Inten    --     10.0499                 3.5577                25.0068

                     52                     53                     54
                      A                      A                      A
 Frequencies --   3204.3692              3217.6595              3649.8478
 Red. masses --      1.0959                 1.0939                 1.0808
 Frc consts  --      6.6301                 6.6730                 8.4831
 IR Inten    --     33.5311                19.3845                89.4999

 - Thermochemistry -
 -------------------
 Temperature   298.150 Kelvin.  Pressure   1.00000 Atm.
 Atom     1 has atomic number  6 and mass  12.00000

 Molecular mass:   156.06875 amu.
 Principal axes and moments of inertia in atomic units:
                           1         2         3
     Eigenvalues --  1198.991551537.221972725.30576
           X            0.99990   0.01438   0.00000
           Y           -0.01438   0.99990  -0.00000
           Z           -0.00000   0.00000   1.00000
 This molecule is an asymmetric top.
 Rotational symmetry number  1.
 Warning -- assumption of classical behavior for rotation
           may cause significant error
 Rotational temperatures (Kelvin)      0.07224     0.05634     0.03178
 Rotational constants (GHZ):           1.50522     1.17403     0.66222
 Zero-point vibrational energy     419146.6 (Joules/Mol)
                                  100.17844 (Kcal/Mol)
 Warning -- explicit consideration of  12 degrees of freedom as
           vibrations may cause significant error
 Vibrational temperatures:    166.88   273.70   316.03   422.89   576.59
          (Kelvin)            653.79   698.73   727.63   739.82   808.66
                              835.66   864.52   952.08   956.66  1041.25
                             1043.19  1122.46  1169.35  1176.09  1270.37
                             1285.93  1339.69  1378.70  1395.16  1415.24
                             1515.97  1532.35  1601.73  1669.52  1714.45
                             1747.08  1759.91  1814.37  1870.50  1950.82
                             1972.15  2003.63  2079.17  2098.09  2116.96
                             2137.12  2238.83  2294.54  2340.00  2381.46
                             2448.40  4323.38  4343.66  4573.11  4578.81
                             4595.24  4610.37  4629.49  5251.32

 Zero-point correction=                           0.159645 (Hartree/Particle)
 Thermal correction to Energy=                    0.167683
 Thermal correction to Enthalpy=                  0.168628
 Thermal correction to Gibbs Free Energy=         0.126722
 Sum of electronic and zero-point Energies=           -495.230008
 Sum of electronic and thermal Energies=              -495.221969
 Sum of electronic and thermal Enthalpies=            -495.221025
 Sum of electronic and thermal Free Energies=         -495.262930

                     E (Thermal)             CV                S
                      KCal/Mol        Cal/Mol-Kelvin    Cal/Mol-Kelvin
 Total                  105.223             34.027             88.197
 Electronic               0.000              0.000              0.000
 Translational            0.889              2.981             41.045
 Rotational               0.889              2.981             29.997
 Vibrational            103.445             28.065             17.155
 Vibration     1          0.608              1.936              3.166
 Vibration     2          0.634              1.853              2.226
 Vibration     3          0.647              1.811              1.962
 Vibration     4          0.689              1.685              1.451
 Vibration     5          0.767              1.468              0.960
 Vibration     6          0.813              1.351              0.783
 Vibration     7          0.842              1.282              0.695
 Vibration     8          0.861              1.237              0.644
 Vibration     9          0.869              1.219              0.624
 Vibration    10          0.918              1.113              0.520
 Vibration    11          0.938              1.073              0.484
 Vibration    12          0.959              1.030              0.448

 Optimization completed.
    -- Stationary point found.

 1\1\GINC-NODE355\Freq\RB3LYP\6-31G(d)\C10H8N2\VSC10255\09-Dec-2020\0\\
 #N Geom=AllCheck Guess=TCheck SCRF=Check GenChk RB3LYP/6-31G(d) Freq\\
 CID_12427801_JID_2407_neutraal\\0,1\C,0.927560578,-0.0395080448,0.0999
 438012\C,2.2744905882,-0.1290006338,0.8057806878\C,2.4709306497,-0.527
 0242611,2.0819394253\C,1.3034713986,-0.900944923,2.8468033309\C,0.0419
 734353,-0.8422843651,2.2636109\C,-0.2618520155,-0.4450819996,0.9558319
 191\C,-1.6020830787,-0.4770300121,0.6244793829\C,-2.5716549054,-0.8958
 415876,1.5905025814\C,-2.2576816173,-1.2859828864,2.8800134794\C,-0.88

 Normal termination of Gaussian 16 at Wed Dec  9 17:20:11 2020.

 ----------------------------------------------------------------------
 # B3LYP/6-311++G(d,p) empiricaldispersion=gd3bj scf=xqc pop=npa geom=c
 heck
 ----------------------------------------------------------------------

 --------------------------------------
 CID_12427801_JID_2407_Energie_neutraal
 --------------------------------------
 Structure from the checkpoint file:  "JID_2407.chk"
 Charge =  0 Multiplicity = 1

 SCF Done:  E(RB3LYP) =  -495.514898348     A.U. after   15 cycles
 Normal termination of Gaussian 16 at Wed Dec  9 17:21:45 2020.

 ----------------------------------------------------------------------
 # B3LYP/6-311++G(d,p) empiricaldispersion=gd3bj scf=xqc pop=npa geom=c
 heck
 ----------------------------------------------------------------------

 ------------------------------------
 CID_12427801_JID_2407_Energie_kation
 ------------------------------------
 Structure from the checkpoint file:  "JID_2407.chk"
 Charge =  1 Multiplicity = 2

 SCF Done:  E(UB3LYP) =  -495.252527768     A.U. after   20 cycles
 Normal termination of Gaussian 16 at Wed Dec  9 17:24:20 2020.
 Gaussian 16:  ES64L-G16RevA.03 25-Dec-2016

 -----------------------------------
 CID_12427801_JID_2407_Energie_anion
 -----------------------------------
 Structure from the checkpoint file:  "JID_2407.chk"
 Charge = -1 Multiplicity = 2

                         Standard orientation:
 ---------------------------------------------------------------------
 Center     Atomic      Atomic             Coordinates (Angstroms)
 Number     Number       Type             X           Y           Z
 ---------------------------------------------------------------------
      1          6           0        1.436622   -1.849400    0.000258
      2          6           0        2.551256   -0.811120   -0.000208
      3          6           0        2.380247    0.529159   -0.000180
      4          6           0        1.022760    1.024158    0.000111
      5          6           0       -0.043248    0.130538    0.000177
      6          6           0        0.031910   -1.267574    0.000063
      7          6           0       -1.182529   -1.924973   -0.000138
      8          6           0       -2.403924   -1.178739   -0.000131
      9          6           0       -2.463980    0.203296   -0.000018
     10          6           0       -1.229724    0.905864    0.000091
     11          7           0       -0.929829    2.229749   -0.000005
     12          7           0        0.436144    2.246291    0.000017
     13          1           0        1.578873   -2.509376   -0.869816
     14          1           0        1.578909   -2.508400    0.871092
     15          1           0        3.561770   -1.212195   -0.000459
     16          1           0        3.231583    1.203711   -0.000450
     17          1           0       -1.231908   -3.010946   -0.000282
     18          1           0       -3.335833   -1.738171   -0.000254
     19          1           0       -3.414072    0.727287   -0.000055
     20          1           0        0.890135    3.148559   -0.000007
 ---------------------------------------------------------------------

 SCF Done:  E(UB3LYP) =  -495.511989421     A.U. after   29 cycles

 The electronic state is 2-A.
 Alpha  occ. eigenvalues --  -14.21016 -14.14872 -10.03261 -10.03233 -10.02936
 Alpha  occ. eigenvalues --  -10.01993 -10.01803 -10.01574 -10.00858 -10.00659
 Alpha  occ. eigenvalues --  -10.00637  -9.99537  -0.87140  -0.70152  -0.67620
 Alpha  occ. eigenvalues --   -0.62567  -0.60350  -0.58815  -0.53198  -0.48235
 Alpha  occ. eigenvalues --   -0.44678  -0.43917  -0.37850  -0.36094  -0.33613
 Alpha  occ. eigenvalues --   -0.32388  -0.29519  -0.29387  -0.27651  -0.27264
 Alpha  occ. eigenvalues --   -0.24424  -0.24279  -0.22830  -0.19702  -0.19244
 Alpha  occ. eigenvalues --   -0.17423  -0.15252  -0.12601  -0.11107  -0.09242
 Alpha  occ. eigenvalues --   -0.03922   0.06319
 Alpha virt. eigenvalues --    0.09277   0.10014   0.10496   0.11606   0.12266
 Alpha virt. eigenvalues --    0.12605   0.13478   0.13709   0.14755   0.16932
 Alpha virt. eigenvalues --    0.16940   0.18459   0.18831   0.19211   0.19667

  Beta  occ. eigenvalues --  -14.20546 -14.14646 -10.03328 -10.03004 -10.02993
  Beta  occ. eigenvalues --  -10.02004 -10.01805 -10.01374 -10.00700 -10.00597
  Beta  occ. eigenvalues --  -10.00174  -9.99600  -0.86540  -0.69842  -0.67141
  Beta  occ. eigenvalues --   -0.62096  -0.60006  -0.58454  -0.52938  -0.47949
  Beta  occ. eigenvalues --   -0.44362  -0.43475  -0.37545  -0.35889  -0.33321
  Beta  occ. eigenvalues --   -0.32268  -0.29149  -0.28613  -0.27504  -0.26163
  Beta  occ. eigenvalues --   -0.24281  -0.24073  -0.22664  -0.19501  -0.18379
  Beta  occ. eigenvalues --   -0.17286  -0.13898  -0.12337  -0.09743  -0.08465
  Beta  occ. eigenvalues --   -0.02164
  Beta virt. eigenvalues --    0.09243   0.09968   0.10468   0.11582   0.11932
  Beta virt. eigenvalues --    0.12248   0.13006   0.13690   0.14676   0.14701
  Beta virt. eigenvalues --    0.16881   0.17453   0.18580   0.19170   0.19232

 Mulliken charges and spin densities:
               1          2
     1  C   -0.767275  -0.069225
     2  C   -0.288870   0.367776
     3  C   -0.057111  -0.027764
     4  C   -0.055012   0.186904
     5  C   -0.029275  -0.052542
     6  C    0.650879   0.092652
     7  C   -0.523934   0.096643
     8  C   -0.184401  -0.007057
     9  C   -0.070041   0.116775
    10  C   -0.212095  -0.033729
    11  N   -0.262922   0.110430
    12  N   -0.151246   0.158417
    13  H    0.085089   0.055662
    14  H    0.084562   0.056416
    15  H    0.115747  -0.023638
    16  H    0.085705  -0.004096
    17  H    0.098904  -0.005352
    18  H    0.097893  -0.000060
    19  H    0.114634  -0.008998
    20  H    0.268770  -0.009216
 Sum of Mulliken charges =  -1.00000   1.00000

 Dipole moment (field-independent basis, Debye):
    X=              1.8664    Y=             -0.2741    Z=             -0.0020  Tot=              1.8864
 Quadrupole moment (field-independent basis, Debye-Ang):
   XX=            -90.1241   YY=            -86.2590   ZZ=            -81.0974
   XY=              7.2339   XZ=             -0.0007   YZ=              0.0067

 Summary of Natural Population Analysis:

                                       Natural Population
                Natural  -----------------------------------------------
    Atom  No    Charge         Core      Valence    Rydberg      Total
 -----------------------------------------------------------------------
      C    1   -0.21697      0.99961     2.21058    0.00678     3.21697
      C    2    0.01949      0.99959     1.97134    0.00958     2.98051
      C    3   -0.14302      0.99951     2.13460    0.00891     3.14302
      C    4    0.10629      0.99946     1.88328    0.01098     2.89371
      C    5   -0.07171      0.99942     2.06287    0.00942     3.07171
      C    6    0.03093      0.99947     1.95903    0.01057     2.96907
      C    7   -0.12897      0.99953     2.12044    0.00900     3.12897
      C    8   -0.11107      0.99960     2.10181    0.00965     3.11107
      C    9   -0.09584      0.99953     2.08682    0.00949     3.09584
      C   10    0.05151      0.99949     1.93550    0.01350     2.94849
      N   11   -0.16800      0.99972     2.65293    0.01535     3.66800
      N   12   -0.09765      0.99966     2.58661    0.01138     3.59765
      H   13    0.10724      0.00000     0.39133    0.00143     0.39276
      H   14    0.10728      0.00000     0.39129    0.00143     0.39272
      H   15    0.07645      0.00000     0.42248    0.00108     0.42355
      H   16    0.08979      0.00000     0.40909    0.00113     0.41021
      H   17    0.08786      0.00000     0.41083    0.00131     0.41214
      H   18    0.08636      0.00000     0.41260    0.00104     0.41364
      H   19    0.09032      0.00000     0.40793    0.00175     0.40968
      H   20    0.17972      0.00000     0.31842    0.00186     0.32028
 =======================================================================
   * Total *    0.00000     11.99458    28.86979    0.13563    41.00000

 Normal termination of Gaussian 16 at Wed Dec  9 17:28:11 2020.
