 Gaussian 16, Revision A.03,

 -----------------------------------------------------------
 # opt freq B3LYP/6-31G(d) empiricaldispersion=gd3bj scf=xqc
 -----------------------------------------------------------

 -------------------------------
 CID_108894472_JID_5478_neutraal
 -------------------------------
 Symbolic Z-matrix:
 Charge =  0 Multiplicity = 1

 SCF Done:  E(RB3LYP) =  -745.541460886     A.U. after   14 cycles
 SCF Done:  E(RB3LYP) =  -745.496419104     A.U. after   14 cycles
 SCF Done:  E(RB3LYP) =  -745.548918389     A.U. after   13 cycles
 SCF Done:  E(RB3LYP) =  -745.550618373     A.U. after   11 cycles
 SCF Done:  E(RB3LYP) =  -745.551374865     A.U. after   11 cycles
 SCF Done:  E(RB3LYP) =  -745.551722649     A.U. after   11 cycles
 SCF Done:  E(RB3LYP) =  -745.551906285     A.U. after   10 cycles
 SCF Done:  E(RB3LYP) =  -745.551961867     A.U. after   10 cycles
 SCF Done:  E(RB3LYP) =  -745.551991544     A.U. after    9 cycles
 SCF Done:  E(RB3LYP) =  -745.552001542     A.U. after    8 cycles
 SCF Done:  E(RB3LYP) =  -745.552007033     A.U. after    9 cycles
 SCF Done:  E(RB3LYP) =  -745.552007571     A.U. after    8 cycles
 SCF Done:  E(RB3LYP) =  -745.552007741     A.U. after    7 cycles
 SCF Done:  E(RB3LYP) =  -745.552007961     A.U. after    7 cycles
 SCF Done:  E(RB3LYP) =  -745.552008057     A.U. after    7 cycles
 SCF Done:  E(RB3LYP) =  -745.552008077     A.U. after    6 cycles
 Optimization completed.
    -- Stationary point found.
 Normal termination of Gaussian 16 at Thu Dec 10 16:18:21 2020.

 --------------------------------------------------------------------
 #N Geom=AllCheck Guess=TCheck SCRF=Check GenChk RB3LYP/6-31G(d) Freq
 --------------------------------------------------------------------

 Structure from the checkpoint file:  "JID_5478.chk"
 -------------------------------
 CID_108894472_JID_5478_neutraal
 -------------------------------
 Charge =  0 Multiplicity = 1

 SCF Done:  E(RB3LYP) =  -745.552008077     A.U. after    1 cycles

  Exact polarizability: 144.170   0.305 135.468  -1.346  -2.762 102.751
 Approx polarizability: 180.933   4.781 183.955  -0.926  -1.897 150.111

                      1                      2                      3
                      A                      A                      A
 Frequencies --     17.7083                31.2217                40.7262
 Red. masses --      3.3769                 3.3578                 4.2888
 Frc consts  --      0.0006                 0.0019                 0.0042
 IR Inten    --      0.1655                 0.1781                 0.5940

                      4                      5                      6
                      A                      A                      A
 Frequencies --     70.5450                74.3265                93.4197
 Red. masses --      3.5210                 3.5631                 3.5983
 Frc consts  --      0.0103                 0.0116                 0.0185
 IR Inten    --      0.6602                 0.2012                 0.7227

                      7                      8                      9
                      A                      A                      A
 Frequencies --     95.9405               112.3988               126.5516
 Red. masses --      3.8877                 2.7460                 2.9271
 Frc consts  --      0.0211                 0.0204                 0.0276
 IR Inten    --      2.4520                 1.9118                 4.7426

                     10                     11                     12
                      A                      A                      A
 Frequencies --    174.4164               181.5139               227.3019
 Red. masses --      3.7751                 3.2896                 2.4742
 Frc consts  --      0.0677                 0.0639                 0.0753
 IR Inten    --      6.7214                 2.0507                 1.4493

                     13                     14                     15
                      A                      A                      A
 Frequencies --    246.9706               254.3232               274.7114
 Red. masses --      1.7664                 1.0616                 1.3755
 Frc consts  --      0.0635                 0.0405                 0.0612
 IR Inten    --      1.9303                 0.7394                 2.0827

                     16                     17                     18
                      A                      A                      A
 Frequencies --    281.4621               292.6838               297.6262
 Red. masses --      1.8773                 2.4997                 3.0986
 Frc consts  --      0.0876                 0.1262                 0.1617
 IR Inten    --      8.6537                 2.2710                 1.5752

                     19                     20                     21
                      A                      A                      A
 Frequencies --    314.8555               378.8602               404.2004
 Red. masses --      2.3197                 2.9502                 2.1931
 Frc consts  --      0.1355                 0.2495                 0.2111
 IR Inten    --      4.0811                 4.3398                 1.6597

                     22                     23                     24
                      A                      A                      A
 Frequencies --    447.8159               476.0530               515.2776
 Red. masses --      1.9717                 2.9055                 2.5058
 Frc consts  --      0.2330                 0.3880                 0.3920
 IR Inten    --      0.0641                 3.2155                10.6471

                     25                     26                     27
                      A                      A                      A
 Frequencies --    547.1586               560.5710               598.4027
 Red. masses --      2.4686                 2.6839                 3.3761
 Frc consts  --      0.4354                 0.4969                 0.7123
 IR Inten    --     24.4329                 9.6552                23.4801

                     28                     29                     30
                      A                      A                      A
 Frequencies --    702.9440               780.0330               786.1789
 Red. masses --      1.6709                 3.1763                 2.7425
 Frc consts  --      0.4864                 1.1387                 0.9987
 IR Inten    --     85.1257                 6.3976                14.0934

                     31                     32                     33
                      A                      A                      A
 Frequencies --    839.0936               845.7975               858.0377
 Red. masses --      1.7152                 2.4132                 2.5385
 Frc consts  --      0.7115                 1.0171                 1.1011
 IR Inten    --    119.8789                14.8638                 7.3661

                     34                     35                     36
                      A                      A                      A
 Frequencies --    886.8910               940.3802               977.3670
 Red. masses --      2.2444                 2.7017                 2.3147
 Frc consts  --      1.0401                 1.4076                 1.3027
 IR Inten    --     25.9280                 4.9934                 1.5112

                     37                     38                     39
                      A                      A                      A
 Frequencies --   1017.9150              1050.3742              1062.5326
 Red. masses --      2.6846                 2.5020                 2.2324
 Frc consts  --      1.6389                 1.6264                 1.4849
 IR Inten    --     60.7701                65.0236                24.3312

                     40                     41                     42
                      A                      A                      A
 Frequencies --   1081.5106              1087.9626              1100.5119
 Red. masses --      2.2486                 1.4942                 2.1871
 Frc consts  --      1.5496                 1.0421                 1.5607
 IR Inten    --     11.2977                 9.1925               187.6825

                     43                     44                     45
                      A                      A                      A
 Frequencies --   1131.3339              1136.4023              1146.0410
 Red. masses --      2.4729                 1.2759                 3.6686
 Frc consts  --      1.8648                 0.9708                 2.8389
 IR Inten    --     21.7865                13.0898               156.5441

                     46                     47                     48
                      A                      A                      A
 Frequencies --   1152.4338              1161.5345              1175.6952
 Red. masses --      2.4922                 2.5161                 3.9039
 Frc consts  --      1.9501                 2.0001                 3.1793
 IR Inten    --     32.4576                43.7310               110.7039

                     49                     50                     51
                      A                      A                      A
 Frequencies --   1193.2212              1196.8412              1209.2534
 Red. masses --      1.4657                 1.3649                 1.6529
 Frc consts  --      1.2295                 1.1519                 1.4240
 IR Inten    --      7.5707                 9.1879                24.1240

                     52                     53                     54
                      A                      A                      A
 Frequencies --   1242.3338              1273.5298              1286.9311
 Red. masses --      1.6572                 1.3170                 1.2145
 Frc consts  --      1.5069                 1.2585                 1.1851
 IR Inten    --     19.9961                25.5694                24.9115

                     55                     56                     57
                      A                      A                      A
 Frequencies --   1311.4723              1339.9095              1340.6686
 Red. masses --      1.1926                 1.1592                 2.5286
 Frc consts  --      1.2086                 1.2262                 2.6778
 IR Inten    --     14.1530                26.2417                17.1304

                     58                     59                     60
                      A                      A                      A
 Frequencies --   1370.9686              1390.3899              1402.6244
 Red. masses --      1.5933                 1.4410                 1.2245
 Frc consts  --      1.7645                 1.6413                 1.4193
 IR Inten    --     31.3112               108.8766                35.7050

                     61                     62                     63
                      A                      A                      A
 Frequencies --   1417.7220              1426.4958              1443.2799
 Red. masses --      1.3505                 1.3232                 1.4889
 Frc consts  --      1.5993                 1.5864                 1.8273
 IR Inten    --     23.5396                37.4290                 7.6501

                     64                     65                     66
                      A                      A                      A
 Frequencies --   1453.2278              1471.0797              1481.4402
 Red. masses --      1.9714                 1.1693                 1.1446
 Frc consts  --      2.4530                 1.4909                 1.4800
 IR Inten    --    162.8368                10.4721                18.3166

                     67                     68                     69
                      A                      A                      A
 Frequencies --   1485.2143              1486.7890              1500.4276
 Red. masses --      1.2196                 1.4478                 1.1198
 Frc consts  --      1.5851                 1.8857                 1.4854
 IR Inten    --     26.3953                 3.1874                 4.1958

                     70                     71                     72
                      A                      A                      A
 Frequencies --   1503.5892              1505.9027              1516.7312
 Red. masses --      1.1042                 1.1102                 1.0484
 Frc consts  --      1.4709                 1.4834                 1.4210
 IR Inten    --      7.3738                 8.5473                 3.8097

                     73                     74                     75
                      A                      A                      A
 Frequencies --   1518.6355              1520.0575              1528.1681
 Red. masses --      1.0986                 1.1051                 1.0706
 Frc consts  --      1.4928                 1.5045                 1.4731
 IR Inten    --     16.4438                 4.7487                 9.2219

                     76                     77                     78
                      A                      A                      A
 Frequencies --   1531.0990              1542.3647              1547.9910
 Red. masses --      1.1049                 1.0680                 1.0872
 Frc consts  --      1.5261                 1.4970                 1.5349
 IR Inten    --     10.5514                 4.4055                 0.3673

                     79                     80                     81
                      A                      A                      A
 Frequencies --   1556.6926              1564.2747              1802.9843
 Red. masses --      1.0602                 1.0825                 6.2048
 Frc consts  --      1.5137                 1.5606                11.8840
 IR Inten    --      4.4881                 6.6964               492.0672

                     82                     83                     84
                      A                      A                      A
 Frequencies --   2930.4785              2942.7745              2975.1766
 Red. masses --      1.0622                 1.0636                 1.0599
 Frc consts  --      5.3742                 5.4266                 5.5278
 IR Inten    --     48.5646               140.8243                50.5843

                     85                     86                     87
                      A                      A                      A
 Frequencies --   2999.8334              3022.1200              3029.6209
 Red. masses --      1.0397                 1.0972                 1.0741
 Frc consts  --      5.5124                 5.9044                 5.8084
 IR Inten    --     80.9938                41.0127                41.7645

                     88                     89                     90
                      A                      A                      A
 Frequencies --   3040.7251              3046.3361              3053.6004
 Red. masses --      1.0625                 1.1050                 1.0683
 Frc consts  --      5.7881                 6.0419                 5.8690
 IR Inten    --     51.1276                48.4847                82.5148

                     91                     92                     93
                      A                      A                      A
 Frequencies --   3059.5329              3059.7902              3065.3904
 Red. masses --      1.0628                 1.0732                 1.0682
 Frc consts  --      5.8614                 5.9201                 5.9141
 IR Inten    --     19.6129                41.3489                58.8123

                     94                     95                     96
                      A                      A                      A
 Frequencies --   3094.9582              3106.2953              3112.3080
 Red. masses --      1.1018                 1.1064                 1.1036
 Frc consts  --      6.2182                 6.2901                 6.2985
 IR Inten    --     33.6016                38.3865                33.6718

                     97                     98                     99
                      A                      A                      A
 Frequencies --   3129.3808              3151.3368              3160.8980
 Red. masses --      1.0989                 1.0968                 1.0954
 Frc consts  --      6.3407                 6.4172                 6.4482
 IR Inten    --     31.9786                23.0628                18.5573

                    100                    101                    102
                      A                      A                      A
 Frequencies --   3167.9570              3559.5162              3591.8780
 Red. masses --      1.0893                 1.0746                 1.0749
 Frc consts  --      6.4408                 8.0219                 8.1710
 IR Inten    --      3.2963                19.6089                16.0896

 - Thermochemistry -
 -------------------
 Temperature   298.150 Kelvin.  Pressure   1.00000 Atm.
 Atom     1 has atomic number  6 and mass  12.00000

 Molecular mass:   219.15829 amu.
 Principal axes and moments of inertia in atomic units:
                           1         2         3
     Eigenvalues --  2926.067454393.394986675.31325
           X            0.99998   0.00645  -0.00253
           Y           -0.00646   0.99997  -0.00427
           Z            0.00250   0.00429   0.99999
 This molecule is an asymmetric top.
 Rotational symmetry number  1.
 Warning -- assumption of classical behavior for rotation
           may cause significant error
 Rotational temperatures (Kelvin)      0.02960     0.01971     0.01298
 Rotational constants (GHZ):           0.61678     0.41079     0.27036
 Zero-point vibrational energy     841693.9 (Joules/Mol)
                                  201.16967 (Kcal/Mol)
 Warning -- explicit consideration of  27 degrees of freedom as
           vibrations may cause significant error
 Vibrational temperatures:     25.48    44.92    58.60   101.50   106.94
          (Kelvin)            134.41   138.04   161.72   182.08   250.95
                              261.16   327.04   355.34   365.91   395.25
                              404.96   421.11   428.22   453.01   545.10
                              581.55   644.31   684.93   741.37   787.24
                              806.54   860.97  1011.38  1122.29  1131.14
                             1207.27  1216.91  1234.52  1276.04  1353.00
                             1406.21  1464.55  1511.25  1528.75  1556.05
                             1565.34  1583.39  1627.74  1635.03  1648.90
                             1658.10  1671.19  1691.56  1716.78  1721.99
                             1739.85  1787.44  1832.33  1851.61  1886.92
                             1927.83  1928.92  1972.52  2000.46  2018.06
                             2039.79  2052.41  2076.56  2090.87  2116.56
                             2131.46  2136.89  2139.16  2158.78  2163.33
                             2166.66  2182.24  2184.98  2187.02  2198.69
                             2202.91  2219.12  2227.21  2239.73  2250.64
                             2594.09  4216.30  4234.00  4280.62  4316.09
                             4348.16  4358.95  4374.93  4383.00  4393.45
                             4401.99  4402.36  4410.41  4452.95  4469.27
                             4477.92  4502.48  4534.07  4547.83  4557.98
                             5121.35  5167.91

 Zero-point correction=                           0.320584 (Hartree/Particle)
 Thermal correction to Energy=                    0.338396
 Thermal correction to Enthalpy=                  0.339340
 Thermal correction to Gibbs Free Energy=         0.272713
 Sum of electronic and zero-point Energies=           -745.231424
 Sum of electronic and thermal Energies=              -745.213612
 Sum of electronic and thermal Enthalpies=            -745.212668
 Sum of electronic and thermal Free Energies=         -745.279295

                     E (Thermal)             CV                S
                      KCal/Mol        Cal/Mol-Kelvin    Cal/Mol-Kelvin
 Total                  212.347             63.238            140.229
 Electronic               0.000              0.000              0.000
 Translational            0.889              2.981             42.057
 Rotational               0.889              2.981             32.817
 Vibrational            210.569             57.276             65.355
 Vibration     1          0.593              1.986              6.876
 Vibration     2          0.594              1.983              5.750
 Vibration     3          0.594              1.981              5.223
 Vibration     4          0.598              1.968              4.138
 Vibration     5          0.599              1.966              4.035
 Vibration     6          0.602              1.954              3.587
 Vibration     7          0.603              1.952              3.535
 Vibration     8          0.607              1.939              3.227
 Vibration     9          0.611              1.927              2.998
 Vibration    10          0.627              1.874              2.387
 Vibration    11          0.630              1.865              2.313
 Vibration    12          0.651              1.799              1.900
 Vibration    13          0.661              1.768              1.752
 Vibration    14          0.665              1.755              1.700
 Vibration    15          0.677              1.720              1.566
 Vibration    16          0.681              1.708              1.525
 Vibration    17          0.688              1.687              1.458
 Vibration    18          0.691              1.678              1.430
 Vibration    19          0.702              1.645              1.337
 Vibration    20          0.749              1.515              1.044
 Vibration    21          0.769              1.461              0.947
 Vibration    22          0.807              1.366              0.802
 Vibration    23          0.833              1.303              0.721
 Vibration    24          0.870              1.216              0.621
 Vibration    25          0.902              1.146              0.550
 Vibration    26          0.916              1.117              0.523
 Vibration    27          0.956              1.035              0.452

                           ! Non-Optimized Parameters !
 Normal termination of Gaussian 16 at Thu Dec 10 16:30:26 2020.

 ----------------------------------------------------------------------
 # B3LYP/6-311++G(d,p) empiricaldispersion=gd3bj scf=xqc pop=npa geom=c
 heck
 ----------------------------------------------------------------------

 ---------------------------------------
 CID_108894472_JID_5478_Energie_neutraal
 ---------------------------------------
 Structure from the checkpoint file:  "JID_5478.chk"
 Charge =  0 Multiplicity = 1

 SCF Done:  E(RB3LYP) =  -745.781262207     A.U. after   13 cycles
 Normal termination of Gaussian 16 at Thu Dec 10 16:35:10 2020.

 ----------------------------------------------------------------------
 # B3LYP/6-311++G(d,p) empiricaldispersion=gd3bj scf=xqc pop=npa geom=c
 heck
 ----------------------------------------------------------------------

 -------------------------------------
 CID_108894472_JID_5478_Energie_kation
 -------------------------------------
 Structure from the checkpoint file:  "JID_5478.chk"
 Charge =  1 Multiplicity = 2

 SCF Done:  E(UB3LYP) =  -745.496565394     A.U. after   23 cycles
 Normal termination of Gaussian 16 at Thu Dec 10 16:47:43 2020.
 Gaussian 16:  ES64L-G16RevA.03 25-Dec-2016

 ----------------------------------------------------------------------
 # B3LYP/6-311++G(d,p) empiricaldispersion=gd3bj scf=xqc pop=npa geom=c
 heck
 ----------------------------------------------------------------------

 ------------------------------------
 CID_108894472_JID_5478_Energie_anion
 ------------------------------------
 Structure from the checkpoint file:  "JID_5478.chk"
 Charge = -1 Multiplicity = 2

                         Standard orientation:
 ---------------------------------------------------------------------
 Center     Atomic      Atomic             Coordinates (Angstroms)
 Number     Number       Type             X           Y           Z
 ---------------------------------------------------------------------
      1          6           0        3.481293   -0.295535   -1.233748
      2          7           0        2.923571   -1.212909   -0.256342
      3          6           0        3.747984   -1.325961    0.930787
      4          6           0        1.496798   -1.080828    0.010676
      5          6           0        1.008929    0.136868    0.811347
      6          7           0        1.161969    1.407111    0.094604
      7          6           0        0.249211    2.448585    0.139381
      8          8           0        0.606849    3.619072    0.197918
      9          7           0       -1.104959    2.100276    0.098336
     10          6           0       -1.643253    1.147582   -0.871606
     11          8           0       -2.961839    0.785001   -0.525453
     12          6           0       -3.085455   -0.020662    0.640296
     13          6           0       -2.980559   -1.505173    0.339316
     14          8           0       -1.642766   -1.834715    0.004528
     15          6           0       -1.501515   -3.183977   -0.392260
     16          1           0        4.438306   -0.691031   -1.596786
     17          1           0        3.678835    0.722637   -0.847158
     18          1           0        2.800467   -0.201497   -2.084612
     19          1           0        3.853875   -0.382386    1.501858
     20          1           0        3.327633   -2.081518    1.604023
     21          1           0        4.756342   -1.647709    0.645078
     22          1           0        0.969594   -1.099364   -0.949763
     23          1           0        1.184106   -1.973457    0.568450
     24          1           0       -0.045947   -0.011003    1.041239
     25          1           0        1.536752    0.190624    1.774173
     26          1           0        2.095064    1.798169    0.137284
     27          1           0       -1.649945    2.956757    0.120602
     28          1           0       -1.737104    1.599075   -1.866963
     29          1           0       -0.982057    0.283133   -0.933590
     30          1           0       -2.347848    0.276291    1.396054
     31          1           0       -4.083398    0.180745    1.044789
     32          1           0       -3.306775   -2.083611    1.221646
     33          1           0       -3.654538   -1.754483   -0.495530
     34          1           0       -1.792964   -3.873438    0.415580
     35          1           0       -2.114398   -3.407869   -1.278785
     36          1           0       -0.448609   -3.341660   -0.634858
 ---------------------------------------------------------------------

 SCF Done:  E(UB3LYP) =  -745.770436131     A.U. after   29 cycles

 The electronic state is 2-A.
 Alpha  occ. eigenvalues --  -19.04711 -19.04001 -19.00011 -14.24346 -14.24094
 Alpha  occ. eigenvalues --  -14.21265 -10.20978 -10.16718 -10.13098 -10.12663
 Alpha  occ. eigenvalues --  -10.11771 -10.11158 -10.09954 -10.09707 -10.09351
 Alpha  occ. eigenvalues --   -0.97168  -0.96080  -0.94826  -0.84499  -0.82991
 Alpha  occ. eigenvalues --   -0.81073  -0.67999  -0.65893  -0.61642  -0.61420
 Alpha  occ. eigenvalues --   -0.57324  -0.56795  -0.52141  -0.51919  -0.48882
 Alpha  occ. eigenvalues --   -0.43457  -0.43179  -0.42214  -0.41131  -0.39821
 Alpha  occ. eigenvalues --   -0.38664  -0.38219  -0.37433  -0.36711  -0.36414
 Alpha  occ. eigenvalues --   -0.35182  -0.34079  -0.33238  -0.32012  -0.31025
 Alpha  occ. eigenvalues --   -0.30582  -0.29631  -0.29401  -0.29048  -0.27758
 Alpha  occ. eigenvalues --   -0.27042  -0.26508  -0.24418  -0.24242  -0.20316
 Alpha  occ. eigenvalues --   -0.18926  -0.17968  -0.17232  -0.16835  -0.11811
 Alpha  occ. eigenvalues --    0.04037
 Alpha virt. eigenvalues --    0.05848   0.06899   0.07093   0.08081   0.08613
 Alpha virt. eigenvalues --    0.08855   0.09495   0.09632   0.10291   0.10618
 Alpha virt. eigenvalues --    0.11187   0.11649   0.11786   0.11891   0.12454

  Beta  occ. eigenvalues --  -19.04708 -19.03991 -19.00009 -14.24340 -14.24086
  Beta  occ. eigenvalues --  -14.21263 -10.20977 -10.16713 -10.13084 -10.12630
  Beta  occ. eigenvalues --  -10.11728 -10.11146 -10.09940 -10.09682 -10.09312
  Beta  occ. eigenvalues --   -0.97160  -0.96072  -0.94812  -0.84488  -0.82980
  Beta  occ. eigenvalues --   -0.81060  -0.67965  -0.65867  -0.61592  -0.61380
  Beta  occ. eigenvalues --   -0.57280  -0.56735  -0.52123  -0.51851  -0.48825
  Beta  occ. eigenvalues --   -0.43439  -0.43161  -0.42173  -0.41100  -0.39794
  Beta  occ. eigenvalues --   -0.38623  -0.38190  -0.37401  -0.36672  -0.36386
  Beta  occ. eigenvalues --   -0.35160  -0.34060  -0.33223  -0.31987  -0.30985
  Beta  occ. eigenvalues --   -0.30555  -0.29597  -0.29368  -0.29015  -0.27724
  Beta  occ. eigenvalues --   -0.27014  -0.26481  -0.24368  -0.24211  -0.20301
  Beta  occ. eigenvalues --   -0.18908  -0.17947  -0.17212  -0.16825  -0.11790
  Beta virt. eigenvalues --    0.06141   0.06797   0.07449   0.07551   0.08493
  Beta virt. eigenvalues --    0.09010   0.09254   0.09717   0.10249   0.10646
  Beta virt. eigenvalues --    0.10962   0.11412   0.11833   0.12035   0.12097

 Mulliken charges and spin densities:
               1          2
     1  C    0.179894  -0.490386
     2  N   -0.014113   0.208234
     3  C    0.679116  -0.985580
     4  C   -0.672037  -0.076130
     5  C   -0.146581  -0.376768
     6  N   -0.110520   0.020671
     7  C    0.162269   0.006322
     8  O   -0.339954  -0.008887
     9  N   -0.201313  -0.014761
    10  C   -0.414002  -0.019303
    11  O   -0.045423   0.008310
    12  C   -0.246912  -0.176826
    13  C    0.854209  -0.987384
    14  O   -0.222411   0.085243
    15  C    0.662559  -0.954793
    16  H   -0.140964   0.295787
    17  H   -0.177631   0.257647
    18  H   -0.005146   0.137432
    19  H   -0.195869   0.302926
    20  H   -0.437411   0.570609
    21  H   -0.128154   0.270521
    22  H    0.201440   0.016161
    23  H    0.304228  -0.096162
    24  H    0.017827   0.129948
    25  H    0.009185   0.206895
    26  H    0.392411  -0.092530
    27  H    0.279163   0.023896
    28  H   -0.000843   0.166498
    29  H    0.324402  -0.099298
    30  H    0.210016  -0.029147
    31  H   -0.411924   0.594911
    32  H   -0.356996   0.501592
    33  H   -0.019273   0.192626
    34  H   -0.392312   0.545690
    35  H   -0.260655   0.389170
    36  H   -0.336275   0.476866
 Sum of Mulliken charges =  -1.00000   1.00000

 Dipole moment (field-independent basis, Debye):
    X=             -0.5395    Y=              4.3678    Z=             -1.9562  Tot=              4.8162
 Quadrupole moment (field-independent basis, Debye-Ang):
   XX=           -171.0766   YY=           -164.5518   ZZ=           -127.1066
   XY=             -8.2215   XZ=              0.8404   YZ=              4.0766

 Summary of Natural Population Analysis:

                                       Natural Population
                Natural  -----------------------------------------------
    Atom  No    Charge         Core      Valence    Rydberg      Total
 -----------------------------------------------------------------------
      C    1   -0.17182      0.99964     2.16504    0.00714     3.17182
      N    2   -0.27925      0.99974     2.76586    0.01366     3.77925
      C    3   -0.17848      0.99964     2.16936    0.00948     3.17848
      C    4   -0.08514      0.99960     2.07169    0.01385     3.08514
      C    5   -0.10603      0.99959     2.09626    0.01017     3.10603
      N    6   -0.33544      0.99967     2.82659    0.00918     3.83544
      C    7    0.40850      0.99971     1.56889    0.02290     2.59150
      O    8   -0.33474      0.99987     3.32952    0.00534     4.33474
      N    9   -0.34768      0.99967     2.83921    0.00879     3.84768
      C   10    0.07917      0.99959     1.90752    0.01372     2.92083
      O   11   -0.29961      0.99989     3.29011    0.00962     4.29961
      C   12   -0.02394      0.99956     2.01056    0.01382     3.02394
      C   13   -0.01978      0.99958     2.00775    0.01245     3.01978
      O   14   -0.30731      0.99988     3.29569    0.01173     4.30731
      C   15   -0.09667      0.99961     2.08773    0.00932     3.09667
      H   16    0.09318      0.00000     0.40554    0.00129     0.40682
      H   17    0.07337      0.00000     0.42476    0.00187     0.42663
      H   18    0.09734      0.00000     0.40148    0.00118     0.40266
      H   19    0.07747      0.00000     0.42087    0.00166     0.42253
      H   20    0.09879      0.00000     0.39981    0.00140     0.40121
      H   21    0.09573      0.00000     0.40300    0.00127     0.40427
      H   22    0.09579      0.00000     0.40216    0.00205     0.40421
      H   23    0.10035      0.00000     0.39782    0.00182     0.39965
      H   24    0.10843      0.00000     0.38881    0.00276     0.39157
      H   25    0.09223      0.00000     0.40660    0.00117     0.40777
      H   26    0.19256      0.00000     0.30431    0.00314     0.30744
      H   27    0.19111      0.00000     0.30643    0.00245     0.30889
      H   28    0.08076      0.00000     0.41807    0.00117     0.41924
      H   29    0.09416      0.00000     0.40329    0.00255     0.40584
      H   30    0.09004      0.00000     0.40810    0.00186     0.40996
      H   31    0.09341      0.00000     0.40531    0.00128     0.40659
      H   32    0.08551      0.00000     0.41183    0.00266     0.41449
      H   33    0.08297      0.00000     0.41522    0.00181     0.41703
      H   34    0.08290      0.00000     0.41483    0.00226     0.41710
      H   35    0.07938      0.00000     0.41899    0.00164     0.42062
      H   36    0.09273      0.00000     0.40602    0.00125     0.40727
 =======================================================================
   * Total *    0.00000     14.99525    44.79503    0.20972    60.00000

 Normal termination of Gaussian 16 at Thu Dec 10 17:04:22 2020.
