 Gaussian 16, Revision A.03,

 -----------------------------------------------------------
 # opt freq B3LYP/6-31G(d) empiricaldispersion=gd3bj scf=xqc
 -----------------------------------------------------------

 -------------------------------
 CID_105908040_JID_4112_neutraal
 -------------------------------
 Symbolic Z-matrix:
 Charge =  0 Multiplicity = 1

 SCF Done:  E(RB3LYP) =  -974.858653137     A.U. after   15 cycles
 SCF Done:  E(RB3LYP) =  -974.864650709     A.U. after   12 cycles
 SCF Done:  E(RB3LYP) =  -974.865829102     A.U. after   12 cycles
 SCF Done:  E(RB3LYP) =  -974.866488401     A.U. after   12 cycles
 SCF Done:  E(RB3LYP) =  -974.867447814     A.U. after   14 cycles
 SCF Done:  E(RB3LYP) =  -974.867621093     A.U. after   13 cycles
 SCF Done:  E(RB3LYP) =  -974.867759677     A.U. after   13 cycles
 SCF Done:  E(RB3LYP) =  -974.868164669     A.U. after   12 cycles
 SCF Done:  E(RB3LYP) =  -974.868446417     A.U. after   13 cycles
 SCF Done:  E(RB3LYP) =  -974.868446307     A.U. after   11 cycles
 SCF Done:  E(RB3LYP) =  -974.868454788     A.U. after   10 cycles
 SCF Done:  E(RB3LYP) =  -974.868455767     A.U. after    8 cycles
 SCF Done:  E(RB3LYP) =  -974.868455812     A.U. after    7 cycles
 SCF Done:  E(RB3LYP) =  -974.868455877     A.U. after    7 cycles
 Optimization completed.
    -- Stationary point found.
 Normal termination of Gaussian 16 at Thu Dec 10 09:20:05 2020.

 --------------------------------------------------------------------
 #N Geom=AllCheck Guess=TCheck SCRF=Check GenChk RB3LYP/6-31G(d) Freq
 --------------------------------------------------------------------

 Structure from the checkpoint file:  "JID_4112.chk"
 -------------------------------
 CID_105908040_JID_4112_neutraal
 -------------------------------
 Charge =  0 Multiplicity = 1

 SCF Done:  E(RB3LYP) =  -974.868455876     A.U. after    1 cycles

  Exact polarizability: 178.402   4.765 140.608  -5.675   0.345  95.511
 Approx polarizability: 224.679  -0.880 232.921  -9.443   1.554 152.298

                      1                      2                      3
                      A                      A                      A
 Frequencies --     32.5122                36.1181                56.1707
 Red. masses --      3.5387                 5.0359                 4.6850
 Frc consts  --      0.0022                 0.0039                 0.0087
 IR Inten    --      0.2539                 0.1475                 0.2696

                      4                      5                      6
                      A                      A                      A
 Frequencies --     79.4092               133.7618               140.2635
 Red. masses --      3.3785                 1.4474                 1.9775
 Frc consts  --      0.0126                 0.0153                 0.0229
 IR Inten    --      2.3549                 2.5615                 3.5751

                      7                      8                      9
                      A                      A                      A
 Frequencies --    159.0844               192.3924               215.8089
 Red. masses --      2.6941                 2.4421                 1.1317
 Frc consts  --      0.0402                 0.0533                 0.0311
 IR Inten    --      1.6767                 2.9975                 1.4047

                     10                     11                     12
                      A                      A                      A
 Frequencies --    221.9321               241.0118               250.9812
 Red. masses --      1.4376                 2.6959                 1.1380
 Frc consts  --      0.0417                 0.0923                 0.0422
 IR Inten    --      0.5455                 1.7243                53.5852

                     13                     14                     15
                      A                      A                      A
 Frequencies --    258.8702               297.4180               304.4179
 Red. masses --      1.1880                 2.9879                 2.3273
 Frc consts  --      0.0469                 0.1557                 0.1271
 IR Inten    --     41.2730                 0.6769                 0.7336

                     16                     17                     18
                      A                      A                      A
 Frequencies --    322.1414               346.0982               383.6139
 Red. masses --      3.4562                 2.9289                 2.2091
 Frc consts  --      0.2113                 0.2067                 0.1915
 IR Inten    --      1.6220                 1.1929                 0.6345

                     19                     20                     21
                      A                      A                      A
 Frequencies --    386.6837               438.4921               484.3931
 Red. masses --      2.2733                 4.5103                 2.6082
 Frc consts  --      0.2003                 0.5110                 0.3606
 IR Inten    --      0.9813                 7.5459                 2.0816

                     22                     23                     24
                      A                      A                      A
 Frequencies --    505.5132               516.1582               571.1158
 Red. masses --      3.7725                 4.0697                 3.6976
 Frc consts  --      0.5680                 0.6388                 0.7106
 IR Inten    --      8.7030                 3.8532                 5.3798

                     25                     26                     27
                      A                      A                      A
 Frequencies --    595.9208               623.9463               652.7532
 Red. masses --      3.2120                 4.4098                 5.1739
 Frc consts  --      0.6721                 1.0115                 1.2989
 IR Inten    --      1.0296                 6.9722                13.4382

                     28                     29                     30
                      A                      A                      A
 Frequencies --    672.9637               750.6740               784.4600
 Red. masses --      6.5934                 3.1526                 4.4622
 Frc consts  --      1.7593                 1.0467                 1.6179
 IR Inten    --      1.6853                 9.9472                27.1082

                     31                     32                     33
                      A                      A                      A
 Frequencies --    807.8174               862.3230               879.7060
 Red. masses --      1.5321                 1.3465                 2.0261
 Frc consts  --      0.5891                 0.5899                 0.9238
 IR Inten    --     50.0195                 9.3818                15.6353

                     34                     35                     36
                      A                      A                      A
 Frequencies --    935.5683               943.5386               962.0299
 Red. masses --      1.7567                 1.6310                 2.1373
 Frc consts  --      0.9059                 0.8555                 1.1654
 IR Inten    --      5.5405                 2.9987                14.0170

                     37                     38                     39
                      A                      A                      A
 Frequencies --    994.0126              1018.2844              1019.9688
 Red. masses --      1.6965                 1.5240                 1.3643
 Frc consts  --      0.9876                 0.9310                 0.8362
 IR Inten    --     27.9539                 0.9914                 1.7350

                     40                     41                     42
                      A                      A                      A
 Frequencies --   1056.8086              1073.8339              1094.4286
 Red. masses --      1.3550                 1.4037                 2.7491
 Frc consts  --      0.8916                 0.9537                 1.9401
 IR Inten    --     26.5809                 0.9643                 8.5694

                     43                     44                     45
                      A                      A                      A
 Frequencies --   1128.7483              1163.3918              1171.0759
 Red. masses --      2.3282                 2.8199                 1.4557
 Frc consts  --      1.7477                 2.2487                 1.1762
 IR Inten    --     27.5275                25.2549                47.1395

                     46                     47                     48
                      A                      A                      A
 Frequencies --   1186.9820              1197.9922              1216.4073
 Red. masses --      2.3428                 3.7408                 2.1315
 Frc consts  --      1.9448                 3.1631                 1.8582
 IR Inten    --     67.2720                 1.8245                49.0377

                     49                     50                     51
                      A                      A                      A
 Frequencies --   1226.1177              1244.6066              1279.8908
 Red. masses --      3.4468                 2.9134                 1.6458
 Frc consts  --      3.0530                 2.6590                 1.5885
 IR Inten    --     18.2191                15.2097                 3.0947

                     52                     53                     54
                      A                      A                      A
 Frequencies --   1326.7473              1332.9435              1361.6829
 Red. masses --      1.5843                 1.6310                 1.3465
 Frc consts  --      1.6431                 1.7073                 1.4710
 IR Inten    --      8.6648                 6.7965                24.5302

                     55                     56                     57
                      A                      A                      A
 Frequencies --   1391.8251              1410.7932              1424.6395
 Red. masses --      1.4148                 1.7521                 1.2820
 Frc consts  --      1.6148                 2.0547                 1.5330
 IR Inten    --      8.8728                38.3483                 5.4729

                     58                     59                     60
                      A                      A                      A
 Frequencies --   1432.5982              1442.8485              1445.6480
 Red. masses --      1.2419                 1.2337                 1.2455
 Frc consts  --      1.5017                 1.5132                 1.5337
 IR Inten    --     17.0470                 6.0160                 0.4897

                     61                     62                     63
                      A                      A                      A
 Frequencies --   1503.3508              1508.3260              1510.4278
 Red. masses --      1.2049                 1.0425                 1.0655
 Frc consts  --      1.6045                 1.3974                 1.4322
 IR Inten    --     47.1345                 7.3739                 5.4385

                     64                     65                     66
                      A                      A                      A
 Frequencies --   1513.8799              1518.0143              1522.8907
 Red. masses --      1.0532                 1.2076                 1.0773
 Frc consts  --      1.4222                 1.6395                 1.4720
 IR Inten    --      1.0437                18.0691                 8.5778

                     67                     68                     69
                      A                      A                      A
 Frequencies --   1529.8968              1530.8514              1536.0095
 Red. masses --      1.0607                 1.0760                 1.0603
 Frc consts  --      1.4628                 1.4857                 1.4740
 IR Inten    --     13.4136                 0.9829                10.4827

                     70                     71                     72
                      A                      A                      A
 Frequencies --   1550.0822              1558.6920              1607.3063
 Red. masses --      1.0690                 4.2851                 5.9306
 Frc consts  --      1.5133                 6.1338                 9.0270
 IR Inten    --      9.7532                13.3494                21.5323

                     73                     74                     75
                      A                      A                      A
 Frequencies --   2995.6676              3033.3781              3040.9952
 Red. masses --      1.0642                 1.0829                 1.0888
 Frc consts  --      5.6269                 5.8707                 5.9325
 IR Inten    --     40.2263                14.4640                19.0503

                     76                     77                     78
                      A                      A                      A
 Frequencies --   3041.4213              3044.9212              3050.6619
 Red. masses --      1.0490                 1.0360                 1.0407
 Frc consts  --      5.7170                 5.6595                 5.7066
 IR Inten    --     18.6139                39.3612                42.8398

                     79                     80                     81
                      A                      A                      A
 Frequencies --   3062.9727              3097.3917              3102.1550
 Red. masses --      1.0355                 1.1018                 1.0987
 Frc consts  --      5.7236                 6.2280                 6.2297
 IR Inten    --     19.6111                17.0129                 3.0451

                     82                     83                     84
                      A                      A                      A
 Frequencies --   3110.5874              3125.3770              3126.0291
 Red. masses --      1.0995                 1.1012                 1.1018
 Frc consts  --      6.2679                 6.3375                 6.3436
 IR Inten    --     56.9257                14.1941                38.5463

                     85                     86                     87
                      A                      A                      A
 Frequencies --   3138.9294              3149.8327              3169.7885
 Red. masses --      1.1030                 1.0994                 1.0978
 Frc consts  --      6.4028                 6.4264                 6.4986
 IR Inten    --     24.0543                20.4791                10.3379

                     88                     89                     90
                      A                      A                      A
 Frequencies --   3216.6678              3514.7333              3747.6345
 Red. masses --      1.0933                 1.0736                 1.0662
 Frc consts  --      6.6650                 7.8140                 8.8229
 IR Inten    --     21.4211                 7.4298                10.8011

 - Thermochemistry -
 -------------------
 Temperature   298.150 Kelvin.  Pressure   1.00000 Atm.
 Atom     1 has atomic number  6 and mass  12.00000

 Molecular mass:   214.11399 amu.
 Principal axes and moments of inertia in atomic units:
                           1         2         3
     Eigenvalues --  1306.096376468.705837335.22724
           X            0.99995   0.00835  -0.00601
           Y           -0.00833   0.99996   0.00377
           Z            0.00604  -0.00372   0.99997
 This molecule is an asymmetric top.
 Rotational symmetry number  1.
 Warning -- assumption of classical behavior for rotation
           may cause significant error
 Rotational temperatures (Kelvin)      0.06632     0.01339     0.01181
 Rotational constants (GHZ):           1.38178     0.27900     0.24604
 Zero-point vibrational energy     722826.8 (Joules/Mol)
                                  172.75976 (Kcal/Mol)
 Warning -- explicit consideration of  25 degrees of freedom as
           vibrations may cause significant error
 Vibrational temperatures:     46.78    51.97    80.82   114.25   192.45
          (Kelvin)            201.81   228.89   276.81   310.50   319.31
                              346.76   361.11   372.46   427.92   437.99
                              463.49   497.96   551.93   556.35   630.89
                              696.93   727.32   742.64   821.71   857.40
                              897.72   939.17   968.24  1080.05  1128.66
                             1162.27  1240.69  1265.70  1346.07  1357.54
                             1384.15  1430.16  1465.08  1467.51  1520.51
                             1545.01  1574.64  1624.02  1673.86  1684.92
                             1707.80  1723.64  1750.14  1764.11  1790.71
                             1841.48  1908.89  1917.81  1959.16  2002.53
                             2029.82  2049.74  2061.19  2075.94  2079.97
                             2162.99  2170.14  2173.17  2178.14  2184.08
                             2191.10  2201.18  2202.55  2209.98  2230.22
                             2242.61  2312.56  4310.10  4364.35  4375.31
                             4375.93  4380.96  4389.22  4406.93  4456.46
                             4463.31  4475.44  4496.72  4497.66  4516.22
                             4531.91  4560.62  4628.07  5056.92  5392.01

 Zero-point correction=                           0.275310 (Hartree/Particle)
 Thermal correction to Energy=                    0.291432
 Thermal correction to Enthalpy=                  0.292376
 Thermal correction to Gibbs Free Energy=         0.231379
 Sum of electronic and zero-point Energies=           -974.593146
 Sum of electronic and thermal Energies=              -974.577024
 Sum of electronic and thermal Enthalpies=            -974.576080
 Sum of electronic and thermal Free Energies=         -974.637076

                     E (Thermal)             CV                S
                      KCal/Mol        Cal/Mol-Kelvin    Cal/Mol-Kelvin
 Total                  182.876             60.040            128.378
 Electronic               0.000              0.000              0.000
 Translational            0.889              2.981             41.987
 Rotational               0.889              2.981             32.494
 Vibrational            181.099             54.078             53.897
 Vibration     1          0.594              1.983              5.670
 Vibration     2          0.594              1.982              5.461
 Vibration     3          0.596              1.975              4.587
 Vibration     4          0.600              1.963              3.905
 Vibration     5          0.613              1.920              2.891
 Vibration     6          0.615              1.913              2.800
 Vibration     7          0.621              1.892              2.561
 Vibration     8          0.634              1.850              2.205
 Vibration     9          0.645              1.817              1.994
 Vibration    10          0.648              1.808              1.943
 Vibration    11          0.658              1.778              1.795
 Vibration    12          0.663              1.761              1.724
 Vibration    13          0.668              1.748              1.669
 Vibration    14          0.691              1.679              1.431
 Vibration    15          0.695              1.665              1.392
 Vibration    16          0.707              1.631              1.299
 Vibration    17          0.724              1.583              1.184
 Vibration    18          0.753              1.505              1.025
 Vibration    19          0.755              1.499              1.013
 Vibration    20          0.799              1.386              0.831
 Vibration    21          0.841              1.285              0.698
 Vibration    22          0.861              1.238              0.644
 Vibration    23          0.871              1.214              0.619
 Vibration    24          0.927              1.094              0.502
 Vibration    25          0.954              1.040              0.457

                           ! Non-Optimized Parameters !
 Normal termination of Gaussian 16 at Thu Dec 10 09:28:33 2020.

 ----------------------------------------------------------------------
 # B3LYP/6-311++G(d,p) empiricaldispersion=gd3bj scf=xqc pop=npa geom=c
 heck
 ----------------------------------------------------------------------

 ---------------------------------------
 CID_105908040_JID_4112_Energie_neutraal
 ---------------------------------------
 Structure from the checkpoint file:  "JID_4112.chk"
 Charge =  0 Multiplicity = 1

 SCF Done:  E(RB3LYP) =  -975.067144386     A.U. after   15 cycles
 Normal termination of Gaussian 16 at Thu Dec 10 09:32:28 2020.

 ----------------------------------------------------------------------
 # B3LYP/6-311++G(d,p) empiricaldispersion=gd3bj scf=xqc pop=npa geom=c
 heck
 ----------------------------------------------------------------------

 -------------------------------------
 CID_105908040_JID_4112_Energie_kation
 -------------------------------------
 Structure from the checkpoint file:  "JID_4112.chk"
 Charge =  1 Multiplicity = 2

 SCF Done:  E(UB3LYP) =  -974.775553402     A.U. after   24 cycles
 Normal termination of Gaussian 16 at Thu Dec 10 09:41:01 2020.
 Gaussian 16:  ES64L-G16RevA.03 25-Dec-2016

 ----------------------------------------------------------------------
 # B3LYP/6-311++G(d,p) empiricaldispersion=gd3bj scf=xqc pop=npa geom=c
 heck
 ----------------------------------------------------------------------

 ------------------------------------
 CID_105908040_JID_4112_Energie_anion
 ------------------------------------
 Structure from the checkpoint file:  "JID_4112.chk"
 Charge = -1 Multiplicity = 2

                         Standard orientation:
 ---------------------------------------------------------------------
 Center     Atomic      Atomic             Coordinates (Angstroms)
 Number     Number       Type             X           Y           Z
 ---------------------------------------------------------------------
      1          6           0       -4.655534   -1.509667    0.128110
      2          6           0       -3.614746   -0.437210    0.048437
      3          6           0       -3.782034    0.915266    0.145762
      4          7           0       -2.644180    1.690155    0.057669
      5          6           0       -1.591990    0.948540   -0.115168
      6         16           0       -1.913098   -0.784339   -0.168416
      7          6           0       -0.191273    1.455039   -0.306347
      8          7           0        0.767249    0.436485    0.086424
      9          6           0        2.142498    0.621061   -0.381504
     10          6           0        2.788305    1.924994    0.115630
     11          6           0        2.949952   -0.640149    0.018846
     12          6           0        2.313965   -1.903412   -0.571862
     13          6           0        4.419568   -0.539728   -0.407417
     14          8           0        2.868755   -0.678401    1.458303
     15          1           0       -4.692466   -2.112651   -0.787026
     16          1           0       -4.473387   -2.194287    0.965233
     17          1           0       -5.641826   -1.057230    0.272429
     18          1           0       -4.740109    1.402505    0.294897
     19          1           0       -0.031968    1.669205   -1.372890
     20          1           0       -0.109695    2.418635    0.221568
     21          1           0        0.779134    0.310230    1.096422
     22          1           0        2.103633    0.642366   -1.479668
     23          1           0        2.936032    1.886210    1.199505
     24          1           0        3.757799    2.106542   -0.358352
     25          1           0        2.148780    2.782453   -0.116456
     26          1           0        2.355562   -1.885311   -1.666793
     27          1           0        2.860870   -2.794361   -0.235984
     28          1           0        1.269569   -1.983750   -0.267620
     29          1           0        4.929573    0.266949    0.123982
     30          1           0        4.940937   -1.477117   -0.178236
     31          1           0        4.510919   -0.365163   -1.485833
     32          1           0        3.222421   -1.533480    1.747467
 ---------------------------------------------------------------------

 SCF Done:  E(UB3LYP) =  -975.056057703     A.U. after   33 cycles
 SCF Done:  E(UB3LYP) =  -975.056057703     a.u. after    1 cycles

 The electronic state is 2-A.
 Alpha  occ. eigenvalues --  -88.77347 -19.02139 -14.21028 -14.20136 -10.13093
 Alpha  occ. eigenvalues --  -10.13075 -10.11095 -10.10623 -10.10391 -10.09785
 Alpha  occ. eigenvalues --  -10.08814 -10.06166 -10.06010 -10.05368  -7.85955
 Alpha  occ. eigenvalues --   -5.82216  -5.81872  -5.81575  -0.92590  -0.86303
 Alpha  occ. eigenvalues --   -0.81590  -0.71183  -0.69756  -0.66115  -0.63381
 Alpha  occ. eigenvalues --   -0.61593  -0.59050  -0.56961  -0.52726  -0.48104
 Alpha  occ. eigenvalues --   -0.46717  -0.44593  -0.39941  -0.39189  -0.37453
 Alpha  occ. eigenvalues --   -0.36766  -0.35589  -0.34205  -0.33338  -0.33278
 Alpha  occ. eigenvalues --   -0.32445  -0.31626  -0.31295  -0.30071  -0.29417
 Alpha  occ. eigenvalues --   -0.28529  -0.27797  -0.27391  -0.26245  -0.25562
 Alpha  occ. eigenvalues --   -0.25051  -0.24640  -0.22258  -0.17926  -0.17801
 Alpha  occ. eigenvalues --   -0.17651  -0.14295  -0.13096   0.04105
 Alpha virt. eigenvalues --    0.05564   0.06315   0.07198   0.08118   0.08289
 Alpha virt. eigenvalues --    0.08507   0.09687   0.10000   0.10262   0.10371
 Alpha virt. eigenvalues --    0.10781   0.11321   0.12098   0.12401   0.12862

  Beta  occ. eigenvalues --  -88.77337 -19.02102 -14.21015 -14.20128 -10.13072
  Beta  occ. eigenvalues --  -10.13025 -10.11091 -10.10576 -10.10373 -10.09784
  Beta  occ. eigenvalues --  -10.08785 -10.06152 -10.05972 -10.05337  -7.85944
  Beta  occ. eigenvalues --   -5.82210  -5.81866  -5.81551  -0.92509  -0.86244
  Beta  occ. eigenvalues --   -0.81568  -0.71110  -0.69708  -0.66050  -0.63339
  Beta  occ. eigenvalues --   -0.61540  -0.58988  -0.56922  -0.52660  -0.48041
  Beta  occ. eigenvalues --   -0.46641  -0.44522  -0.39903  -0.39126  -0.37418
  Beta  occ. eigenvalues --   -0.36729  -0.35524  -0.34111  -0.33289  -0.33226
  Beta  occ. eigenvalues --   -0.32396  -0.31581  -0.31224  -0.30039  -0.29374
  Beta  occ. eigenvalues --   -0.28463  -0.27753  -0.27333  -0.26199  -0.25523
  Beta  occ. eigenvalues --   -0.25008  -0.24601  -0.22212  -0.17869  -0.17691
  Beta  occ. eigenvalues --   -0.17616  -0.14139  -0.13002
  Beta virt. eigenvalues --    0.06134   0.06586   0.06896   0.07819   0.08439
  Beta virt. eigenvalues --    0.08729   0.08849   0.10069   0.10269   0.10576
  Beta virt. eigenvalues --    0.10787   0.11009   0.11567   0.12212   0.12566

 Mulliken charges and spin densities:
               1          2
     1  C    1.284165  -1.799544
     2  C   -0.382693   0.841239
     3  C   -0.347049   0.106363
     4  N   -0.003596   0.039704
     5  C   -0.274783   0.102682
     6  S   -0.405323   0.011500
     7  C    0.555721  -0.826972
     8  N    0.127679  -0.032051
     9  C    0.117045  -0.490695
    10  C    0.339375  -0.938752
    11  C   -1.850672   1.947259
    12  C    0.556099  -0.983440
    13  C    0.881690  -1.446782
    14  O   -0.199795   0.012881
    15  H   -0.254150   0.418974
    16  H    0.017123   0.132830
    17  H   -0.254003   0.408235
    18  H   -0.072861   0.227743
    19  H   -0.065331   0.261693
    20  H    0.145940   0.017056
    21  H    0.267656  -0.015848
    22  H   -0.182471   0.386948
    23  H    0.133170   0.050035
    24  H   -0.081957   0.210843
    25  H    0.035003   0.102180
    26  H   -0.131177   0.271778
    27  H   -0.328755   0.457285
    28  H    0.093785   0.068050
    29  H    0.071699   0.100993
    30  H   -0.489363   0.631983
    31  H   -0.212684   0.370265
    32  H   -0.089487   0.355567
 Sum of Mulliken charges =  -1.00000   1.00000

 Dipole moment (field-independent basis, Debye):
    X=             -2.1158    Y=              2.7625    Z=              1.2928  Tot=              3.7120
 Quadrupole moment (field-independent basis, Debye-Ang):
   XX=           -192.3766   YY=           -134.4311   ZZ=           -125.1870
   XY=              8.0408   XZ=             -2.5147   YZ=              0.4522

 Summary of Natural Population Analysis:

                                       Natural Population
                Natural  -----------------------------------------------
    Atom  No    Charge         Core      Valence    Rydberg      Total
 -----------------------------------------------------------------------
      C    1   -0.29921      0.99961     2.29298    0.00662     3.29921
      C    2   -0.10854      0.99952     2.09732    0.01171     3.10854
      C    3   -0.02959      0.99945     2.01497    0.01518     3.02959
      N    4   -0.24739      0.99964     2.73635    0.01140     3.74739
      C    5    0.05186      0.99962     1.93122    0.01730     2.94814
      S    6    0.19794      4.99939     2.78405    0.01862     7.80206
      C    7   -0.10905      0.99956     2.09785    0.01164     3.10905
      N    8   -0.34435      0.99973     2.83368    0.01094     3.84435
      C    9   -0.00908      0.99954     1.99562    0.01392     3.00908
      C   10   -0.29739      0.99964     2.29281    0.00494     3.29739
      C   11    0.12720      0.99953     1.85713    0.01614     2.87280
      C   12   -0.29741      0.99961     2.29066    0.00715     3.29741
      C   13   -0.29768      0.99961     2.29099    0.00708     3.29768
      O   14   -0.38608      0.99989     3.37950    0.00669     4.38608
      H   15    0.10812      0.00000     0.39013    0.00176     0.39188
      H   16    0.10409      0.00000     0.39494    0.00098     0.39591
      H   17    0.10688      0.00000     0.39185    0.00126     0.39312
      H   18    0.09566      0.00000     0.40312    0.00123     0.40434
      H   19    0.10380      0.00000     0.39472    0.00148     0.39620
      H   20    0.09423      0.00000     0.40394    0.00182     0.40577
      H   21    0.18382      0.00000     0.31371    0.00247     0.31618
      H   22    0.09535      0.00000     0.40281    0.00184     0.40465
      H   23    0.10475      0.00000     0.39413    0.00112     0.39525
      H   24    0.10097      0.00000     0.39816    0.00087     0.39903
      H   25    0.09771      0.00000     0.40137    0.00091     0.40229
      H   26    0.10264      0.00000     0.39616    0.00120     0.39736
      H   27    0.09715      0.00000     0.40151    0.00135     0.40285
      H   28    0.11281      0.00000     0.38578    0.00141     0.38719
      H   29    0.10305      0.00000     0.39577    0.00117     0.39695
      H   30    0.10199      0.00000     0.39646    0.00155     0.39801
      H   31    0.10269      0.00000     0.39592    0.00139     0.39731
      H   32    0.23304      0.00000     0.26284    0.00411     0.26696
 =======================================================================
   * Total *   -0.00000     17.99434    39.81842    0.18724    58.00000

 Normal termination of Gaussian 16 at Thu Dec 10 09:52:02 2020.
