 Gaussian 16, Revision A.03,

 -----------------------------------------------------------
 # opt freq B3LYP/6-31G(d) empiricaldispersion=gd3bj scf=xqc
 -----------------------------------------------------------

 -------------------------------
 CID_152074955_JID_5399_neutraal
 -------------------------------
 Symbolic Z-matrix:
 Charge =  0 Multiplicity = 1

 SCF Done:  E(RB3LYP) =  -652.766500430     A.U. after   18 cycles
 SCF Done:  E(RB3LYP) =  -652.786471188     A.U. after   17 cycles
 SCF Done:  E(RB3LYP) =  -652.794546190     A.U. after   17 cycles
 SCF Done:  E(RB3LYP) =  -652.802603387     A.U. after   16 cycles
 SCF Done:  E(RB3LYP) =  -652.806743618     A.U. after   15 cycles
 SCF Done:  E(RB3LYP) =  -652.807922611     A.U. after   14 cycles
 SCF Done:  E(RB3LYP) =  -652.810410062     A.U. after   13 cycles
 SCF Done:  E(RB3LYP) =  -652.812095291     A.U. after   14 cycles
 SCF Done:  E(RB3LYP) =  -652.813814814     A.U. after   14 cycles
 SCF Done:  E(RB3LYP) =  -652.814011047     A.U. after   14 cycles
 SCF Done:  E(RB3LYP) =  -652.814574618     A.U. after   11 cycles
 SCF Done:  E(RB3LYP) =  -652.814577119     A.U. after   10 cycles
 SCF Done:  E(RB3LYP) =  -652.814577066     A.U. after    8 cycles
 SCF Done:  E(RB3LYP) =  -652.814577224     A.U. after    8 cycles
 Optimization completed.
    -- Stationary point found.
 Normal termination of Gaussian 16 at Thu Dec 10 16:07:09 2020.

 --------------------------------------------------------------------
 #N Geom=AllCheck Guess=TCheck SCRF=Check GenChk RB3LYP/6-31G(d) Freq
 --------------------------------------------------------------------

 Structure from the checkpoint file:  "JID_5399.chk"
 -------------------------------
 CID_152074955_JID_5399_neutraal
 -------------------------------
 Charge =  0 Multiplicity = 1

 SCF Done:  E(RB3LYP) =  -652.814577224     A.U. after    1 cycles

  Exact polarizability: 181.059   0.828 145.011   5.293   0.768  96.274
 Approx polarizability: 281.148 -12.980 216.735  18.948  -2.572 153.480

                      1                      2                      3
                      A                      A                      A
 Frequencies --     59.1448                93.6062               129.6426
 Red. masses --      3.7061                 3.4540                 3.1150
 Frc consts  --      0.0076                 0.0178                 0.0308
 IR Inten    --      1.2434                 0.3696                 0.4955

                      4                      5                      6
                      A                      A                      A
 Frequencies --    167.1472               180.1891               227.8070
 Red. masses --      2.8121                 1.4012                 2.7091
 Frc consts  --      0.0463                 0.0268                 0.0828
 IR Inten    --      0.6580                 0.5751                 0.6792

                      7                      8                      9
                      A                      A                      A
 Frequencies --    238.9630               249.8179               256.9238
 Red. masses --      2.1351                 1.4312                 2.4642
 Frc consts  --      0.0718                 0.0526                 0.0958
 IR Inten    --      1.5515                 0.7082                 1.8203

                     10                     11                     12
                      A                      A                      A
 Frequencies --    274.6352               281.8983               297.0066
 Red. masses --      2.5291                 1.1936                 2.5291
 Frc consts  --      0.1124                 0.0559                 0.1314
 IR Inten    --      0.3743                 0.3644                 1.5046

                     13                     14                     15
                      A                      A                      A
 Frequencies --    307.7651               357.0543               367.6160
 Red. masses --      3.7751                 4.2126                 3.5201
 Frc consts  --      0.2107                 0.3164                 0.2803
 IR Inten    --      2.8974                 0.3119                 0.8345

                     16                     17                     18
                      A                      A                      A
 Frequencies --    401.4572               413.8580               443.7579
 Red. masses --      2.8992                 3.1393                 3.6665
 Frc consts  --      0.2753                 0.3168                 0.4254
 IR Inten    --      2.2376                 2.2601                 2.1590

                     19                     20                     21
                      A                      A                      A
 Frequencies --    479.9025               488.0932               513.4201
 Red. masses --      2.9052                 3.2931                 2.5537
 Frc consts  --      0.3942                 0.4622                 0.3966
 IR Inten    --      0.5801                 1.9879                 1.1332

                     22                     23                     24
                      A                      A                      A
 Frequencies --    558.4901               570.7835               605.5651
 Red. masses --      3.4438                 4.1079                 2.7608
 Frc consts  --      0.6329                 0.7885                 0.5965
 IR Inten    --      3.0876                 4.4494                 2.1516

                     25                     26                     27
                      A                      A                      A
 Frequencies --    704.9227               720.0629               731.1147
 Red. masses --      3.9740                 1.8693                 2.6735
 Frc consts  --      1.1635                 0.5710                 0.8420
 IR Inten    --      8.7458                24.4199                24.1947

                     28                     29                     30
                      A                      A                      A
 Frequencies --    757.4098               860.2127               885.1748
 Red. masses --      3.0222                 2.3618                 1.7051
 Frc consts  --      1.0215                 1.0297                 0.7871
 IR Inten    --     15.1234                 1.6857                 6.0720

                     31                     32                     33
                      A                      A                      A
 Frequencies --    893.6731               919.7674               942.4616
 Red. masses --      1.9865                 2.1391                 2.3375
 Frc consts  --      0.9347                 1.0662                 1.2233
 IR Inten    --      0.9690                 1.8369                 1.7456

                     34                     35                     36
                      A                      A                      A
 Frequencies --    957.5098               967.8405               977.7447
 Red. masses --      1.5789                 2.0785                 1.3560
 Frc consts  --      0.8529                 1.1471                 0.7638
 IR Inten    --      1.0985                 3.4568                 1.1535

                     37                     38                     39
                      A                      A                      A
 Frequencies --    984.9293              1015.2485              1028.0322
 Red. masses --      1.6973                 1.9246                 1.8203
 Frc consts  --      0.9701                 1.1688                 1.1334
 IR Inten    --      1.0525                 3.6715                 8.8136

                     40                     41                     42
                      A                      A                      A
 Frequencies --   1032.6072              1039.4214              1079.1469
 Red. masses --      1.9038                 1.9041                 1.7199
 Frc consts  --      1.1961                 1.2120                 1.1801
 IR Inten    --      2.9574                 0.5478                 2.6699

                     43                     44                     45
                      A                      A                      A
 Frequencies --   1096.8734              1124.0163              1136.6406
 Red. masses --      1.9204                 3.3575                 2.9211
 Frc consts  --      1.3613                 2.4992                 2.2236
 IR Inten    --      5.2554               174.4977               111.3705

                     46                     47                     48
                      A                      A                      A
 Frequencies --   1172.3402              1186.3229              1195.8605
 Red. masses --      1.5827                 1.9403                 1.1339
 Frc consts  --      1.2816                 1.6089                 0.9554
 IR Inten    --     23.3421                 5.6268                 0.2378

                     49                     50                     51
                      A                      A                      A
 Frequencies --   1222.5088              1226.7408              1261.5748
 Red. masses --      1.8413                 1.7577                 2.5552
 Frc consts  --      1.6214                 1.5585                 2.3961
 IR Inten    --     11.2359                 3.6167                21.5595

                     52                     53                     54
                      A                      A                      A
 Frequencies --   1280.7737              1325.0397              1331.6546
 Red. masses --      1.7781                 1.3625                 1.7060
 Frc consts  --      1.7185                 1.4095                 1.7824
 IR Inten    --      3.4130                 4.8959                 7.2361

                     55                     56                     57
                      A                      A                      A
 Frequencies --   1339.4162              1353.1861              1377.7188
 Red. masses --      1.4036                 1.9981                 1.5242
 Frc consts  --      1.4836                 2.1557                 1.7046
 IR Inten    --     12.4466                12.7385                17.1174

                     58                     59                     60
                      A                      A                      A
 Frequencies --   1390.3235              1397.1098              1418.2985
 Red. masses --      1.6765                 1.6379                 1.3289
 Frc consts  --      1.9094                 1.8837                 1.5750
 IR Inten    --     32.8627                 7.1583                14.9837

                     61                     62                     63
                      A                      A                      A
 Frequencies --   1425.6846              1437.4440              1439.6531
 Red. masses --      1.4019                 1.6447                 1.3095
 Frc consts  --      1.6789                 2.0022                 1.5991
 IR Inten    --     11.1111                16.5135                10.2880

                     64                     65                     66
                      A                      A                      A
 Frequencies --   1442.0180              1500.4042              1504.4114
 Red. masses --      1.2494                 1.0958                 1.0542
 Frc consts  --      1.5307                 1.4535                 1.4058
 IR Inten    --      5.4780                 3.4900                 0.6733

                     67                     68                     69
                      A                      A                      A
 Frequencies --   1521.6277              1523.0624              1529.9317
 Red. masses --      1.1124                 1.0893                 1.0451
 Frc consts  --      1.5175                 1.4889                 1.4413
 IR Inten    --     21.3172                16.5230                 6.7987

                     70                     71                     72
                      A                      A                      A
 Frequencies --   1535.8961              1538.2545              1550.8188
 Red. masses --      1.0525                 1.0559                 1.2009
 Frc consts  --      1.4628                 1.4721                 1.7017
 IR Inten    --      1.2127                 3.5414                29.2141

                     73                     74                     75
                      A                      A                      A
 Frequencies --   1572.7549              1648.3971              1718.0716
 Red. masses --      3.8442                 8.4407                 5.9762
 Frc consts  --      5.6025                13.5130                10.3935
 IR Inten    --    186.5046                12.8335                 7.8378

                     76                     77                     78
                      A                      A                      A
 Frequencies --   2969.7613              2984.4823              3040.8431
 Red. masses --      1.0777                 1.0765                 1.0666
 Frc consts  --      5.6000                 5.6495                 5.8107
 IR Inten    --      6.3401                42.8258                 1.9084

                     79                     80                     81
                      A                      A                      A
 Frequencies --   3048.8435              3051.8989              3058.4453
 Red. masses --      1.0410                 1.0683                 1.0425
 Frc consts  --      5.7015                 5.8628                 5.7453
 IR Inten    --     18.6250                23.9327                35.1809

                     82                     83                     84
                      A                      A                      A
 Frequencies --   3067.2116              3089.9401              3102.8097
 Red. masses --      1.0443                 1.1001                 1.0889
 Frc consts  --      5.7886                 6.1885                 6.1764
 IR Inten    --     16.4029                29.1180                26.8939

                     85                     86                     87
                      A                      A                      A
 Frequencies --   3114.7231              3119.3362              3120.7947
 Red. masses --      1.1019                 1.1019                 1.1020
 Frc consts  --      6.2983                 6.3173                 6.3235
 IR Inten    --     29.7232                18.4430                43.9450

                     88                     89                     90
                      A                      A                      A
 Frequencies --   3129.4715              3175.5040              3181.7304
 Red. masses --      1.1004                 1.0988                 1.0850
 Frc consts  --      6.3493                 6.5284                 6.4715
 IR Inten    --     35.0450                 4.7811                 4.1487

                     91                     92                     93
                      A                      A                      A
 Frequencies --   3194.5575              3201.8299              3223.2459
 Red. masses --      1.0967                 1.0969                 1.0924
 Frc consts  --      6.5943                 6.6255                 6.6867
 IR Inten    --      3.3890                41.6543                 4.1928

 - Thermochemistry -
 -------------------
 Temperature   298.150 Kelvin.  Pressure   1.00000 Atm.
 Atom     1 has atomic number  6 and mass  12.00000

 Molecular mass:   206.14191 amu.
 Principal axes and moments of inertia in atomic units:
                           1         2         3
     Eigenvalues --  2064.378913217.640184586.70612
           X            0.99968   0.02316  -0.01013
           Y           -0.02301   0.99962   0.01496
           Z            0.01048  -0.01472   0.99984
 This molecule is an asymmetric top.
 Rotational symmetry number  1.
 Warning -- assumption of classical behavior for rotation
           may cause significant error
 Rotational temperatures (Kelvin)      0.04196     0.02692     0.01888
 Rotational constants (GHZ):           0.87423     0.56089     0.39347
 Zero-point vibrational energy     754018.7 (Joules/Mol)
                                  180.21479 (Kcal/Mol)
 Warning -- explicit consideration of  24 degrees of freedom as
           vibrations may cause significant error
 Vibrational temperatures:     85.10   134.68   186.53   240.49   259.25
          (Kelvin)            327.76   343.81   359.43   369.66   395.14
                              405.59   427.33   442.81   513.72   528.92
                              577.61   595.45   638.47   690.47   702.26
                              738.70   803.54   821.23   871.27  1014.23
                             1036.01  1051.91  1089.74  1237.65  1273.57
                             1285.80  1323.34  1355.99  1377.64  1392.51
                             1406.76  1417.09  1460.72  1479.11  1485.69
                             1495.50  1552.65  1578.16  1617.21  1635.37
                             1686.74  1706.85  1720.58  1758.92  1765.01
                             1815.12  1842.75  1906.44  1915.95  1927.12
                             1946.93  1982.23  2000.37  2010.13  2040.62
                             2051.24  2068.16  2071.34  2074.74  2158.75
                             2164.51  2189.28  2191.35  2201.23  2209.81
                             2213.21  2231.28  2262.84  2371.68  2471.92
                             4272.82  4294.00  4375.09  4386.61  4391.00
                             4400.42  4413.03  4445.73  4464.25  4481.39
                             4488.03  4490.13  4502.61  4568.84  4577.80
                             4596.26  4606.72  4637.53

 Zero-point correction=                           0.287191 (Hartree/Particle)
 Thermal correction to Energy=                    0.301279
 Thermal correction to Enthalpy=                  0.302223
 Thermal correction to Gibbs Free Energy=         0.247918
 Sum of electronic and zero-point Energies=           -652.527387
 Sum of electronic and thermal Energies=              -652.513298
 Sum of electronic and thermal Enthalpies=            -652.512354
 Sum of electronic and thermal Free Energies=         -652.566659

                     E (Thermal)             CV                S
                      KCal/Mol        Cal/Mol-Kelvin    Cal/Mol-Kelvin
 Total                  189.056             56.918            114.295
 Electronic               0.000              0.000              0.000
 Translational            0.889              2.981             41.874
 Rotational               0.889              2.981             31.788
 Vibrational            187.278             50.956             40.632
 Vibration     1          0.597              1.974              4.486
 Vibration     2          0.603              1.954              3.583
 Vibration     3          0.612              1.924              2.951
 Vibration     4          0.624              1.883              2.467
 Vibration     5          0.629              1.867              2.326
 Vibration     6          0.651              1.799              1.896
 Vibration     7          0.657              1.781              1.811
 Vibration     8          0.663              1.763              1.732
 Vibration     9          0.667              1.751              1.683
 Vibration    10          0.677              1.720              1.567
 Vibration    11          0.681              1.707              1.522
 Vibration    12          0.691              1.679              1.434
 Vibration    13          0.698              1.659              1.374
 Vibration    14          0.732              1.561              1.135
 Vibration    15          0.740              1.539              1.090
 Vibration    16          0.767              1.467              0.957
 Vibration    17          0.777              1.440              0.913
 Vibration    18          0.803              1.375              0.815
 Vibration    19          0.836              1.295              0.710
 Vibration    20          0.844              1.276              0.689
 Vibration    21          0.868              1.220              0.625
 Vibration    22          0.914              1.121              0.527
 Vibration    23          0.927              1.094              0.503
 Vibration    24          0.964              1.020              0.440

 Optimization completed.
    -- Stationary point found.
 Normal termination of Gaussian 16 at Thu Dec 10 16:19:39 2020.

 ----------------------------------------------------------------------
 # B3LYP/6-311++G(d,p) empiricaldispersion=gd3bj scf=xqc pop=npa geom=c
 heck
 ----------------------------------------------------------------------

 ---------------------------------------
 CID_152074955_JID_5399_Energie_neutraal
 ---------------------------------------
 Structure from the checkpoint file:  "JID_5399.chk"
 Charge =  0 Multiplicity = 1

 SCF Done:  E(RB3LYP) =  -652.990890353     A.U. after   17 cycles
 Normal termination of Gaussian 16 at Thu Dec 10 16:25:50 2020.

 ----------------------------------------------------------------------
 # B3LYP/6-311++G(d,p) empiricaldispersion=gd3bj scf=xqc pop=npa geom=c
 heck
 ----------------------------------------------------------------------

 -------------------------------------
 CID_152074955_JID_5399_Energie_kation
 -------------------------------------
 Structure from the checkpoint file:  "JID_5399.chk"
 Charge =  1 Multiplicity = 2

 SCF Done:  E(UB3LYP) =  -652.710526385     A.U. after   33 cycles
 SCF Done:  E(UB3LYP) =  -652.710526385     a.u. after    1 cycles
 Normal termination of Gaussian 16 at Thu Dec 10 16:54:16 2020.
 Gaussian 16:  ES64L-G16RevA.03 25-Dec-2016

 ----------------------------------------------------------------------
 # B3LYP/6-311++G(d,p) empiricaldispersion=gd3bj scf=xqc pop=npa geom=c
 heck
 ----------------------------------------------------------------------

 ------------------------------------
 CID_152074955_JID_5399_Energie_anion
 ------------------------------------
 Structure from the checkpoint file:  "JID_5399.chk"
 Charge = -1 Multiplicity = 2

                         Standard orientation:
 ---------------------------------------------------------------------
 Center     Atomic      Atomic             Coordinates (Angstroms)
 Number     Number       Type             X           Y           Z
 ---------------------------------------------------------------------
      1          6           0       -1.338036    2.967765    0.367495
      2          6           0       -0.496407    1.694902    0.483437
      3          6           0        0.507487    1.552749   -0.664939
      4          6           0        1.603467    0.507498   -0.361108
      5          7           0        0.918777   -0.677333    0.264602
      6          6           0       -0.487206   -0.810683    0.179252
      7          6           0       -1.074338   -1.979481   -0.147584
      8          6           0       -2.529581   -2.078470   -0.177791
      9          6           0       -3.284652   -0.968067   -0.230038
     10          6           0       -2.625500    0.390128   -0.259224
     11          6           0       -1.330426    0.391907    0.569374
     12          7           0        1.566162   -1.773557    0.726406
     13          8           0        2.787839   -1.767922    0.607113
     14          6           0        2.268800    0.064981   -1.673594
     15          6           0        2.635484    1.106293    0.610161
     16          1           0       -0.694752    3.852660    0.426042
     17          1           0       -2.074640    3.036061    1.176211
     18          1           0       -1.878066    3.013508   -0.584506
     19          1           0        0.074791    1.769932    1.416785
     20          1           0        1.007650    2.506061   -0.870126
     21          1           0       -0.028055    1.274305   -1.581933
     22          1           0       -0.468584   -2.848555   -0.379230
     23          1           0       -2.981349   -3.066331   -0.210732
     24          1           0       -4.366104   -1.028808   -0.317932
     25          1           0       -2.404104    0.658115   -1.307330
     26          1           0       -3.308244    1.156795    0.118014
     27          1           0       -1.627121    0.241364    1.621499
     28          1           0        2.675992    0.943373   -2.187208
     29          1           0        3.078169   -0.641683   -1.488754
     30          1           0        1.529991   -0.404412   -2.331904
     31          1           0        2.170060    1.391043    1.558499
     32          1           0        3.438581    0.402307    0.819505
     33          1           0        3.063957    2.006738    0.156486
 ---------------------------------------------------------------------

 SCF Done:  E(UB3LYP) =  -652.996074845     A.U. after   33 cycles
 SCF Done:  E(UB3LYP) =  -652.996074845     a.u. after    1 cycles

 The electronic state is 2-A.
 Alpha  occ. eigenvalues --  -18.93573 -14.21533 -14.20866 -10.09713 -10.06007
 Alpha  occ. eigenvalues --  -10.05819 -10.05281 -10.04656 -10.04106 -10.03865
 Alpha  occ. eigenvalues --  -10.03789 -10.03654 -10.01822 -10.01014  -9.99766
 Alpha  occ. eigenvalues --   -0.95603  -0.80223  -0.70933  -0.69458  -0.65449
 Alpha  occ. eigenvalues --   -0.59598  -0.59309  -0.57146  -0.56811  -0.51752
 Alpha  occ. eigenvalues --   -0.50578  -0.45949  -0.43918  -0.40304  -0.37670
 Alpha  occ. eigenvalues --   -0.35558  -0.35498  -0.33899  -0.32635  -0.31344
 Alpha  occ. eigenvalues --   -0.30479  -0.29494  -0.29381  -0.28682  -0.27790
 Alpha  occ. eigenvalues --   -0.27356  -0.26740  -0.25923  -0.25001  -0.24627
 Alpha  occ. eigenvalues --   -0.22929  -0.22553  -0.21313  -0.20640  -0.20119
 Alpha  occ. eigenvalues --   -0.19210  -0.17882  -0.16692  -0.12319  -0.05731
 Alpha  occ. eigenvalues --   -0.04755   0.05348
 Alpha virt. eigenvalues --    0.07415   0.08812   0.09363   0.09866   0.10698
 Alpha virt. eigenvalues --    0.11128   0.11681   0.11971   0.12351   0.12808
 Alpha virt. eigenvalues --    0.13528   0.13878   0.14327   0.14671   0.15132

  Beta  occ. eigenvalues --  -18.92952 -14.21047 -14.20763 -10.09706 -10.06001
  Beta  occ. eigenvalues --  -10.05814 -10.05282 -10.04668 -10.03880 -10.03876
  Beta  occ. eigenvalues --  -10.03792 -10.03646 -10.01834 -10.00708  -9.99607
  Beta  occ. eigenvalues --   -0.94461  -0.79980  -0.70804  -0.69280  -0.65265
  Beta  occ. eigenvalues --   -0.59252  -0.59064  -0.57141  -0.56679  -0.51071
  Beta  occ. eigenvalues --   -0.50523  -0.45560  -0.43749  -0.40107  -0.37578
  Beta  occ. eigenvalues --   -0.35396  -0.34969  -0.33779  -0.32466  -0.30967
  Beta  occ. eigenvalues --   -0.30359  -0.29341  -0.28863  -0.28313  -0.27698
  Beta  occ. eigenvalues --   -0.27192  -0.26595  -0.25441  -0.24755  -0.24232
  Beta  occ. eigenvalues --   -0.22582  -0.21805  -0.21051  -0.20305  -0.19870
  Beta  occ. eigenvalues --   -0.18869  -0.17698  -0.15628  -0.11267  -0.04315
  Beta  occ. eigenvalues --   -0.03980
  Beta virt. eigenvalues --    0.07355   0.08749   0.09295   0.09812   0.10609
  Beta virt. eigenvalues --    0.11121   0.11589   0.11801   0.11978   0.12508
  Beta virt. eigenvalues --    0.13445   0.13803   0.14254   0.14595   0.15028

 Mulliken charges and spin densities:
               1          2
     1  C   -0.542302  -0.169749
     2  C    0.215249   0.102800
     3  C   -1.058720   0.006146
     4  C    0.183155  -0.052290
     5  N    0.668333  -0.061071
     6  C   -0.528121   0.042940
     7  C   -0.363276   0.180971
     8  C   -0.321987   0.003487
     9  C   -0.327453   0.262701
    10  C   -0.407226  -0.061770
    11  C    0.605838   0.053857
    12  N   -0.400542   0.324178
    13  O   -0.225070   0.206667
    14  C   -0.360046   0.005837
    15  C   -0.444225   0.003697
    16  H    0.106192   0.017175
    17  H    0.083133   0.052319
    18  H    0.149352   0.006008
    19  H    0.159390  -0.001143
    20  H    0.154271  -0.000160
    21  H    0.165545  -0.001364
    22  H    0.145082  -0.010045
    23  H    0.105177   0.002218
    24  H    0.127750  -0.015033
    25  H    0.110049   0.008067
    26  H    0.080249   0.019142
    27  H    0.114349   0.042560
    28  H    0.095081  -0.001133
    29  H    0.165991   0.018145
    30  H    0.152411  -0.000728
    31  H    0.130197  -0.000859
    32  H    0.176515   0.009735
    33  H    0.085658   0.006697
 Sum of Mulliken charges =  -1.00000   1.00000

 Dipole moment (field-independent basis, Debye):
    X=             -1.2641    Y=              6.8008    Z=             -1.8648  Tot=              7.1642
 Quadrupole moment (field-independent basis, Debye-Ang):
   XX=           -132.5141   YY=           -118.1467   ZZ=           -104.0182
   XY=              7.3373   XZ=             -4.5609   YZ=              4.3605

 Summary of Natural Population Analysis:

                                       Natural Population
                Natural  -----------------------------------------------
    Atom  No    Charge         Core      Valence    Rydberg      Total
 -----------------------------------------------------------------------
      C    1   -0.28164      0.99966     2.27709    0.00489     3.28164
      C    2   -0.11082      0.99959     2.09935    0.01189     3.11082
      C    3   -0.19019      0.99958     2.18224    0.00837     3.19019
      C    4    0.06826      0.99957     1.91746    0.01471     2.93174
      N    5   -0.19690      0.99960     2.67925    0.01805     3.69690
      C    6    0.12871      0.99944     1.85726    0.01459     2.87129
      C    7   -0.10652      0.99947     2.09527    0.01177     3.10652
      C    8   -0.11664      0.99954     2.10757    0.00953     3.11664
      C    9   -0.04613      0.99955     2.03653    0.01004     3.04613
      C   10   -0.20490      0.99962     2.19687    0.00841     3.20490
      C   11   -0.11606      0.99955     2.10370    0.01281     3.11606
      N   12    0.18289      0.99979     2.28853    0.02879     3.31711
      O   13   -0.18016      0.99991     3.17010    0.01016     4.18016
      C   14   -0.29251      0.99961     2.28712    0.00578     3.29251
      C   15   -0.29188      0.99961     2.28646    0.00581     3.29188
      H   16    0.09393      0.00000     0.40515    0.00092     0.40607
      H   17    0.09747      0.00000     0.40154    0.00099     0.40253
      H   18    0.09686      0.00000     0.40222    0.00092     0.40314
      H   19    0.09445      0.00000     0.40324    0.00231     0.40555
      H   20    0.09493      0.00000     0.40398    0.00109     0.40507
      H   21    0.10169      0.00000     0.39731    0.00100     0.39831
      H   22    0.10397      0.00000     0.39505    0.00097     0.39603
      H   23    0.09017      0.00000     0.40888    0.00096     0.40983
      H   24    0.08268      0.00000     0.41623    0.00109     0.41732
      H   25    0.09525      0.00000     0.40339    0.00136     0.40475
      H   26    0.09477      0.00000     0.40355    0.00168     0.40523
      H   27    0.09764      0.00000     0.39952    0.00284     0.40236
      H   28    0.08786      0.00000     0.41115    0.00098     0.41214
      H   29    0.11667      0.00000     0.38232    0.00102     0.38333
      H   30    0.10116      0.00000     0.39803    0.00082     0.39884
      H   31    0.09715      0.00000     0.40199    0.00086     0.40285
      H   32    0.12049      0.00000     0.37854    0.00097     0.37951
      H   33    0.08736      0.00000     0.41166    0.00098     0.41264
 =======================================================================
   * Total *    0.00000     14.99408    40.80856    0.19736    56.00000

 Normal termination of Gaussian 16 at Thu Dec 10 17:22:27 2020.
