 Gaussian 16, Revision A.03,

 -----------------------------------------------------------
 # opt freq B3LYP/6-31G(d) empiricaldispersion=gd3bj scf=xqc
 -----------------------------------------------------------

 ------------------------------
 CID_42669798_JID_8588_neutraal
 ------------------------------
 Symbolic Z-matrix:
 Charge =  0 Multiplicity = 1

 SCF Done:  E(RB3LYP) =  -803.155141249     A.U. after   15 cycles
 SCF Done:  E(RB3LYP) =  -803.163803864     A.U. after   13 cycles
 SCF Done:  E(RB3LYP) =  -803.164323155     A.U. after   14 cycles
 SCF Done:  E(RB3LYP) =  -803.165783286     A.U. after   12 cycles
 SCF Done:  E(RB3LYP) =  -803.166468713     A.U. after   12 cycles
 SCF Done:  E(RB3LYP) =  -803.166891954     A.U. after   14 cycles
 SCF Done:  E(RB3LYP) =  -803.167426812     A.U. after   12 cycles
 SCF Done:  E(RB3LYP) =  -803.167520075     A.U. after   11 cycles
 SCF Done:  E(RB3LYP) =  -803.167769130     A.U. after   12 cycles
 SCF Done:  E(RB3LYP) =  -803.167874097     A.U. after   11 cycles
 SCF Done:  E(RB3LYP) =  -803.168149701     A.U. after   10 cycles
 SCF Done:  E(RB3LYP) =  -803.168151456     A.U. after    9 cycles
 SCF Done:  E(RB3LYP) =  -803.168151724     A.U. after    8 cycles
 SCF Done:  E(RB3LYP) =  -803.168151745     A.U. after    7 cycles
 SCF Done:  E(RB3LYP) =  -803.168151745     A.U. after    6 cycles
 Optimization completed.
    -- Stationary point found.
 Normal termination of Gaussian 16 at Sun Dec 13 13:03:58 2020.

 --------------------------------------------------------------------
 #N Geom=AllCheck Guess=TCheck SCRF=Check GenChk RB3LYP/6-31G(d) Freq
 --------------------------------------------------------------------

 Structure from the checkpoint file:  "JID_8588.chk"
 ------------------------------
 CID_42669798_JID_8588_neutraal
 ------------------------------
 Charge =  0 Multiplicity = 1

 SCF Done:  E(RB3LYP) =  -803.168151745     A.U. after    1 cycles

  Exact polarizability: 247.535  -8.399 143.978   2.751  15.527 111.479
 Approx polarizability: 338.422 -12.860 221.996   4.260  38.941 186.284

                      1                      2                      3
                      A                      A                      A
 Frequencies --     28.5127                31.7177                45.8375
 Red. masses --      1.1962                 2.4466                 4.3270
 Frc consts  --      0.0006                 0.0015                 0.0054
 IR Inten    --      0.2450                 0.2605                 0.4780

                      4                      5                      6
                      A                      A                      A
 Frequencies --     58.7431                63.8429                76.5831
 Red. masses --      4.0848                 4.3479                 4.6681
 Frc consts  --      0.0083                 0.0104                 0.0161
 IR Inten    --      0.4955                 0.0304                 0.3138

                      7                      8                      9
                      A                      A                      A
 Frequencies --    109.4196               141.1886               156.2241
 Red. masses --      3.4339                 1.1434                 3.5642
 Frc consts  --      0.0242                 0.0134                 0.0513
 IR Inten    --      1.1010                 0.2715                 0.5687

                     10                     11                     12
                      A                      A                      A
 Frequencies --    187.9307               205.7478               223.4305
 Red. masses --      4.4858                 2.7719                 1.3329
 Frc consts  --      0.0933                 0.0691                 0.0392
 IR Inten    --      0.8350                 0.4013                 0.2269

                     13                     14                     15
                      A                      A                      A
 Frequencies --    253.4915               267.1600               298.6765
 Red. masses --      3.6025                 4.1760                 3.3562
 Frc consts  --      0.1364                 0.1756                 0.1764
 IR Inten    --      2.5042                 2.4497                 2.5049

                     16                     17                     18
                      A                      A                      A
 Frequencies --    316.1906               347.2575               365.1685
 Red. masses --      3.1091                 2.8948                 3.8160
 Frc consts  --      0.1831                 0.2057                 0.2998
 IR Inten    --      2.7021                 2.8934                 0.4599

                     19                     20                     21
                      A                      A                      A
 Frequencies --    413.4096               426.0839               452.1138
 Red. masses --      4.5513                 3.1175                 5.4770
 Frc consts  --      0.4583                 0.3335                 0.6596
 IR Inten    --      0.8141                 0.0815                 4.8423

                     22                     23                     24
                      A                      A                      A
 Frequencies --    467.9643               525.1268               591.4660
 Red. masses --      5.2390                 3.0444                 1.6930
 Frc consts  --      0.6760                 0.4946                 0.3490
 IR Inten    --      0.9352                12.7360                45.7223

                     25                     26                     27
                      A                      A                      A
 Frequencies --    600.7921               610.3338               631.0362
 Red. masses --      2.1759                 3.9716                 3.9135
 Frc consts  --      0.4627                 0.8717                 0.9182
 IR Inten    --     36.6369                 6.6586                 2.3508

                     28                     29                     30
                      A                      A                      A
 Frequencies --    653.4811               684.5365               716.5484
 Red. masses --      6.2310                 5.7375                 4.3976
 Frc consts  --      1.5677                 1.5841                 1.3303
 IR Inten    --      0.7136                 6.1698                54.5353

                     31                     32                     33
                      A                      A                      A
 Frequencies --    721.5577               731.7510               779.6707
 Red. masses --      4.3284                 3.2199                 2.1431
 Frc consts  --      1.3278                 1.0158                 0.7675
 IR Inten    --     25.0901                 1.4017                 0.9215

                     34                     35                     36
                      A                      A                      A
 Frequencies --    792.8243               809.8469               842.8595
 Red. masses --      7.8956                 2.3194                 1.5214
 Frc consts  --      2.9241                 0.8963                 0.6368
 IR Inten    --     21.1760                 5.3109                33.3579

                     37                     38                     39
                      A                      A                      A
 Frequencies --    850.9995               858.2636               964.3126
 Red. masses --      1.2523                 3.0121                 1.3263
 Frc consts  --      0.5343                 1.3073                 0.7267
 IR Inten    --      0.0880                 1.2517                 1.3017

                     40                     41                     42
                      A                      A                      A
 Frequencies --    967.5851               975.8736              1021.3750
 Red. masses --      1.3285                 2.3614                 1.4123
 Frc consts  --      0.7328                 1.3250                 0.8681
 IR Inten    --      0.3035                 4.0781                 0.0956

                     43                     44                     45
                      A                      A                      A
 Frequencies --   1034.0528              1043.1977              1067.0002
 Red. masses --      1.8365                 2.5124                 4.4275
 Frc consts  --      1.1570                 1.6109                 2.9699
 IR Inten    --      0.1134                12.4370                81.9448

                     46                     47                     48
                      A                      A                      A
 Frequencies --   1076.6562              1080.1982              1084.0254
 Red. masses --      1.5320                 1.5136                 2.4871
 Frc consts  --      1.0463                 1.0406                 1.7220
 IR Inten    --     12.1334                 3.1516                62.6263

                     49                     50                     51
                      A                      A                      A
 Frequencies --   1094.1522              1130.2022              1144.1620
 Red. masses --      2.2189                 3.0459                 1.5431
 Frc consts  --      1.5651                 2.2923                 1.1902
 IR Inten    --     26.1455               116.1309                 6.0919

                     52                     53                     54
                      A                      A                      A
 Frequencies --   1158.6675              1213.0101              1237.9029
 Red. masses --      2.2225                 1.1488                 2.2221
 Frc consts  --      1.7579                 0.9959                 2.0062
 IR Inten    --     10.4661                 1.0967               112.6190

                     55                     56                     57
                      A                      A                      A
 Frequencies --   1244.7141              1287.2683              1327.9697
 Red. masses --      3.0024                 1.9594                 1.6651
 Frc consts  --      2.7407                 1.9130                 1.7301
 IR Inten    --      4.7470                 2.3716                 7.7008

                     58                     59                     60
                      A                      A                      A
 Frequencies --   1346.9050              1354.4402              1374.5643
 Red. masses --      1.3542                 7.3556                 1.4775
 Frc consts  --      1.4474                 7.9503                 1.6448
 IR Inten    --      3.6779                 0.8269                11.6063

                     61                     62                     63
                      A                      A                      A
 Frequencies --   1387.0287              1431.7257              1440.6130
 Red. masses --      2.8160                 1.2279                 1.8288
 Frc consts  --      3.1919                 1.4830                 2.2362
 IR Inten    --      8.1901                 3.5155                13.1250

                     64                     65                     66
                      A                      A                      A
 Frequencies --   1443.8728              1448.0469              1459.2231
 Red. masses --      1.2520                 2.3031                 2.6945
 Frc consts  --      1.5379                 2.8453                 3.3804
 IR Inten    --      1.5437                21.3941                 6.4693

                     67                     68                     69
                      A                      A                      A
 Frequencies --   1495.4156              1505.2679              1512.1824
 Red. masses --      1.9585                 1.0507                 2.0519
 Frc consts  --      2.5804                 1.4027                 2.7645
 IR Inten    --     96.8532                 7.0085                50.2163

                     70                     71                     72
                      A                      A                      A
 Frequencies --   1514.1147              1517.8405              1523.7205
 Red. masses --      1.1306                 1.0578                 1.1381
 Frc consts  --      1.5271                 1.4358                 1.5568
 IR Inten    --      3.0371                 4.0575                11.9673

                     73                     74                     75
                      A                      A                      A
 Frequencies --   1528.4803              1533.5975              1541.7935
 Red. masses --      1.0774                 1.5598                 1.8956
 Frc consts  --      1.4830                 2.1614                 2.6548
 IR Inten    --      1.3094                84.4854                19.1387

                     76                     77                     78
                      A                      A                      A
 Frequencies --   1574.8530              1597.0195              1641.4541
 Red. masses --      3.2144                 5.6563                 6.3300
 Frc consts  --      4.6971                 8.4997                10.0487
 IR Inten    --     87.9459               105.0074                 2.7010

                     79                     80                     81
                      A                      A                      A
 Frequencies --   1675.6448              1809.4229              3044.4526
 Red. masses --      5.9378                 9.0812                 1.0405
 Frc consts  --      9.8229                17.5176                 5.6821
 IR Inten    --      3.8176               469.6894                32.7273

                     82                     83                     84
                      A                      A                      A
 Frequencies --   3057.7591              3067.6258              3101.7488
 Red. masses --      1.0351                 1.0352                 1.0621
 Frc consts  --      5.7021                 5.7394                 6.0203
 IR Inten    --     27.9005                16.9653                 9.6736

                     85                     86                     87
                      A                      A                      A
 Frequencies --   3102.2664              3123.7231              3126.3111
 Red. masses --      1.0958                 1.1017                 1.1004
 Frc consts  --      6.2137                 6.3336                 6.3365
 IR Inten    --     19.5074                25.4807                 9.0545

                     88                     89                     90
                      A                      A                      A
 Frequencies --   3129.7513              3138.9165              3153.5157
 Red. masses --      1.1028                 1.1008                 1.1044
 Frc consts  --      6.3643                 6.3901                 6.4708
 IR Inten    --     14.9793                10.7195                11.1017

                     91                     92                     93
                      A                      A                      A
 Frequencies --   3155.1179              3187.8150              3188.5005
 Red. masses --      1.1044                 1.0894                 1.0890
 Frc consts  --      6.4776                 6.5224                 6.5228
 IR Inten    --     28.1669                14.9573                19.5898

                     94                     95                     96
                      A                      A                      A
 Frequencies --   3215.3764              3228.5257              3693.4866
 Red. masses --      1.0937                 1.0933                 1.0640
 Frc consts  --      6.6622                 6.7143                 8.5520
 IR Inten    --      6.5225                 2.2603                73.1296

 - Thermochemistry -
 -------------------
 Temperature   298.150 Kelvin.  Pressure   1.00000 Atm.
 Atom     1 has atomic number  6 and mass  12.00000

 Molecular mass:   244.12118 amu.
 Principal axes and moments of inertia in atomic units:
                           1         2         3
     Eigenvalues --  1910.040917977.490849168.41558
           X            0.99998  -0.00581  -0.00127
           Y            0.00581   0.99998  -0.00115
           Z            0.00128   0.00114   1.00000
 This molecule is an asymmetric top.
 Rotational symmetry number  1.
 Warning -- assumption of classical behavior for rotation
           may cause significant error
 Rotational temperatures (Kelvin)      0.04535     0.01086     0.00945
 Rotational constants (GHZ):           0.94487     0.22623     0.19684
 Zero-point vibrational energy     734879.4 (Joules/Mol)
                                  175.64038 (Kcal/Mol)
 Warning -- explicit consideration of  26 degrees of freedom as
           vibrations may cause significant error
 Vibrational temperatures:     41.02    45.63    65.95    84.52    91.86
          (Kelvin)            110.19   157.43   203.14   224.77   270.39
                              296.03   321.47   364.72   384.38   429.73
                              454.93   499.63   525.40   594.80   613.04
                              650.49   673.30   755.54   850.99   864.41
                              878.13   907.92   940.21   984.90  1030.95
                             1038.16  1052.83  1121.77  1140.70  1165.19
                             1212.69  1224.40  1234.85  1387.43  1392.14
                             1404.06  1469.53  1487.77  1500.93  1535.18
                             1549.07  1554.16  1559.67  1574.24  1626.11
                             1646.19  1667.06  1745.25  1781.07  1790.87
                             1852.09  1910.65  1937.90  1948.74  1977.69
                             1995.62  2059.93  2072.72  2077.41  2083.42
                             2099.50  2151.57  2165.74  2175.69  2178.47
                             2183.83  2192.29  2199.14  2206.50  2218.30
                             2265.86  2297.75  2361.69  2410.88  2603.36
                             4380.29  4399.43  4413.63  4462.72  4463.47
                             4494.34  4498.06  4503.01  4516.20  4537.21
                             4539.51  4586.55  4587.54  4626.21  4645.13
                             5314.10

 Zero-point correction=                           0.279901 (Hartree/Particle)
 Thermal correction to Energy=                    0.297399
 Thermal correction to Enthalpy=                  0.298343
 Thermal correction to Gibbs Free Energy=         0.232657
 Sum of electronic and zero-point Energies=           -802.888251
 Sum of electronic and thermal Energies=              -802.870753
 Sum of electronic and thermal Enthalpies=            -802.869808
 Sum of electronic and thermal Free Energies=         -802.935495

                     E (Thermal)             CV                S
                      KCal/Mol        Cal/Mol-Kelvin    Cal/Mol-Kelvin
 Total                  186.621             64.721            138.249
 Electronic               0.000              0.000              0.000
 Translational            0.889              2.981             42.378
 Rotational               0.889              2.981             33.301
 Vibrational            184.843             58.759             62.570
 Vibration     1          0.593              1.984              5.930
 Vibration     2          0.594              1.983              5.719
 Vibration     3          0.595              1.979              4.989
 Vibration     4          0.596              1.974              4.499
 Vibration     5          0.597              1.972              4.335
 Vibration     6          0.599              1.965              3.977
 Vibration     7          0.606              1.942              3.279
 Vibration     8          0.615              1.912              2.788
 Vibration     9          0.620              1.896              2.595
 Vibration    10          0.633              1.856              2.248
 Vibration    11          0.640              1.832              2.081
 Vibration    12          0.649              1.805              1.931
 Vibration    13          0.665              1.757              1.706
 Vibration    14          0.672              1.733              1.615
 Vibration    15          0.692              1.676              1.424
 Vibration    16          0.703              1.643              1.330
 Vibration    17          0.725              1.581              1.179
 Vibration    18          0.738              1.544              1.100
 Vibration    19          0.777              1.441              0.915
 Vibration    20          0.788              1.413              0.872
 Vibration    21          0.811              1.356              0.789
 Vibration    22          0.825              1.321              0.743
 Vibration    23          0.880              1.194              0.598
 Vibration    24          0.949              1.050              0.465
 Vibration    25          0.959              1.030              0.448
 Vibration    26          0.969              1.010              0.432

 Optimization completed.
    -- Stationary point found.
 Normal termination of Gaussian 16 at Sun Dec 13 13:17:45 2020.

 ----------------------------------------------------------------------
 # B3LYP/6-311++G(d,p) empiricaldispersion=gd3bj scf=xqc pop=npa geom=c
 heck
 ----------------------------------------------------------------------

 --------------------------------------
 CID_42669798_JID_8588_Energie_neutraal
 --------------------------------------
 Structure from the checkpoint file:  "JID_8588.chk"
 Charge =  0 Multiplicity = 1

 SCF Done:  E(RB3LYP) =  -803.388695277     A.U. after   16 cycles
 Normal termination of Gaussian 16 at Sun Dec 13 13:24:34 2020.

 ----------------------------------------------------------------------
 # B3LYP/6-311++G(d,p) empiricaldispersion=gd3bj scf=xqc pop=npa geom=c
 heck
 ----------------------------------------------------------------------

 ------------------------------------
 CID_42669798_JID_8588_Energie_kation
 ------------------------------------
 Structure from the checkpoint file:  "JID_8588.chk"
 Charge =  1 Multiplicity = 2

 SCF Done:  E(UB3LYP) =  -803.088606149     A.U. after   25 cycles
 Normal termination of Gaussian 16 at Sun Dec 13 13:39:53 2020.
 Gaussian 16:  ES64L-G16RevA.03 25-Dec-2016

 ----------------------------------------------------------------------
 # B3LYP/6-311++G(d,p) empiricaldispersion=gd3bj scf=xqc pop=npa geom=c
 heck
 ----------------------------------------------------------------------

 -----------------------------------
 CID_42669798_JID_8588_Energie_anion
 -----------------------------------
 Structure from the checkpoint file:  "JID_8588.chk"
 Charge = -1 Multiplicity = 2

                         Standard orientation:
 ---------------------------------------------------------------------
 Center     Atomic      Atomic             Coordinates (Angstroms)
 Number     Number       Type             X           Y           Z
 ---------------------------------------------------------------------
      1          6           0       -0.705632   -2.532035    1.264321
      2          6           0       -0.668842   -1.973572   -0.169515
      3          6           0       -0.981384   -0.508236   -0.193986
      4          6           0       -2.203723    0.168714   -0.134549
      5          6           0       -1.873570    1.555154   -0.031239
      6          7           0       -0.560502    1.727063   -0.023484
      7          7           0       -0.030500    0.463751   -0.133082
      8          6           0        1.385736    0.319468   -0.117639
      9          6           0        2.046787   -0.334290   -1.157478
     10          6           0        3.433684   -0.465333   -1.116774
     11          6           0        4.181420    0.066817   -0.060321
     12          6           0        3.498070    0.746087    0.957686
     13          6           0        2.112515    0.871083    0.938565
     14          6           0        5.680430   -0.096569   -0.008817
     15          6           0       -2.797123    2.726025    0.057273
     16          6           0       -3.558686   -0.360818   -0.148232
     17          8           0       -4.576955    0.307505   -0.113718
     18          8           0       -3.615453   -1.726303   -0.197219
     19          1           0        0.025414   -2.020960    1.899968
     20          1           0       -0.470037   -3.601637    1.262682
     21          1           0       -1.699184   -2.397905    1.700614
     22          1           0        0.317182   -2.153522   -0.603485
     23          1           0       -1.403998   -2.497128   -0.783948
     24          1           0        1.480639   -0.713007   -2.002084
     25          1           0        3.943930   -0.974470   -1.930153
     26          1           0        4.060363    1.181280    1.779874
     27          1           0        1.583712    1.401665    1.722509
     28          1           0        6.165308    0.792570    0.407735
     29          1           0        5.963883   -0.947701    0.624103
     30          1           0        6.097450   -0.276073   -1.004691
     31          1           0       -3.443654    2.781612   -0.824113
     32          1           0       -3.461604    2.635468    0.922217
     33          1           0       -2.213657    3.646458    0.138990
     34          1           0       -4.567554   -1.936921   -0.202540
 ---------------------------------------------------------------------

 SCF Done:  E(UB3LYP) =  -803.384681927     A.U. after   33 cycles
 SCF Done:  E(UB3LYP) =  -803.384681927     a.u. after    1 cycles

 The electronic state is 2-A.
 Alpha  occ. eigenvalues --  -19.04864 -18.97939 -14.26700 -14.20713 -10.17115
 Alpha  occ. eigenvalues --  -10.09059 -10.08827 -10.08631 -10.06829 -10.06451
 Alpha  occ. eigenvalues --  -10.06421 -10.06357 -10.06254 -10.06245 -10.06187
 Alpha  occ. eigenvalues --  -10.05857 -10.04926 -10.04902  -0.98435  -0.92831
 Alpha  occ. eigenvalues --   -0.89082  -0.76361  -0.72663  -0.69783  -0.65841
 Alpha  occ. eigenvalues --   -0.63946  -0.63613  -0.61186  -0.57859  -0.54262
 Alpha  occ. eigenvalues --   -0.51917  -0.50474  -0.48334  -0.45636  -0.44181
 Alpha  occ. eigenvalues --   -0.40004  -0.37859  -0.37182  -0.36711  -0.35711
 Alpha  occ. eigenvalues --   -0.34254  -0.33471  -0.33082  -0.32138  -0.31930
 Alpha  occ. eigenvalues --   -0.31660  -0.31517  -0.30022  -0.29150  -0.28569
 Alpha  occ. eigenvalues --   -0.28326  -0.27404  -0.26421  -0.25118  -0.24783
 Alpha  occ. eigenvalues --   -0.24219  -0.23668  -0.23189  -0.20758  -0.17796
 Alpha  occ. eigenvalues --   -0.16187  -0.15672  -0.14824  -0.13214  -0.11879
 Alpha  occ. eigenvalues --    0.04567
 Alpha virt. eigenvalues --    0.06808   0.07600   0.08563   0.08732   0.08825
 Alpha virt. eigenvalues --    0.08881   0.09257   0.09657   0.10434   0.10697
 Alpha virt. eigenvalues --    0.11851   0.12038   0.12260   0.12706   0.13274

  Beta  occ. eigenvalues --  -19.04832 -18.97782 -14.26663 -14.20704 -10.16947
  Beta  occ. eigenvalues --  -10.08888 -10.08644 -10.08533 -10.06833 -10.06428
  Beta  occ. eigenvalues --  -10.06373 -10.06271 -10.06263 -10.06185 -10.06159
  Beta  occ. eigenvalues --  -10.05855 -10.04926 -10.04847  -0.98268  -0.92693
  Beta  occ. eigenvalues --   -0.88855  -0.76165  -0.72483  -0.69474  -0.65664
  Beta  occ. eigenvalues --   -0.63836  -0.63491  -0.61125  -0.57652  -0.54041
  Beta  occ. eigenvalues --   -0.51827  -0.50411  -0.48125  -0.45509  -0.44082
  Beta  occ. eigenvalues --   -0.39846  -0.37686  -0.36986  -0.36565  -0.35559
  Beta  occ. eigenvalues --   -0.33926  -0.33338  -0.32945  -0.31941  -0.31763
  Beta  occ. eigenvalues --   -0.31546  -0.31203  -0.29883  -0.29102  -0.28503
  Beta  occ. eigenvalues --   -0.28179  -0.27297  -0.26268  -0.24995  -0.24521
  Beta  occ. eigenvalues --   -0.24098  -0.23596  -0.23098  -0.20201  -0.17768
  Beta  occ. eigenvalues --   -0.16004  -0.15093  -0.14521  -0.12457  -0.11283
  Beta virt. eigenvalues --    0.06862   0.07521   0.08443   0.08569   0.08792
  Beta virt. eigenvalues --    0.09110   0.09383   0.09892   0.10222   0.10496
  Beta virt. eigenvalues --    0.11259   0.11852   0.12050   0.12285   0.12650

 Mulliken charges and spin densities:
               1          2
     1  C    0.231031  -0.813537
     2  C   -0.541317   0.362564
     3  C    0.813380  -0.035382
     4  C   -0.117626  -0.005646
     5  C   -0.689191   0.053487
     6  N    0.027449   0.004479
     7  N    0.430477   0.016564
     8  C   -0.425037   0.121177
     9  C   -0.038653   0.030939
    10  C   -0.316811  -0.028859
    11  C    0.480086   0.120100
    12  C   -0.360228   0.030574
    13  C   -0.401407   0.293023
    14  C    0.301661  -0.850090
    15  C   -0.794970  -0.009868
    16  C    0.105718   0.071669
    17  O   -0.387921   0.052729
    18  O   -0.218530   0.007464
    19  H    0.020458   0.122111
    20  H   -0.307275   0.444763
    21  H    0.067407   0.070779
    22  H   -0.103822   0.204702
    23  H    0.136663   0.049592
    24  H    0.178180  -0.017305
    25  H    0.034311   0.107338
    26  H    0.049314   0.097909
    27  H    0.141146   0.013944
    28  H    0.115955   0.007256
    29  H   -0.220903   0.396158
    30  H    0.103634   0.018506
    31  H    0.167947   0.000201
    32  H    0.157120   0.011866
    33  H    0.129280  -0.001023
    34  H    0.232474   0.051816
 Sum of Mulliken charges =  -1.00000   1.00000

 Dipole moment (field-independent basis, Debye):
    X=             -0.3896    Y=              1.8663    Z=             -1.5963  Tot=              2.4865
 Quadrupole moment (field-independent basis, Debye-Ang):
   XX=           -177.4225   YY=           -140.0161   ZZ=           -120.2726
   XY=             10.9748   XZ=             -4.3572   YZ=              7.4324

 Summary of Natural Population Analysis:

                                       Natural Population
                Natural  -----------------------------------------------
    Atom  No    Charge         Core      Valence    Rydberg      Total
 -----------------------------------------------------------------------
      C    1   -0.27577      0.99965     2.27137    0.00474     3.27577
      C    2   -0.21723      0.99961     2.20911    0.00852     3.21723
      C    3    0.18076      0.99951     1.80772    0.01201     2.81924
      C    4   -0.14441      0.99936     2.13453    0.01052     3.14441
      C    5    0.09824      0.99959     1.88875    0.01343     2.90176
      N    6   -0.16580      0.99970     2.65550    0.01060     3.66580
      N    7   -0.10700      0.99958     2.59527    0.01215     3.60700
      C    8    0.09578      0.99946     1.89313    0.01164     2.90422
      C    9   -0.09427      0.99952     2.08579    0.00896     3.09427
      C   10   -0.10823      0.99952     2.09938    0.00932     3.10823
      C   11    0.01218      0.99952     1.97987    0.00843     2.98782
      C   12   -0.10585      0.99952     2.09731    0.00902     3.10585
      C   13   -0.08642      0.99952     2.07771    0.00919     3.08642
      C   14   -0.29301      0.99964     2.28807    0.00530     3.29301
      C   15   -0.29729      0.99963     2.29329    0.00437     3.29729
      C   16    0.41319      0.99964     1.56383    0.02335     2.58681
      O   17   -0.31566      0.99987     3.31004    0.00575     4.31566
      O   18   -0.35419      0.99988     3.34758    0.00673     4.35419
      H   19    0.09775      0.00000     0.40121    0.00104     0.40225
      H   20    0.09679      0.00000     0.40164    0.00156     0.40321
      H   21    0.09936      0.00000     0.39946    0.00118     0.40064
      H   22    0.10813      0.00000     0.39040    0.00147     0.39187
      H   23    0.11193      0.00000     0.38676    0.00131     0.38807
      H   24    0.10239      0.00000     0.39668    0.00093     0.39761
      H   25    0.09543      0.00000     0.40373    0.00084     0.40457
      H   26    0.09522      0.00000     0.40394    0.00084     0.40478
      H   27    0.10610      0.00000     0.39287    0.00103     0.39390
      H   28    0.09834      0.00000     0.40094    0.00073     0.40166
      H   29    0.10711      0.00000     0.39080    0.00209     0.39289
      H   30    0.09772      0.00000     0.40156    0.00072     0.40228
      H   31    0.10677      0.00000     0.39228    0.00095     0.39323
      H   32    0.10722      0.00000     0.39183    0.00095     0.39278
      H   33    0.10126      0.00000     0.39774    0.00099     0.39874
      H   34    0.23345      0.00000     0.26271    0.00384     0.26655
 =======================================================================
   * Total *    0.00000     17.99272    46.81279    0.19449    65.00000

 Normal termination of Gaussian 16 at Sun Dec 13 13:58:57 2020.
