 Gaussian 16, Revision A.03,

 -----------------------------------------------------------
 # opt freq B3LYP/6-31G(d) empiricaldispersion=gd3bj scf=xqc
 -----------------------------------------------------------

 -------------------------------
 CID_151492091_JID_3794_neutraal
 -------------------------------
 Symbolic Z-matrix:
 Charge =  0 Multiplicity = 1

 SCF Done:  E(RB3LYP) =  -591.440031564     A.U. after   17 cycles
 SCF Done:  E(RB3LYP) =  -591.444204503     A.U. after   14 cycles
 SCF Done:  E(RB3LYP) =  -591.443616899     A.U. after   13 cycles
 SCF Done:  E(RB3LYP) =  -591.444853208     A.U. after   13 cycles
 SCF Done:  E(RB3LYP) =  -591.444923550     A.U. after   11 cycles
 SCF Done:  E(RB3LYP) =  -591.444963666     A.U. after   12 cycles
 SCF Done:  E(RB3LYP) =  -591.445017945     A.U. after   13 cycles
 SCF Done:  E(RB3LYP) =  -591.445069905     A.U. after   13 cycles
 SCF Done:  E(RB3LYP) =  -591.445076615     A.U. after   14 cycles
 SCF Done:  E(RB3LYP) =  -591.445103442     A.U. after   14 cycles
 SCF Done:  E(RB3LYP) =  -591.445553940     A.U. after    9 cycles
 SCF Done:  E(RB3LYP) =  -591.445555344     A.U. after   11 cycles
 SCF Done:  E(RB3LYP) =  -591.445555593     A.U. after   10 cycles
 SCF Done:  E(RB3LYP) =  -591.445555585     A.U. after    8 cycles
 SCF Done:  E(RB3LYP) =  -591.445555586     A.U. after    8 cycles
 Optimization completed.
    -- Stationary point found.
 Normal termination of Gaussian 16 at Mon Dec 14 16:42:14 2020.

 --------------------------------------------------------------------
 #N Geom=AllCheck Guess=TCheck SCRF=Check GenChk RB3LYP/6-31G(d) Freq
 --------------------------------------------------------------------

 Structure from the checkpoint file:  "JID_3794.chk"
 -------------------------------
 CID_151492091_JID_3794_neutraal
 -------------------------------
 Charge =  0 Multiplicity = 1

 SCF Done:  E(RB3LYP) =  -591.445555586     A.U. after    1 cycles

  Exact polarizability: 142.793   3.409 123.900   6.985   3.030  90.010
 Approx polarizability: 191.580  13.799 200.507  23.240  13.766 141.310

                      1                      2                      3
                      A                      A                      A
 Frequencies --     15.3422                28.0793                45.8861
 Red. masses --      5.3181                 9.2765                 3.6779
 Frc consts  --      0.0007                 0.0043                 0.0046
 IR Inten    --      0.2780                 1.1313                 0.1232

                      4                      5                      6
                      A                      A                      A
 Frequencies --     54.5758                68.7843                92.1959
 Red. masses --      4.1030                 2.9098                 3.5260
 Frc consts  --      0.0072                 0.0081                 0.0177
 IR Inten    --      0.1516                 0.2112                 0.1661

                      7                      8                      9
                      A                      A                      A
 Frequencies --    120.7130               157.3983               182.6644
 Red. masses --      3.6820                 8.8345                 1.6405
 Frc consts  --      0.0316                 0.1290                 0.0322
 IR Inten    --      0.3860                 0.5147                 0.1514

                     10                     11                     12
                      A                      A                      A
 Frequencies --    232.5181               246.6110               278.1480
 Red. masses --      2.4249                 2.1290                 1.8583
 Frc consts  --      0.0772                 0.0763                 0.0847
 IR Inten    --      0.3569                 1.1388                 0.6150

                     13                     14                     15
                      A                      A                      A
 Frequencies --    312.3079               356.3740               385.6219
 Red. masses --      2.4882                 2.2608                 2.9855
 Frc consts  --      0.1430                 0.1692                 0.2616
 IR Inten    --      0.5037                 0.4228                 1.2745

                     16                     17                     18
                      A                      A                      A
 Frequencies --    419.1091               479.1590               508.8664
 Red. masses --      2.0580                 2.5252                 6.7425
 Frc consts  --      0.2130                 0.3416                 1.0287
 IR Inten    --      0.3520                 0.6571                 0.6150

                     19                     20                     21
                      A                      A                      A
 Frequencies --    540.9708               587.3650               650.2781
 Red. masses --      2.4948                11.4897                 4.6270
 Frc consts  --      0.4302                 2.3355                 1.1528
 IR Inten    --      0.9543                 9.8309                45.0496

                     22                     23                     24
                      A                      A                      A
 Frequencies --    730.2376               740.3640               778.1810
 Red. masses --      1.3310                 3.4025                 1.7479
 Frc consts  --      0.4182                 1.0989                 0.6236
 IR Inten    --     10.9789                22.4400                 2.9932

                     25                     26                     27
                      A                      A                      A
 Frequencies --    840.9247               853.9354               870.9116
 Red. masses --      1.8438                 3.0694                 3.1525
 Frc consts  --      0.7682                 1.3187                 1.4088
 IR Inten    --      4.5623                 3.0974                36.1556

                     28                     29                     30
                      A                      A                      A
 Frequencies --    894.9021               915.0128               958.3949
 Red. masses --      1.9364                 1.8119                 1.7255
 Frc consts  --      0.9137                 0.8938                 0.9338
 IR Inten    --      5.4535                 6.2025                 5.1696

                     31                     32                     33
                      A                      A                      A
 Frequencies --    992.0923              1015.1733              1023.3825
 Red. masses --      1.7958                 1.2586                 1.4343
 Frc consts  --      1.0414                 0.7642                 0.8850
 IR Inten    --      4.1958                23.2553                 5.5987

                     34                     35                     36
                      A                      A                      A
 Frequencies --   1055.3946              1067.3852              1098.5830
 Red. masses --      1.9962                 2.0908                 2.0118
 Frc consts  --      1.3101                 1.4035                 1.4306
 IR Inten    --     17.3513                 6.6988                30.5589

                     37                     38                     39
                      A                      A                      A
 Frequencies --   1118.6186              1139.3027              1166.3185
 Red. masses --      2.1346                 2.0552                 2.2734
 Frc consts  --      1.5737                 1.5717                 1.8221
 IR Inten    --     75.2862                 3.2093                35.3379

                     40                     41                     42
                      A                      A                      A
 Frequencies --   1215.3904              1238.1423              1259.1956
 Red. masses --      1.3641                 1.4751                 1.6785
 Frc consts  --      1.1872                 1.3323                 1.5680
 IR Inten    --     12.2945                 2.9490                19.0456

                     43                     44                     45
                      A                      A                      A
 Frequencies --   1294.7607              1300.1839              1316.8205
 Red. masses --      3.3431                 1.3074                 1.3494
 Frc consts  --      3.3020                 1.3022                 1.3787
 IR Inten    --    356.0459                41.4449                 9.5140

                     46                     47                     48
                      A                      A                      A
 Frequencies --   1338.2415              1347.3810              1358.3683
 Red. masses --      1.2093                 1.2635                 1.2169
 Frc consts  --      1.2760                 1.3515                 1.3229
 IR Inten    --     10.5052                 1.3341                12.7108

                     49                     50                     51
                      A                      A                      A
 Frequencies --   1374.1151              1389.2954              1411.9740
 Red. masses --      1.4544                 1.3463                 1.4245
 Frc consts  --      1.6180                 1.5310                 1.6733
 IR Inten    --      4.7213                11.3676                 4.0007

                     52                     53                     54
                      A                      A                      A
 Frequencies --   1417.8664              1444.2712              1495.4370
 Red. masses --      1.3987                 1.2711                 1.0985
 Frc consts  --      1.6567                 1.5622                 1.4474
 IR Inten    --      2.0980                 4.8492                 7.7523

                     55                     56                     57
                      A                      A                      A
 Frequencies --   1509.1483              1518.3674              1526.1207
 Red. masses --      1.0770                 1.0818                 1.0876
 Frc consts  --      1.4452                 1.4694                 1.4924
 IR Inten    --      1.9145                 5.3316                 3.5608

                     58                     59                     60
                      A                      A                      A
 Frequencies --   1529.0018              1534.7960              1542.4032
 Red. masses --      1.0659                 1.0591                 1.0756
 Frc consts  --      1.4681                 1.4699                 1.5077
 IR Inten    --      5.4854                 6.1603                 3.0469

                     61                     62                     63
                      A                      A                      A
 Frequencies --   1748.2438              1813.0486              2294.6828
 Red. masses --      6.1348                11.5403                13.9904
 Frc consts  --     11.0473                22.3504                43.4037
 IR Inten    --      4.2525               232.2370               480.4083

                     64                     65                     66
                      A                      A                      A
 Frequencies --   3030.8811              3033.5349              3039.2918
 Red. masses --      1.0645                 1.0615                 1.0599
 Frc consts  --      5.7615                 5.7554                 5.7685
 IR Inten    --     21.9806                24.5737                27.5377

                     67                     68                     69
                      A                      A                      A
 Frequencies --   3043.7135              3047.1438              3063.6802
 Red. masses --      1.0509                 1.0498                 1.0968
 Frc consts  --      5.7364                 5.7429                 6.0657
 IR Inten    --      1.4812                31.7875                19.8574

                     70                     71                     72
                      A                      A                      A
 Frequencies --   3069.1694              3076.4114              3080.0177
 Red. masses --      1.1015                 1.0586                 1.0989
 Frc consts  --      6.1130                 5.9033                 6.1422
 IR Inten    --     39.0349                15.3380                39.9674

                     73                     74                     75
                      A                      A                      A
 Frequencies --   3087.9555              3110.0751              3115.9105
 Red. masses --      1.1042                 1.1018                 1.1019
 Frc consts  --      6.2038                 6.2792                 6.3034
 IR Inten    --     79.5551                49.0206                47.2600

                     76                     77                     78
                      A                      A                      A
 Frequencies --   3131.4414              3149.8707              3160.2453
 Red. masses --      1.1050                 1.0908                 1.0886
 Frc consts  --      6.3840                 6.3767                 6.4054
 IR Inten    --      6.6581                 8.4210                29.2458

 - Thermochemistry -
 -------------------
 Temperature   298.150 Kelvin.  Pressure   1.00000 Atm.
 Atom     1 has atomic number  6 and mass  12.00000

 Molecular mass:   181.12151 amu.
 Principal axes and moments of inertia in atomic units:
                           1         2         3
     Eigenvalues --  1481.670655188.231586144.70063
           X            0.99978  -0.02106  -0.00185
           Y            0.02105   0.99977  -0.00490
           Z            0.00195   0.00486   0.99999
 This molecule is an asymmetric top.
 Rotational symmetry number  1.
 Warning -- assumption of classical behavior for rotation
           may cause significant error
 Rotational temperatures (Kelvin)      0.05846     0.01669     0.01410
 Rotational constants (GHZ):           1.21804     0.34785     0.29371
 Zero-point vibrational energy     624921.3 (Joules/Mol)
                                  149.35977 (Kcal/Mol)
 Warning -- explicit consideration of  20 degrees of freedom as
           vibrations may cause significant error
 Vibrational temperatures:     22.07    40.40    66.02    78.52    98.97
          (Kelvin)            132.65   173.68   226.46   262.81   334.54
                              354.82   400.19   449.34   512.74   554.82
                              603.00   689.40   732.15   778.34   845.09
                              935.61  1050.65  1065.22  1119.63  1209.90
                             1228.62  1253.05  1287.56  1316.50  1378.92
                             1427.40  1460.61  1472.42  1518.48  1535.73
                             1580.62  1609.44  1639.20  1678.07  1748.68
                             1781.41  1811.70  1862.87  1870.67  1894.61
                             1925.43  1938.58  1954.39  1977.05  1998.89
                             2031.52  2039.99  2077.98  2151.60  2171.33
                             2184.59  2195.75  2199.89  2208.23  2219.17
                             2515.33  2608.57  3301.54  4360.76  4364.58
                             4372.86  4379.22  4384.16  4407.95  4415.85
                             4426.27  4431.46  4442.88  4474.70  4483.10
                             4505.45  4531.96  4546.89

 Zero-point correction=                           0.238020 (Hartree/Particle)
 Thermal correction to Energy=                    0.252605
 Thermal correction to Enthalpy=                  0.253550
 Thermal correction to Gibbs Free Energy=         0.193086
 Sum of electronic and zero-point Energies=           -591.207536
 Sum of electronic and thermal Energies=              -591.192950
 Sum of electronic and thermal Enthalpies=            -591.192006
 Sum of electronic and thermal Free Energies=         -591.252470

                     E (Thermal)             CV                S
                      KCal/Mol        Cal/Mol-Kelvin    Cal/Mol-Kelvin
 Total                  158.512             51.083            127.257
 Electronic               0.000              0.000              0.000
 Translational            0.889              2.981             41.489
 Rotational               0.889              2.981             32.224
 Vibrational            156.735             45.122             53.544
 Vibration     1          0.593              1.986              7.161
 Vibration     2          0.593              1.984              5.961
 Vibration     3          0.595              1.979              4.987
 Vibration     4          0.596              1.976              4.644
 Vibration     5          0.598              1.969              4.188
 Vibration     6          0.602              1.955              3.613
 Vibration     7          0.609              1.932              3.089
 Vibration     8          0.621              1.894              2.581
 Vibration     9          0.630              1.863              2.301
 Vibration    10          0.653              1.791              1.859
 Vibration    11          0.661              1.768              1.755
 Vibration    12          0.679              1.714              1.545
 Vibration    13          0.701              1.650              1.350
 Vibration    14          0.732              1.562              1.138
 Vibration    15          0.754              1.501              1.017
 Vibration    16          0.782              1.429              0.895
 Vibration    17          0.836              1.296              0.712
 Vibration    18          0.864              1.230              0.636
 Vibration    19          0.896              1.159              0.563
 Vibration    20          0.945              1.059              0.472

 Optimization completed.
    -- Stationary point found.
 Normal termination of Gaussian 16 at Mon Dec 14 16:48:45 2020.

 ----------------------------------------------------------------------
 # B3LYP/6-311++G(d,p) empiricaldispersion=gd3bj scf=xqc pop=npa geom=c
 heck
 ----------------------------------------------------------------------

 ---------------------------------------
 CID_151492091_JID_3794_Energie_neutraal
 ---------------------------------------
 Structure from the checkpoint file:  "JID_3794.chk"
 Charge =  0 Multiplicity = 1

 SCF Done:  E(RB3LYP) =  -591.614680679     A.U. after   16 cycles
 Normal termination of Gaussian 16 at Mon Dec 14 16:52:10 2020.

 ----------------------------------------------------------------------
 # B3LYP/6-311++G(d,p) empiricaldispersion=gd3bj scf=xqc pop=npa geom=c
 heck
 ----------------------------------------------------------------------

 -------------------------------------
 CID_151492091_JID_3794_Energie_kation
 -------------------------------------
 Structure from the checkpoint file:  "JID_3794.chk"
 Charge =  1 Multiplicity = 2

 SCF Done:  E(UB3LYP) =  -591.285803061     A.U. after   25 cycles
 Normal termination of Gaussian 16 at Mon Dec 14 16:59:46 2020.
 Gaussian 16:  ES64L-G16RevA.03 25-Dec-2016

 ----------------------------------------------------------------------
 # B3LYP/6-311++G(d,p) empiricaldispersion=gd3bj scf=xqc pop=npa geom=c
 heck
 ----------------------------------------------------------------------

 ------------------------------------
 CID_151492091_JID_3794_Energie_anion
 ------------------------------------
 Structure from the checkpoint file:  "JID_3794.chk"
 Charge = -1 Multiplicity = 2

                         Standard orientation:
 ---------------------------------------------------------------------
 Center     Atomic      Atomic             Coordinates (Angstroms)
 Number     Number       Type             X           Y           Z
 ---------------------------------------------------------------------
      1          6           0       -4.742450    0.643228   -0.315416
      2          6           0       -3.324787    0.867704   -0.849732
      3          6           0       -2.270376    1.073771    0.248139
      4          6           0       -2.123294   -0.090287    1.240099
      5          6           0       -1.791306   -1.454438    0.594456
      6          6           0       -0.572822   -1.392959   -0.281465
      7          6           0        0.641318   -1.820971    0.069423
      8          6           0        1.874573   -1.644586   -0.783340
      9          6           0        2.732894   -0.531672   -0.211150
     10          8           0        3.736511   -0.678823    0.447508
     11          7           0        2.163713    0.752755   -0.518095
     12          7           0        2.782157    1.719701   -0.031454
     13          7           0        3.275912    2.658730    0.366493
     14          1           0       -4.815048   -0.281917    0.267363
     15          1           0       -5.467708    0.574299   -1.133704
     16          1           0       -5.051577    1.469230    0.336996
     17          1           0       -3.038860    0.020354   -1.487716
     18          1           0       -3.320993    1.748851   -1.504384
     19          1           0       -1.296890    1.267548   -0.220772
     20          1           0       -2.522058    1.980654    0.815087
     21          1           0       -1.323508    0.156794    1.949561
     22          1           0       -3.041433   -0.198979    1.831138
     23          1           0       -1.638776   -2.192852    1.390853
     24          1           0       -2.651757   -1.798847    0.005521
     25          1           0       -0.693844   -0.917487   -1.255189
     26          1           0        0.796458   -2.281480    1.045070
     27          1           0        2.488888   -2.549458   -0.796977
     28          1           0        1.590052   -1.383159   -1.807602
 ---------------------------------------------------------------------

 SCF Done:  E(UB3LYP) =  -591.617668497     A.U. after   33 cycles
 SCF Done:  E(UB3LYP) =  -591.617668497     a.u. after    1 cycles

 The electronic state is 2-A.
 Alpha  occ. eigenvalues --  -18.95628 -14.32980 -14.24192 -14.22280 -10.12512
 Alpha  occ. eigenvalues --  -10.06907 -10.06395 -10.06257 -10.06158 -10.06105
 Alpha  occ. eigenvalues --  -10.05794 -10.05344 -10.04841  -1.00497  -0.90952
 Alpha  occ. eigenvalues --   -0.83098  -0.71340  -0.68695  -0.65265  -0.60808
 Alpha  occ. eigenvalues --   -0.56856  -0.52994  -0.50630  -0.45968  -0.43251
 Alpha  occ. eigenvalues --   -0.38227  -0.38057  -0.37214  -0.36750  -0.35407
 Alpha  occ. eigenvalues --   -0.33482  -0.33056  -0.31995  -0.31313  -0.30001
 Alpha  occ. eigenvalues --   -0.29250  -0.29069  -0.26748  -0.26134  -0.25627
 Alpha  occ. eigenvalues --   -0.24829  -0.23255  -0.22493  -0.21821  -0.21092
 Alpha  occ. eigenvalues --   -0.19730  -0.15122  -0.13972  -0.11704   0.04596
 Alpha virt. eigenvalues --    0.05947   0.07935   0.08572   0.08942   0.09900
 Alpha virt. eigenvalues --    0.09995   0.10474   0.11165   0.11686   0.11904
 Alpha virt. eigenvalues --    0.12387   0.12737   0.13311   0.14402   0.14853

  Beta  occ. eigenvalues --  -18.95272 -14.32631 -14.23793 -14.22455 -10.12148
  Beta  occ. eigenvalues --  -10.06903 -10.06401 -10.06224 -10.06137 -10.06100
  Beta  occ. eigenvalues --  -10.05832 -10.05288 -10.04739  -0.99909  -0.90321
  Beta  occ. eigenvalues --   -0.82851  -0.71268  -0.68558  -0.65126  -0.60613
  Beta  occ. eigenvalues --   -0.56654  -0.52711  -0.50474  -0.45883  -0.43124
  Beta  occ. eigenvalues --   -0.37851  -0.37261  -0.36766  -0.36391  -0.35066
  Beta  occ. eigenvalues --   -0.33248  -0.32552  -0.31738  -0.31007  -0.29581
  Beta  occ. eigenvalues --   -0.29125  -0.28825  -0.26640  -0.26036  -0.24973
  Beta  occ. eigenvalues --   -0.24637  -0.22685  -0.22333  -0.21725  -0.20879
  Beta  occ. eigenvalues --   -0.19629  -0.14601  -0.13127  -0.11376
  Beta virt. eigenvalues --    0.06544   0.08131   0.08648   0.08902   0.09901
  Beta virt. eigenvalues --    0.10186   0.10603   0.10790   0.11233   0.11724
  Beta virt. eigenvalues --    0.12325   0.12695   0.13130   0.13333   0.14479

 Mulliken charges and spin densities:
               1          2
     1  C    0.676821  -1.315002
     2  C   -0.806719   0.621334
     3  C   -0.073611  -0.099363
     4  C    0.134383  -0.450813
     5  C   -0.510984   0.134037
     6  C    0.106510  -0.007301
     7  C    0.155116   0.008960
     8  C   -0.572710   0.036894
     9  C   -0.379383   0.251685
    10  O   -0.361832   0.119831
    11  N    0.517807  -0.093204
    12  N   -0.162676   0.093795
    13  N   -0.417493   0.240456
    14  H   -0.211082   0.358741
    15  H   -0.263858   0.393110
    16  H   -0.128236   0.262128
    17  H    0.198799  -0.060888
    18  H    0.027006   0.112152
    19  H    0.151727   0.006809
    20  H    0.073044   0.066241
    21  H    0.174932  -0.025890
    22  H   -0.090624   0.227832
    23  H    0.116011   0.042038
    24  H    0.098484   0.032517
    25  H    0.142946  -0.026008
    26  H    0.153925  -0.003866
    27  H    0.141391   0.023821
    28  H    0.110305   0.049955
 Sum of Mulliken charges =  -1.00000   1.00000

 Dipole moment (field-independent basis, Debye):
    X=             -2.2337    Y=             -1.8227    Z=             -1.5275  Tot=              3.2626
 Quadrupole moment (field-independent basis, Debye-Ang):
   XX=           -172.8862   YY=           -104.8238   ZZ=            -92.9418
   XY=             -2.9376   XZ=             -3.8867   YZ=             -1.1406

 Summary of Natural Population Analysis:

                                       Natural Population
                Natural  -----------------------------------------------
    Atom  No    Charge         Core      Valence    Rydberg      Total
 -----------------------------------------------------------------------
      C    1   -0.28822      0.99967     2.28332    0.00523     3.28822
      C    2   -0.19313      0.99964     2.18491    0.00858     3.19313
      C    3   -0.19454      0.99963     2.18598    0.00893     3.19454
      C    4   -0.18571      0.99963     2.17767    0.00842     3.18571
      C    5   -0.20810      0.99962     2.19773    0.01075     3.20810
      C    6   -0.07756      0.99951     2.06783    0.01022     3.07756
      C    7   -0.07920      0.99950     2.07178    0.00791     3.07920
      C    8   -0.24269      0.99958     2.23471    0.00840     3.24269
      C    9    0.37896      0.99970     1.59692    0.02442     2.62104
      O   10   -0.27969      0.99987     3.27263    0.00719     4.27969
      N   11   -0.25476      0.99968     2.74083    0.01425     3.75476
      N   12    0.16226      0.99971     2.32123    0.01680     3.33774
      N   13    0.01388      0.99981     2.47360    0.01270     3.48612
      H   14    0.09730      0.00000     0.40154    0.00116     0.40270
      H   15    0.09720      0.00000     0.40187    0.00094     0.40280
      H   16    0.09552      0.00000     0.40332    0.00115     0.40448
      H   17    0.09273      0.00000     0.40610    0.00117     0.40727
      H   18    0.09371      0.00000     0.40536    0.00093     0.40629
      H   19    0.10478      0.00000     0.39403    0.00119     0.39522
      H   20    0.09385      0.00000     0.40528    0.00087     0.40615
      H   21    0.09814      0.00000     0.40086    0.00100     0.40186
      H   22    0.09373      0.00000     0.40519    0.00108     0.40627
      H   23    0.09816      0.00000     0.40079    0.00105     0.40184
      H   24    0.09601      0.00000     0.40295    0.00104     0.40399
      H   25    0.08821      0.00000     0.41054    0.00125     0.41179
      H   26    0.08806      0.00000     0.41087    0.00106     0.41194
      H   27    0.10484      0.00000     0.39392    0.00124     0.39516
      H   28    0.10625      0.00000     0.39238    0.00137     0.39375
 =======================================================================
   * Total *    0.00000     12.99554    35.84415    0.16031    49.00000

 Normal termination of Gaussian 16 at Mon Dec 14 17:09:51 2020.
