 Gaussian 16, Revision A.03,

 -----------------------------------------------------------
 # opt freq B3LYP/6-31G(d) empiricaldispersion=gd3bj scf=xqc
 -----------------------------------------------------------

 -------------------------------
 CID_151290756_JID_7501_neutraal
 -------------------------------
 Symbolic Z-matrix:
 Charge =  0 Multiplicity = 1

 SCF Done:  E(RB3LYP) =  -742.727840368     A.U. after   15 cycles
 SCF Done:  E(RB3LYP) =  -742.733948950     A.U. after   13 cycles
 SCF Done:  E(RB3LYP) =  -742.735454099     A.U. after   13 cycles
 SCF Done:  E(RB3LYP) =  -742.736666550     A.U. after   14 cycles
 SCF Done:  E(RB3LYP) =  -742.737169045     A.U. after   13 cycles
 SCF Done:  E(RB3LYP) =  -742.737931440     A.U. after   13 cycles
 SCF Done:  E(RB3LYP) =  -742.738618322     A.U. after   13 cycles
 SCF Done:  E(RB3LYP) =  -742.739210543     A.U. after   13 cycles
 SCF Done:  E(RB3LYP) =  -742.739481619     A.U. after   12 cycles
 SCF Done:  E(RB3LYP) =  -742.739683434     A.U. after   12 cycles
 SCF Done:  E(RB3LYP) =  -742.741734952     A.U. after   11 cycles
 SCF Done:  E(RB3LYP) =  -742.742303785     A.U. after   12 cycles
 SCF Done:  E(RB3LYP) =  -742.742343855     A.U. after   11 cycles
 SCF Done:  E(RB3LYP) =  -742.742393176     A.U. after   11 cycles
 SCF Done:  E(RB3LYP) =  -742.742394345     A.U. after    8 cycles
 SCF Done:  E(RB3LYP) =  -742.742394519     A.U. after    7 cycles
 Optimization completed.
    -- Stationary point found.
 Normal termination of Gaussian 16 at Fri Dec 11 12:38:46 2020.

 --------------------------------------------------------------------
 #N Geom=AllCheck Guess=TCheck SCRF=Check GenChk RB3LYP/6-31G(d) Freq
 --------------------------------------------------------------------

 Structure from the checkpoint file:  "JID_7501.chk"
 -------------------------------
 CID_151290756_JID_7501_neutraal
 -------------------------------
 Charge =  0 Multiplicity = 1

 SCF Done:  E(RB3LYP) =  -742.742394519     A.U. after    1 cycles

  Exact polarizability: 218.981  -6.716 152.862   6.952  20.612  94.639
 Approx polarizability: 330.224  -0.183 262.897  18.414  51.178 163.307

                      1                      2                      3
                      A                      A                      A
 Frequencies --     61.5387                71.7313                74.1505
 Red. masses --      4.9633                 5.8357                 4.5923
 Frc consts  --      0.0111                 0.0177                 0.0149
 IR Inten    --      0.5947                 2.0450                 0.8436

                      4                      5                      6
                      A                      A                      A
 Frequencies --     87.9022               119.2362               167.9148
 Red. masses --      4.6640                 5.0703                 4.3992
 Frc consts  --      0.0212                 0.0425                 0.0731
 IR Inten    --      0.1824                 0.9131                 4.2610

                      7                      8                      9
                      A                      A                      A
 Frequencies --    201.1195               205.6645               255.7755
 Red. masses --      3.6684                 5.2166                 3.7376
 Frc consts  --      0.0874                 0.1300                 0.1441
 IR Inten    --      1.3006                 0.8116                 4.5306

                     10                     11                     12
                      A                      A                      A
 Frequencies --    284.5537               305.7777               309.0335
 Red. masses --      2.9475                 3.8184                 1.8196
 Frc consts  --      0.1406                 0.2103                 0.1024
 IR Inten    --      0.4923                 1.6077                12.8191

                     13                     14                     15
                      A                      A                      A
 Frequencies --    332.8870               419.7712               423.0450
 Red. masses --      4.2183                 4.0761                 3.0632
 Frc consts  --      0.2754                 0.4232                 0.3230
 IR Inten    --      5.5906                 3.7530                 2.9026

                     16                     17                     18
                      A                      A                      A
 Frequencies --    433.9096               443.0987               491.8128
 Red. masses --      3.5113                 1.1820                 3.3802
 Frc consts  --      0.3895                 0.1367                 0.4817
 IR Inten    --      4.7334                46.4341                10.1144

                     19                     20                     21
                      A                      A                      A
 Frequencies --    531.8852               564.6056               590.6653
 Red. masses --      3.9363                 2.8167                 1.9724
 Frc consts  --      0.6561                 0.5290                 0.4054
 IR Inten    --      4.5847                24.8359                39.7082

                     22                     23                     24
                      A                      A                      A
 Frequencies --    605.3604               613.3537               636.8388
 Red. masses --      3.7115                 3.1433                 4.9688
 Frc consts  --      0.8014                 0.6967                 1.1873
 IR Inten    --     20.4893                67.3620                 6.9118

                     25                     26                     27
                      A                      A                      A
 Frequencies --    649.6642               680.8122               689.6358
 Red. masses --      3.4004                 2.6246                 2.5395
 Frc consts  --      0.8456                 0.7167                 0.7116
 IR Inten    --     19.5758               142.6152                88.0799

                     28                     29                     30
                      A                      A                      A
 Frequencies --    715.8184               731.1251               775.7643
 Red. masses --      2.4668                 2.6953                 1.5970
 Frc consts  --      0.7447                 0.8489                 0.5663
 IR Inten    --     46.2162                11.2602                74.5396

                     31                     32                     33
                      A                      A                      A
 Frequencies --    786.5373               786.8583               816.4806
 Red. masses --      3.8894                 2.5068                 3.9590
 Frc consts  --      1.4177                 0.9145                 1.5550
 IR Inten    --      7.7699                12.9240                30.3701

                     34                     35                     36
                      A                      A                      A
 Frequencies --    868.6523               874.3464               928.1844
 Red. masses --      1.2506                 1.3919                 4.0073
 Frc consts  --      0.5560                 0.6269                 2.0341
 IR Inten    --      0.3449                 3.3978                 7.6578

                     37                     38                     39
                      A                      A                      A
 Frequencies --    941.2908               965.2247               969.1188
 Red. masses --      1.4993                 1.2629                 1.6958
 Frc consts  --      0.7827                 0.6932                 0.9384
 IR Inten    --      5.6256                 1.0068               203.2390

                     40                     41                     42
                      A                      A                      A
 Frequencies --    979.4646              1002.5895              1021.2560
 Red. masses --      1.3314                 1.2569                 6.1181
 Frc consts  --      0.7526                 0.7444                 3.7595
 IR Inten    --      0.2390                 0.9240                 0.9384

                     43                     44                     45
                      A                      A                      A
 Frequencies --   1059.9640              1080.7056              1108.3219
 Red. masses --      2.4114                 2.7058                 1.9627
 Frc consts  --      1.5962                 1.8620                 1.4205
 IR Inten    --      3.5776                 2.7709                 4.4670

                     46                     47                     48
                      A                      A                      A
 Frequencies --   1120.3485              1147.6770              1185.7951
 Red. masses --      1.7332                 2.3686                 1.3557
 Frc consts  --      1.2817                 1.8382                 1.1232
 IR Inten    --      1.1183                 1.5531                20.8409

                     49                     50                     51
                      A                      A                      A
 Frequencies --   1195.0137              1219.3008              1221.5203
 Red. masses --      1.0959                 1.1602                 1.3931
 Frc consts  --      0.9221                 1.0162                 1.2247
 IR Inten    --      0.0132                 0.8449                 0.3538

                     52                     53                     54
                      A                      A                      A
 Frequencies --   1250.0595              1308.2942              1339.5824
 Red. masses --      2.8479                 2.1111                 2.8199
 Frc consts  --      2.6220                 2.1290                 2.9814
 IR Inten    --      4.7076                 7.3166                 8.0795

                     55                     56                     57
                      A                      A                      A
 Frequencies --   1355.5307              1362.0959              1367.2122
 Red. masses --      3.8759                 1.5798                 2.5637
 Frc consts  --      4.1961                 1.7270                 2.8236
 IR Inten    --     29.9219                 4.3048                20.6179

                     58                     59                     60
                      A                      A                      A
 Frequencies --   1372.9406              1406.6759              1456.5536
 Red. masses --      1.7982                 2.5058                 1.7640
 Frc consts  --      1.9971                 2.9214                 2.2050
 IR Inten    --      5.1281               146.4681                49.5223

                     61                     62                     63
                      A                      A                      A
 Frequencies --   1484.8707              1511.6306              1514.3188
 Red. masses --      2.3616                 2.6068                 2.8609
 Frc consts  --      3.0678                 3.5095                 3.8654
 IR Inten    --     14.6718                48.1204                 4.4351

                     64                     65                     66
                      A                      A                      A
 Frequencies --   1550.1178              1628.2265              1636.3780
 Red. masses --      2.4369                 4.1712                 5.1893
 Frc consts  --      3.4500                 6.5154                 8.1871
 IR Inten    --      8.9310                16.1608                18.4683

                     67                     68                     69
                      A                      A                      A
 Frequencies --   1646.9043              1664.0247              1685.9965
 Red. masses --      4.8371                 5.5056                 1.6221
 Frc consts  --      7.7299                 8.9821                 2.7167
 IR Inten    --     35.4335                 3.3702               342.3270

                     70                     71                     72
                      A                      A                      A
 Frequencies --   1732.9577              1740.3069              3178.9811
 Red. masses --      1.0749                 3.7243                 1.0870
 Frc consts  --      1.9020                 6.6459                 6.4721
 IR Inten    --     21.4687               146.2606                 8.9931

                     73                     74                     75
                      A                      A                      A
 Frequencies --   3184.1766              3191.5785              3196.5573
 Red. masses --      1.0852                 1.0878                 1.0912
 Frc consts  --      6.4828                 6.5283                 6.5691
 IR Inten    --      3.9157                 4.0919                26.1118

                     76                     77                     78
                      A                      A                      A
 Frequencies --   3200.6686              3209.6042              3214.7355
 Red. masses --      1.0919                 1.0944                 1.0943
 Frc consts  --      6.5905                 6.6426                 6.6632
 IR Inten    --     15.3823                24.2645                16.5579

                     79                     80                     81
                      A                      A                      A
 Frequencies --   3216.8207              3452.4854              3531.0543
 Red. masses --      1.0970                 1.0472                 1.0503
 Frc consts  --      6.6883                 7.3543                 7.7153
 IR Inten    --      9.8779                12.6091                47.8261

                     82                     83                     84
                      A                      A                      A
 Frequencies --   3540.8926              3597.3829              3648.1554
 Red. masses --      1.0954                 1.0771                 1.0965
 Frc consts  --      8.0919                 8.2125                 8.5985
 IR Inten    --      8.2467                36.8159                30.8667

 - Thermochemistry -
 -------------------
 Temperature   298.150 Kelvin.  Pressure   1.00000 Atm.
 Atom     1 has atomic number  6 and mass  12.00000

 Molecular mass:   227.10586 amu.
 Principal axes and moments of inertia in atomic units:
                           1         2         3
     Eigenvalues --  2263.155134616.259185797.09797
           X            0.99997  -0.00800   0.00189
           Y            0.00798   0.99992   0.00952
           Z           -0.00197  -0.00951   0.99995
 This molecule is an asymmetric top.
 Rotational symmetry number  1.
 Warning -- assumption of classical behavior for rotation
           may cause significant error
 Rotational temperatures (Kelvin)      0.03827     0.01876     0.01494
 Rotational constants (GHZ):           0.79744     0.39095     0.31132
 Zero-point vibrational energy     640784.9 (Joules/Mol)
                                  153.15127 (Kcal/Mol)
 Warning -- explicit consideration of  23 degrees of freedom as
           vibrations may cause significant error
 Vibrational temperatures:     88.54   103.21   106.69   126.47   171.55
          (Kelvin)            241.59   289.37   295.91   368.00   409.41
                              439.95   444.63   478.95   603.96   608.67
                              624.30   637.52   707.61   765.26   812.34
                              849.84   870.98   882.48   916.27   934.72
                              979.54   992.23  1029.90  1051.93  1116.15
                             1131.65  1132.11  1174.73  1249.80  1257.99
                             1335.45  1354.31  1388.74  1394.35  1409.23
                             1442.50  1469.36  1525.05  1554.89  1594.63
                             1611.93  1651.25  1706.09  1719.36  1754.30
                             1757.50  1798.56  1882.34  1927.36  1950.31
                             1959.75  1967.11  1975.36  2023.89  2095.66
                             2136.40  2174.90  2178.77  2230.27  2342.65
                             2354.38  2369.53  2394.16  2425.77  2493.34
                             2503.91  4573.84  4581.32  4591.97  4599.13
                             4605.05  4617.90  4625.29  4628.29  4967.36
                             5080.40  5094.55  5175.83  5248.88

 Zero-point correction=                           0.244062 (Hartree/Particle)
 Thermal correction to Energy=                    0.258554
 Thermal correction to Enthalpy=                  0.259499
 Thermal correction to Gibbs Free Energy=         0.202937
 Sum of electronic and zero-point Energies=           -742.498332
 Sum of electronic and thermal Energies=              -742.483840
 Sum of electronic and thermal Enthalpies=            -742.482896
 Sum of electronic and thermal Free Energies=         -742.539457

                     E (Thermal)             CV                S
                      KCal/Mol        Cal/Mol-Kelvin    Cal/Mol-Kelvin
 Total                  162.245             57.605            119.044
 Electronic               0.000              0.000              0.000
 Translational            0.889              2.981             42.163
 Rotational               0.889              2.981             32.471
 Vibrational            160.468             51.644             44.410
 Vibration     1          0.597              1.973              4.407
 Vibration     2          0.598              1.967              4.105
 Vibration     3          0.599              1.966              4.040
 Vibration     4          0.601              1.958              3.706
 Vibration     5          0.609              1.933              3.113
 Vibration     6          0.625              1.882              2.459
 Vibration     7          0.638              1.838              2.123
 Vibration     8          0.640              1.832              2.082
 Vibration     9          0.666              1.753              1.690
 Vibration    10          0.683              1.702              1.506
 Vibration    11          0.696              1.663              1.385
 Vibration    12          0.698              1.657              1.368
 Vibration    13          0.715              1.610              1.246
 Vibration    14          0.782              1.427              0.893
 Vibration    15          0.785              1.420              0.882
 Vibration    16          0.795              1.396              0.846
 Vibration    17          0.803              1.376              0.817
 Vibration    18          0.848              1.268              0.679
 Vibration    19          0.887              1.179              0.583
 Vibration    20          0.920              1.108              0.515
 Vibration    21          0.948              1.052              0.466
 Vibration    22          0.964              1.020              0.441
 Vibration    23          0.973              1.004              0.427

 Optimization completed.
    -- Stationary point found.
 Normal termination of Gaussian 16 at Fri Dec 11 12:51:18 2020.

 ----------------------------------------------------------------------
 # B3LYP/6-311++G(d,p) empiricaldispersion=gd3bj scf=xqc pop=npa geom=c
 heck
 ----------------------------------------------------------------------

 ---------------------------------------
 CID_151290756_JID_7501_Energie_neutraal
 ---------------------------------------
 Structure from the checkpoint file:  "JID_7501.chk"
 Charge =  0 Multiplicity = 1

 SCF Done:  E(RB3LYP) =  -742.956678130     A.U. after   17 cycles
 Normal termination of Gaussian 16 at Fri Dec 11 12:56:11 2020.

 ----------------------------------------------------------------------
 # B3LYP/6-311++G(d,p) empiricaldispersion=gd3bj scf=xqc pop=npa geom=c
 heck
 ----------------------------------------------------------------------

 -------------------------------------
 CID_151290756_JID_7501_Energie_kation
 -------------------------------------
 Structure from the checkpoint file:  "JID_7501.chk"
 Charge =  1 Multiplicity = 2

 SCF Done:  E(UB3LYP) =  -742.674187826     A.U. after   29 cycles
 Normal termination of Gaussian 16 at Fri Dec 11 13:08:36 2020.
 Gaussian 16:  ES64L-G16RevA.03 25-Dec-2016

 ----------------------------------------------------------------------
 # B3LYP/6-311++G(d,p) empiricaldispersion=gd3bj scf=xqc pop=npa geom=c
 heck
 ----------------------------------------------------------------------

 ------------------------------------
 CID_151290756_JID_7501_Energie_anion
 ------------------------------------
 Structure from the checkpoint file:  "JID_7501.chk"
 Charge = -1 Multiplicity = 2

                         Standard orientation:
 ---------------------------------------------------------------------
 Center     Atomic      Atomic             Coordinates (Angstroms)
 Number     Number       Type             X           Y           Z
 ---------------------------------------------------------------------
      1          6           0        3.978742    0.008052   -0.394363
      2          6           0        3.064491   -0.654151   -1.215593
      3          6           0        1.703026   -0.373883   -1.122710
      4          6           0        1.229504    0.575841   -0.203253
      5          6           0        2.160177    1.241124    0.612950
      6          6           0        3.522397    0.958130    0.520243
      7          6           0       -0.218007    0.895686   -0.107987
      8          6           0       -1.200804   -0.116259   -0.102103
      9          6           0       -2.575678    0.229570   -0.142990
     10          6           0       -2.936041    1.587252   -0.086487
     11          6           0       -1.961732    2.574730   -0.043759
     12          6           0       -0.608740    2.240200   -0.070315
     13          7           0       -3.549929   -0.756503   -0.158934
     14          6           0       -0.875902   -1.582341   -0.092741
     15          8           0       -1.342288   -2.360781   -0.931314
     16          7           0       -0.095867   -2.057594    0.920851
     17          7           0        0.321532   -1.383536    2.080832
     18          1           0        5.039412   -0.214347   -0.467059
     19          1           0        3.412315   -1.389256   -1.935723
     20          1           0        0.998916   -0.883488   -1.772708
     21          1           0        1.804512    1.971886    1.334042
     22          1           0        4.225476    1.476441    1.166143
     23          1           0       -3.989949    1.853956   -0.090586
     24          1           0       -2.259589    3.619303   -0.017441
     25          1           0        0.148954    3.015786   -0.104392
     26          1           0       -3.255380   -1.615020   -0.613471
     27          1           0       -4.467510   -0.442340   -0.445348
     28          1           0        0.022210   -3.062925    0.939511
     29          1           0        1.088020   -0.756975    1.835498
     30          1           0       -0.447829   -0.807041    2.417455
 ---------------------------------------------------------------------

 SCF Done:  E(UB3LYP) =  -742.958049625     A.U. after   30 cycles

 The electronic state is 2-A.
 Alpha  occ. eigenvalues --  -18.95255 -14.22640 -14.21207 -14.18835 -10.13221
 Alpha  occ. eigenvalues --  -10.08095 -10.04597 -10.04091 -10.03778 -10.03598
 Alpha  occ. eigenvalues --  -10.03565 -10.03394 -10.03163 -10.03133 -10.02795
 Alpha  occ. eigenvalues --  -10.02502 -10.02272  -0.90929  -0.84848  -0.79206
 Alpha  occ. eigenvalues --   -0.72906  -0.70086  -0.66941  -0.63863  -0.61570
 Alpha  occ. eigenvalues --   -0.60599  -0.58088  -0.51149  -0.49048  -0.47480
 Alpha  occ. eigenvalues --   -0.45240  -0.44830  -0.40335  -0.39293  -0.38902
 Alpha  occ. eigenvalues --   -0.37526  -0.36507  -0.35725  -0.32604  -0.32133
 Alpha  occ. eigenvalues --   -0.31875  -0.29611  -0.29197  -0.28874  -0.27956
 Alpha  occ. eigenvalues --   -0.26660  -0.25075  -0.23788  -0.23548  -0.23102
 Alpha  occ. eigenvalues --   -0.21036  -0.20119  -0.18711  -0.17100  -0.14142
 Alpha  occ. eigenvalues --   -0.13703  -0.12542  -0.12127  -0.10197  -0.07809
 Alpha  occ. eigenvalues --    0.05149
 Alpha virt. eigenvalues --    0.08281   0.08581   0.09531   0.10068   0.10356
 Alpha virt. eigenvalues --    0.11144   0.11261   0.11417   0.11904   0.12122
 Alpha virt. eigenvalues --    0.13373   0.13663   0.14079   0.14493   0.14942

  Beta  occ. eigenvalues --  -18.95147 -14.22601 -14.21200 -14.18841 -10.13105
  Beta  occ. eigenvalues --  -10.08134 -10.04655 -10.04087 -10.03651 -10.03508
  Beta  occ. eigenvalues --  -10.03462 -10.03147 -10.02995 -10.02912 -10.02611
  Beta  occ. eigenvalues --  -10.02541 -10.02090  -0.90723  -0.84743  -0.79173
  Beta  occ. eigenvalues --   -0.72591  -0.69796  -0.66839  -0.63404  -0.61350
  Beta  occ. eigenvalues --   -0.60251  -0.57783  -0.50737  -0.48703  -0.47373
  Beta  occ. eigenvalues --   -0.45044  -0.44662  -0.40227  -0.39210  -0.38775
  Beta  occ. eigenvalues --   -0.37419  -0.36355  -0.35526  -0.32440  -0.31952
  Beta  occ. eigenvalues --   -0.31724  -0.29451  -0.29056  -0.28690  -0.27790
  Beta  occ. eigenvalues --   -0.26124  -0.24661  -0.23548  -0.23078  -0.22888
  Beta  occ. eigenvalues --   -0.20908  -0.19910  -0.18242  -0.16958  -0.13226
  Beta  occ. eigenvalues --   -0.13136  -0.12070  -0.11642  -0.09010  -0.07211
  Beta virt. eigenvalues --    0.08201   0.08513   0.09451   0.09816   0.10053
  Beta virt. eigenvalues --    0.10506   0.11280   0.11365   0.11946   0.12067
  Beta virt. eigenvalues --    0.12120   0.13322   0.13899   0.14367   0.14596

 Mulliken charges and spin densities:
               1          2
     1  C   -0.357148   0.163054
     2  C   -0.348849   0.026591
     3  C   -0.654143   0.088892
     4  C    0.879996   0.085424
     5  C   -0.414164   0.140420
     6  C   -0.357244  -0.057427
     7  C    0.813048   0.135580
     8  C    1.066851   0.216933
     9  C   -0.801145  -0.151599
    10  C   -0.354438   0.101860
    11  C   -0.316491   0.170017
    12  C   -0.590825  -0.114132
    13  N   -0.260408   0.004785
    14  C   -0.632091   0.071353
    15  O   -0.354044   0.039469
    16  N   -0.133649   0.020874
    17  N   -0.432323  -0.031344
    18  H    0.101523  -0.014212
    19  H    0.131346   0.004074
    20  H    0.205643  -0.002445
    21  H    0.106864   0.039573
    22  H    0.106547   0.024931
    23  H    0.083008  -0.013987
    24  H    0.112522  -0.006174
    25  H    0.124572  -0.005686
    26  H    0.266016   0.004553
    27  H    0.227709  -0.000415
    28  H    0.299863   0.008377
    29  H    0.284645   0.003928
    30  H    0.196808   0.046729
 Sum of Mulliken charges =  -1.00000   1.00000

 Dipole moment (field-independent basis, Debye):
    X=             -0.5225    Y=              0.6508    Z=              0.7863  Tot=              1.1466
 Quadrupole moment (field-independent basis, Debye-Ang):
   XX=           -127.4209   YY=           -122.2755   ZZ=           -116.6845
   XY=             -1.7010   XZ=              1.2695   YZ=              0.9522

 Summary of Natural Population Analysis:

                                       Natural Population
                Natural  -----------------------------------------------
    Atom  No    Charge         Core      Valence    Rydberg      Total
 -----------------------------------------------------------------------
      C    1   -0.06789      0.99957     2.05925    0.00907     3.06789
      C    2   -0.10773      0.99957     2.09934    0.00882     3.10773
      C    3   -0.08201      0.99952     2.07392    0.00857     3.08201
      C    4   -0.01334      0.99950     2.00196    0.01188     3.01334
      C    5   -0.08484      0.99953     2.07448    0.01084     3.08484
      C    6   -0.12278      0.99957     2.11375    0.00945     3.12278
      C    7    0.02945      0.99947     1.95940    0.01167     2.97055
      C    8   -0.05890      0.99939     2.04793    0.01159     3.05890
      C    9    0.09402      0.99948     1.89626    0.01024     2.90598
      C   10   -0.10735      0.99953     2.09900    0.00882     3.10735
      C   11   -0.07027      0.99958     2.06163    0.00906     3.07027
      C   12   -0.12762      0.99953     2.12004    0.00805     3.12762
      N   13   -0.40865      0.99970     2.89978    0.00916     3.90865
      C   14    0.35347      0.99961     1.62305    0.02387     2.64653
      O   15   -0.33997      0.99988     3.33417    0.00593     4.33997
      N   16   -0.22495      0.99965     2.71140    0.01390     3.72495
      N   17   -0.32315      0.99977     2.81255    0.01082     3.82315
      H   18    0.08838      0.00000     0.41064    0.00097     0.41162
      H   19    0.09255      0.00000     0.40651    0.00094     0.40745
      H   20    0.10458      0.00000     0.39421    0.00122     0.39542
      H   21    0.09701      0.00000     0.40187    0.00112     0.40299
      H   22    0.09148      0.00000     0.40703    0.00150     0.40852
      H   23    0.08552      0.00000     0.41293    0.00154     0.41448
      H   24    0.08847      0.00000     0.41049    0.00104     0.41153
      H   25    0.09584      0.00000     0.40294    0.00122     0.40416
      H   26    0.20082      0.00000     0.29749    0.00169     0.29918
      H   27    0.17672      0.00000     0.32193    0.00135     0.32328
      H   28    0.18221      0.00000     0.31577    0.00202     0.31779
      H   29    0.18331      0.00000     0.31418    0.00251     0.31669
      H   30    0.17563      0.00000     0.32238    0.00199     0.32437
 =======================================================================
   * Total *   -0.00000     16.99284    42.80631    0.20085    60.00000

 Normal termination of Gaussian 16 at Fri Dec 11 13:20:55 2020.
