 Gaussian 16, Revision A.03,

 -----------------------------------------------------------
 # opt freq B3LYP/6-31G(d) empiricaldispersion=gd3bj scf=xqc
 -----------------------------------------------------------

 ------------------------------
 CID_94770091_JID_7477_neutraal
 ------------------------------
 Symbolic Z-matrix:
 Charge =  0 Multiplicity = 1

 SCF Done:  E(RB3LYP) =  -1039.68486708     A.U. after   14 cycles
 SCF Done:  E(RB3LYP) =  -1039.68686072     A.U. after   13 cycles
 SCF Done:  E(RB3LYP) =  -1039.68268268     A.U. after   14 cycles
 SCF Done:  E(RB3LYP) =  -1039.68844514     A.U. after   12 cycles
 SCF Done:  E(RB3LYP) =  -1039.68869512     A.U. after   13 cycles
 SCF Done:  E(RB3LYP) =  -1039.68849910     A.U. after   14 cycles
 SCF Done:  E(RB3LYP) =  -1039.69000925     A.U. after   12 cycles
 SCF Done:  E(RB3LYP) =  -1039.69077505     A.U. after   11 cycles
 SCF Done:  E(RB3LYP) =  -1039.69089504     A.U. after   11 cycles
 SCF Done:  E(RB3LYP) =  -1039.69101373     A.U. after   11 cycles
 SCF Done:  E(RB3LYP) =  -1039.69139514     A.U. after    9 cycles
 SCF Done:  E(RB3LYP) =  -1039.69139277     A.U. after   10 cycles
 SCF Done:  E(RB3LYP) =  -1039.69139558     A.U. after    9 cycles
 SCF Done:  E(RB3LYP) =  -1039.69139565     A.U. after    7 cycles
 SCF Done:  E(RB3LYP) =  -1039.69139562     A.U. after    7 cycles
 Optimization completed.
    -- Stationary point found.
 Normal termination of Gaussian 16 at Fri Dec 11 12:27:04 2020.

 --------------------------------------------------------------------
 #N Geom=AllCheck Guess=TCheck SCRF=Check GenChk RB3LYP/6-31G(d) Freq
 --------------------------------------------------------------------

 Structure from the checkpoint file:  "JID_7477.chk"
 ------------------------------
 CID_94770091_JID_7477_neutraal
 ------------------------------
 Charge =  0 Multiplicity = 1

 SCF Done:  E(RB3LYP) =  -1039.69139562     A.U. after    1 cycles

  Exact polarizability: 198.907 -20.113 166.396 -11.554  -9.704 165.471
 Approx polarizability: 269.777 -36.582 253.189 -27.544 -26.670 269.472

                      1                      2                      3
                      A                      A                      A
 Frequencies --     27.2355                37.0484                46.6679
 Red. masses --      4.2356                 3.0899                 4.1622
 Frc consts  --      0.0019                 0.0025                 0.0053
 IR Inten    --      0.0721                 0.0558                 0.3978

                      4                      5                      6
                      A                      A                      A
 Frequencies --     59.9397                95.2018                99.5891
 Red. masses --      4.6437                 3.4910                 3.2572
 Frc consts  --      0.0098                 0.0186                 0.0190
 IR Inten    --      0.8241                 4.1323                 1.8933

                      7                      8                      9
                      A                      A                      A
 Frequencies --    128.2856               161.1649               174.2758
 Red. masses --      2.8958                 2.9404                 2.2279
 Frc consts  --      0.0281                 0.0450                 0.0399
 IR Inten    --      2.0718                 1.2180                 1.8146

                     10                     11                     12
                      A                      A                      A
 Frequencies --    182.9357               218.4775               233.6137
 Red. masses --      1.7669                 1.7379                 1.2757
 Frc consts  --      0.0348                 0.0489                 0.0410
 IR Inten    --      0.3775                 0.1847                 0.1752

                     13                     14                     15
                      A                      A                      A
 Frequencies --    252.6050               265.9668               274.9706
 Red. masses --      2.4022                 2.1935                 1.1419
 Frc consts  --      0.0903                 0.0914                 0.0509
 IR Inten    --      5.2124                 6.0081                 0.1417

                     16                     17                     18
                      A                      A                      A
 Frequencies --    286.2569               300.1204               323.0448
 Red. masses --      2.2925                 2.7452                 2.3272
 Frc consts  --      0.1107                 0.1457                 0.1431
 IR Inten    --      0.7076                 0.0526                 0.8123

                     19                     20                     21
                      A                      A                      A
 Frequencies --    332.5833               338.5691               354.2344
 Red. masses --      1.1133                 1.2139                 2.2883
 Frc consts  --      0.0726                 0.0820                 0.1692
 IR Inten    --      5.5485                46.0941                 1.7961

                     22                     23                     24
                      A                      A                      A
 Frequencies --    360.5824               390.9379               411.6831
 Red. masses --      2.4823                 2.9953                 2.4422
 Frc consts  --      0.1902                 0.2697                 0.2439
 IR Inten    --      0.1290                 3.0253                 0.7496

                     25                     26                     27
                      A                      A                      A
 Frequencies --    423.3891               460.4304               482.9268
 Red. masses --      2.8169                 2.3315                 3.1760
 Frc consts  --      0.2975                 0.2912                 0.4364
 IR Inten    --      1.0775                10.4557                 4.4336

                     28                     29                     30
                      A                      A                      A
 Frequencies --    494.4141               521.9943               565.5487
 Red. masses --      2.7426                 2.8201                 3.5344
 Frc consts  --      0.3950                 0.4527                 0.6660
 IR Inten    --      0.9976                 1.1018                 1.8275

                     31                     32                     33
                      A                      A                      A
 Frequencies --    640.6695               659.5066               672.2432
 Red. masses --      4.0931                 3.3716                 4.7524
 Frc consts  --      0.9899                 0.8640                 1.2654
 IR Inten    --      1.7759                 1.6588                 3.5120

                     34                     35                     36
                      A                      A                      A
 Frequencies --    679.4317               745.4479               750.9714
 Red. masses --      4.4167                 2.7480                 4.0736
 Frc consts  --      1.2013                 0.8997                 1.3535
 IR Inten    --      1.4608                 2.6756                 0.7438

                     37                     38                     39
                      A                      A                      A
 Frequencies --    816.9734               830.4050               841.2638
 Red. masses --      1.9254                 2.5615                 1.3698
 Frc consts  --      0.7572                 1.0407                 0.5712
 IR Inten    --      3.9093                 0.0848                11.5425

                     40                     41                     42
                      A                      A                      A
 Frequencies --    884.2663               908.2067               912.7859
 Red. masses --      1.9084                 1.5746                 1.8026
 Frc consts  --      0.8792                 0.7652                 0.8849
 IR Inten    --      3.6721                43.0552                10.2715

                     43                     44                     45
                      A                      A                      A
 Frequencies --    937.8757               939.6947               946.5785
 Red. masses --      1.7641                 1.8085                 1.8327
 Frc consts  --      0.9143                 0.9409                 0.9675
 IR Inten    --     35.5574                 1.5561                 2.6332

                     46                     47                     48
                      A                      A                      A
 Frequencies --    954.4391               957.2095               971.6583
 Red. masses --      1.6249                 1.4114                 1.9126
 Frc consts  --      0.8721                 0.7619                 1.0639
 IR Inten    --      1.5170                 0.3580                 7.3599

                     49                     50                     51
                      A                      A                      A
 Frequencies --    975.1860              1023.7716              1032.9680
 Red. masses --      1.1992                 2.0118                 1.7501
 Frc consts  --      0.6719                 1.2424                 1.1003
 IR Inten    --      0.2773                 1.4947                 7.0210

                     52                     53                     54
                      A                      A                      A
 Frequencies --   1053.2226              1061.1856              1064.7571
 Red. masses --      1.8837                 1.4074                 1.3897
 Frc consts  --      1.2311                 0.9338                 0.9283
 IR Inten    --     37.1701                 2.2002                 0.0269

                     55                     56                     57
                      A                      A                      A
 Frequencies --   1081.7893              1122.1850              1132.1914
 Red. masses --      1.4956                 1.8409                 2.1667
 Frc consts  --      1.0312                 1.3659                 1.6364
 IR Inten    --      8.2256                 5.0233                 0.7343

                     58                     59                     60
                      A                      A                      A
 Frequencies --   1166.8293              1170.5679              1206.7732
 Red. masses --      1.7867                 1.2562                 1.1823
 Frc consts  --      1.4333                 1.0141                 1.0145
 IR Inten    --      4.6188                 1.1000                 7.0246

                     61                     62                     63
                      A                      A                      A
 Frequencies --   1226.1047              1231.6122              1243.5734
 Red. masses --      1.4636                 1.5382                 2.6967
 Frc consts  --      1.2964                 1.3747                 2.4572
 IR Inten    --      0.8884                 3.6585                 3.2094

                     64                     65                     66
                      A                      A                      A
 Frequencies --   1248.6231              1252.7621              1266.6374
 Red. masses --      2.5625                 1.3286                 1.9176
 Frc consts  --      2.3538                 1.2285                 1.8127
 IR Inten    --      2.0924                 1.7237                 1.5229

                     67                     68                     69
                      A                      A                      A
 Frequencies --   1309.8412              1326.7657              1338.0930
 Red. masses --      2.6847                 1.3673                 1.5028
 Frc consts  --      2.7139                 1.4181                 1.5853
 IR Inten    --     18.6420                16.1207                 4.4849

                     70                     71                     72
                      A                      A                      A
 Frequencies --   1344.8736              1358.2350              1370.2078
 Red. masses --      1.6874                 2.2582                 1.1635
 Frc consts  --      1.7982                 2.4545                 1.2870
 IR Inten    --      5.1584                 3.5527                 7.3982

                     73                     74                     75
                      A                      A                      A
 Frequencies --   1386.4932              1424.9471              1426.6122
 Red. masses --      1.3966                 1.2796                 1.2158
 Frc consts  --      1.5818                 1.5308                 1.4579
 IR Inten    --      2.9093                 5.4504                 3.6663

                     76                     77                     78
                      A                      A                      A
 Frequencies --   1440.8401              1446.0379              1458.2522
 Red. masses --      1.3902                 1.2602                 1.2797
 Frc consts  --      1.7005                 1.5526                 1.6033
 IR Inten    --      9.4340                 1.1777                 3.2726

                     79                     80                     81
                      A                      A                      A
 Frequencies --   1461.1752              1482.1031              1499.2027
 Red. masses --      2.4437                 1.0999                 1.0855
 Frc consts  --      3.0740                 1.4235                 1.4374
 IR Inten    --      5.8574                 5.1277                 1.4623

                     82                     83                     84
                      A                      A                      A
 Frequencies --   1512.0417              1513.1667              1516.7118
 Red. masses --      1.0505                 1.1070                 1.0461
 Frc consts  --      1.4151                 1.4934                 1.4178
 IR Inten    --      0.0201                 2.4234                 0.3003

                     85                     86                     87
                      A                      A                      A
 Frequencies --   1520.6852              1527.5069              1527.8839
 Red. masses --      1.0589                 1.0744                 1.0861
 Frc consts  --      1.4427                 1.4770                 1.4938
 IR Inten    --      0.5337                 6.6176                 1.9646

                     88                     89                     90
                      A                      A                      A
 Frequencies --   1532.0473              1536.4468              1537.9320
 Red. masses --      1.0971                 1.0764                 1.0534
 Frc consts  --      1.5172                 1.4971                 1.4680
 IR Inten    --     14.4656                 1.7770                 5.0281

                     91                     92                     93
                      A                      A                      A
 Frequencies --   1549.7839              1558.4649              1628.4043
 Red. masses --      1.1206                 2.1367                 5.4755
 Frc consts  --      1.5858                 3.0576                 8.5546
 IR Inten    --      3.2346                27.6951                 3.3289

                     94                     95                     96
                      A                      A                      A
 Frequencies --   1674.5863              1691.3042              2982.0726
 Red. masses --      5.8921                 1.0870                 1.0704
 Frc consts  --      9.7349                 1.8320                 5.6082
 IR Inten    --      3.9988                51.1598                80.6695

                     97                     98                     99
                      A                      A                      A
 Frequencies --   3033.2283              3038.7212              3042.5024
 Red. masses --      1.0648                 1.0408                 1.0354
 Frc consts  --      5.7718                 5.6626                 5.6472
 IR Inten    --     26.2471                29.0376                25.8092

                    100                    101                    102
                      A                      A                      A
 Frequencies --   3044.5154              3051.7595              3061.4033
 Red. masses --      1.0351                 1.0364                 1.0914
 Frc consts  --      5.6528                 5.6868                 6.0265
 IR Inten    --     24.8526                28.6604                26.3189

                    103                    104                    105
                      A                      A                      A
 Frequencies --   3080.0858              3089.0037              3091.0241
 Red. masses --      1.0660                 1.0681                 1.0971
 Frc consts  --      5.9586                 6.0045                 6.1761
 IR Inten    --     35.6697                19.8959                14.1761

                    106                    107                    108
                      A                      A                      A
 Frequencies --   3097.5424              3107.4682              3110.2470
 Red. masses --      1.0974                 1.1023                 1.1022
 Frc consts  --      6.2037                 6.2716                 6.2819
 IR Inten    --     16.9098                12.8696                 4.5067

                    109                    110                    111
                      A                      A                      A
 Frequencies --   3116.8501              3117.7189              3121.1096
 Red. masses --      1.1025                 1.1016                 1.1016
 Frc consts  --      6.3107                 6.3088                 6.3225
 IR Inten    --     33.4124                87.0404                20.5944

                    112                    113                    114
                      A                      A                      A
 Frequencies --   3124.9258              3127.7938              3161.6614
 Red. masses --      1.1017                 1.1009                 1.0985
 Frc consts  --      6.3388                 6.3455                 6.4696
 IR Inten    --     13.0545                46.1476                 1.6626

                    115                    116                    117
                      A                      A                      A
 Frequencies --   3173.7331              3174.3541              3192.9811
 Red. masses --      1.0913                 1.0951                 1.0886
 Frc consts  --      6.4761                 6.5013                 6.5393
 IR Inten    --     11.6601                13.5719                11.1475

                    118                    119                    120
                      A                      A                      A
 Frequencies --   3220.3863              3465.0548              3547.3936
 Red. masses --      1.0907                 1.0503                 1.0917
 Frc consts  --      6.6647                 7.4299                 8.0945
 IR Inten    --     15.6597                 1.1276                 0.3155

 - Thermochemistry -
 -------------------
 Temperature   298.150 Kelvin.  Pressure   1.00000 Atm.
 Atom     1 has atomic number  6 and mass  12.00000

 Molecular mass:   251.17077 amu.
 Principal axes and moments of inertia in atomic units:
                           1         2         3
     Eigenvalues --  3034.245716566.883007204.98237
           X            0.99962  -0.02732   0.00464
           Y            0.02714   0.99898   0.03607
           Z           -0.00562  -0.03593   0.99934
 This molecule is an asymmetric top.
 Rotational symmetry number  1.
 Warning -- assumption of classical behavior for rotation
           may cause significant error
 Rotational temperatures (Kelvin)      0.02855     0.01319     0.01202
 Rotational constants (GHZ):           0.59479     0.27482     0.25049
 Zero-point vibrational energy     988051.1 (Joules/Mol)
                                  236.14988 (Kcal/Mol)
 Warning -- explicit consideration of  30 degrees of freedom as
           vibrations may cause significant error
 Vibrational temperatures:     39.19    53.30    67.14    86.24   136.97
          (Kelvin)            143.29   184.57   231.88   250.74   263.20
                              314.34   336.12   363.44   382.67   395.62
                              411.86   431.81   464.79   478.51   487.13
                              509.66   518.80   562.47   592.32   609.16
                              662.46   694.82   711.35   751.03   813.70
                              921.78   948.88   967.21   977.55  1072.53
                             1080.48  1175.44  1194.77  1210.39  1272.26
                             1306.71  1313.30  1349.39  1352.01  1361.92
                             1373.23  1377.21  1398.00  1403.08  1472.98
                             1486.21  1515.35  1526.81  1531.95  1556.45
                             1614.57  1628.97  1678.81  1684.19  1736.28
                             1764.09  1772.02  1789.22  1796.49  1802.45
                             1822.41  1884.57  1908.92  1925.22  1934.97
                             1954.20  1971.42  1994.85  2050.18  2052.58
                             2073.05  2080.53  2098.10  2102.31  2132.42
                             2157.02  2175.49  2177.11  2182.21  2187.93
                             2197.74  2198.28  2204.27  2210.60  2212.74
                             2229.79  2242.28  2342.91  2409.36  2433.41
                             4290.54  4364.14  4372.04  4377.48  4380.38
                             4390.80  4404.68  4431.56  4444.39  4447.29
                             4456.67  4470.95  4474.95  4484.45  4485.70
                             4490.58  4496.07  4500.20  4548.93  4566.29
                             4567.19  4593.99  4633.42  4985.44  5103.91

 Zero-point correction=                           0.376329 (Hartree/Particle)
 Thermal correction to Energy=                    0.395619
 Thermal correction to Enthalpy=                  0.396563
 Thermal correction to Gibbs Free Energy=         0.328832
 Sum of electronic and zero-point Energies=          -1039.315067
 Sum of electronic and thermal Energies=             -1039.295777
 Sum of electronic and thermal Enthalpies=           -1039.294833
 Sum of electronic and thermal Free Energies=        -1039.362564

                     E (Thermal)             CV                S
                      KCal/Mol        Cal/Mol-Kelvin    Cal/Mol-Kelvin
 Total                  248.255             74.063            142.552
 Electronic               0.000              0.000              0.000
 Translational            0.889              2.981             42.463
 Rotational               0.889              2.981             33.329
 Vibrational            246.477             68.101             66.760
 Vibration     1          0.593              1.984              6.021
 Vibration     2          0.594              1.982              5.411
 Vibration     3          0.595              1.979              4.954
 Vibration     4          0.597              1.973              4.459
 Vibration     5          0.603              1.953              3.550
 Vibration     6          0.604              1.949              3.462
 Vibration     7          0.611              1.925              2.972
 Vibration     8          0.622              1.890              2.536
 Vibration     9          0.627              1.874              2.389
 Vibration    10          0.630              1.863              2.298
 Vibration    11          0.646              1.813              1.972
 Vibration    12          0.654              1.789              1.851
 Vibration    13          0.664              1.758              1.712
 Vibration    14          0.672              1.735              1.622
 Vibration    15          0.677              1.720              1.565
 Vibration    16          0.684              1.699              1.496
 Vibration    17          0.693              1.673              1.416
 Vibration    18          0.708              1.629              1.295
 Vibration    19          0.715              1.610              1.248
 Vibration    20          0.719              1.598              1.219
 Vibration    21          0.730              1.567              1.147
 Vibration    22          0.735              1.553              1.120
 Vibration    23          0.759              1.490              0.997
 Vibration    24          0.776              1.445              0.921
 Vibration    25          0.786              1.419              0.881
 Vibration    26          0.818              1.338              0.765
 Vibration    27          0.839              1.288              0.702
 Vibration    28          0.850              1.262              0.672
 Vibration    29          0.877              1.201              0.605
 Vibration    30          0.921              1.106              0.513

 Optimization completed.
    -- Stationary point found.
 Normal termination of Gaussian 16 at Fri Dec 11 12:48:33 2020.

 ----------------------------------------------------------------------
 # B3LYP/6-311++G(d,p) empiricaldispersion=gd3bj scf=xqc pop=npa geom=c
 heck
 ----------------------------------------------------------------------

 --------------------------------------
 CID_94770091_JID_7477_Energie_neutraal
 --------------------------------------
 Structure from the checkpoint file:  "JID_7477.chk"
 Charge =  0 Multiplicity = 1

 SCF Done:  E(RB3LYP) =  -1039.89616271     A.U. after   14 cycles
 Normal termination of Gaussian 16 at Fri Dec 11 12:58:58 2020.

 ----------------------------------------------------------------------
 # B3LYP/6-311++G(d,p) empiricaldispersion=gd3bj scf=xqc pop=npa geom=c
 heck
 ----------------------------------------------------------------------

 ------------------------------------
 CID_94770091_JID_7477_Energie_kation
 ------------------------------------
 Structure from the checkpoint file:  "JID_7477.chk"
 Charge =  1 Multiplicity = 2

 SCF Done:  E(UB3LYP) =  -1039.61637379     A.U. after   24 cycles
 Normal termination of Gaussian 16 at Fri Dec 11 13:24:56 2020.
 Gaussian 16:  ES64L-G16RevA.03 25-Dec-2016

 ----------------------------------------------------------------------
 # B3LYP/6-311++G(d,p) empiricaldispersion=gd3bj scf=xqc pop=npa geom=c
 heck
 ----------------------------------------------------------------------

 -----------------------------------
 CID_94770091_JID_7477_Energie_anion
 -----------------------------------
 Structure from the checkpoint file:  "JID_7477.chk"
 Charge = -1 Multiplicity = 2

                         Standard orientation:
 ---------------------------------------------------------------------
 Center     Atomic      Atomic             Coordinates (Angstroms)
 Number     Number       Type             X           Y           Z
 ---------------------------------------------------------------------
      1          6           0       -1.643414    2.849071   -0.163295
      2          6           0       -0.385890    2.018141   -0.079259
      3          6           0       -0.174727    1.067774    0.942155
      4          6           0        0.979079    0.282960    0.916519
      5          6           0        1.944704    0.377173   -0.094894
      6          6           0        1.727788    1.331771   -1.091765
      7          6           0        0.588068    2.136998   -1.072827
      8          6           0        3.151608   -0.568684   -0.082788
      9          6           0        3.932523   -0.399288    1.237836
     10          6           0        2.645163   -2.023656   -0.198057
     11          6           0        4.115086   -0.298050   -1.249506
     12          6           0       -1.200983    0.810465    2.020914
     13          6           0       -2.425854    0.013546    1.538781
     14         16           0       -2.054670   -1.677632    0.909102
     15          6           0       -1.612768   -1.351139   -0.850480
     16          6           0       -2.804033   -1.348293   -1.804491
     17          7           0       -3.782000   -0.315609   -1.435918
     18          1           0       -2.468205    2.265840   -0.594028
     19          1           0       -1.972091    3.210060    0.817461
     20          1           0       -1.487907    3.721879   -0.805332
     21          1           0        1.103781   -0.451764    1.706235
     22          1           0        2.442385    1.460634   -1.896745
     23          1           0        0.445098    2.870453   -1.863270
     24          1           0        3.309081   -0.622233    2.109180
     25          1           0        4.794743   -1.076501    1.260877
     26          1           0        4.300409    0.627428    1.342452
     27          1           0        2.097266   -2.167740   -1.136305
     28          1           0        3.487297   -2.726158   -0.181858
     29          1           0        1.971004   -2.282939    0.624155
     30          1           0        3.626589   -0.439901   -2.219844
     31          1           0        4.517503    0.720458   -1.213870
     32          1           0        4.960789   -0.992627   -1.199348
     33          1           0       -0.728945    0.265075    2.844958
     34          1           0       -1.569896    1.757497    2.438794
     35          1           0       -3.114600   -0.140864    2.376106
     36          1           0       -2.963787    0.551824    0.757940
     37          1           0       -1.076543   -0.403888   -0.903006
     38          1           0       -0.913931   -2.146907   -1.127921
     39          1           0       -2.427154   -1.111488   -2.808069
     40          1           0       -3.236579   -2.361867   -1.850827
     41          1           0       -4.478586   -0.229883   -2.174087
     42          1           0       -4.287092   -0.637733   -0.610919
 ---------------------------------------------------------------------

 SCF Done:  E(UB3LYP) =  -1039.88277286     A.U. after   33 cycles
 SCF Done:  E(UB3LYP) =  -1039.88277286     a.u. after    1 cycles

 The electronic state is 2-A.
 Alpha  occ. eigenvalues --  -88.73861 -14.19691 -10.10172 -10.10027 -10.09837
 Alpha  occ. eigenvalues --  -10.09438 -10.08654 -10.08472 -10.08431 -10.08419
 Alpha  occ. eigenvalues --  -10.07655 -10.07565 -10.07342 -10.07126 -10.07011
 Alpha  occ. eigenvalues --  -10.06902 -10.06787  -7.82468  -5.78856  -5.78489
 Alpha  occ. eigenvalues --   -5.77853  -0.78994  -0.77535  -0.73556  -0.71040
 Alpha  occ. eigenvalues --   -0.67376  -0.66717  -0.63963  -0.60187  -0.59720
 Alpha  occ. eigenvalues --   -0.59324  -0.57876  -0.52641  -0.50813  -0.49407
 Alpha  occ. eigenvalues --   -0.47504  -0.44247  -0.40476  -0.40201  -0.39024
 Alpha  occ. eigenvalues --   -0.38260  -0.36409  -0.35529  -0.35220  -0.34626
 Alpha  occ. eigenvalues --   -0.33402  -0.33333  -0.32262  -0.31661  -0.30675
 Alpha  occ. eigenvalues --   -0.30504  -0.29808  -0.29019  -0.28855  -0.28377
 Alpha  occ. eigenvalues --   -0.27889  -0.27788  -0.27318  -0.25717  -0.25343
 Alpha  occ. eigenvalues --   -0.24590  -0.23843  -0.22761  -0.22512  -0.20267
 Alpha  occ. eigenvalues --   -0.15746  -0.15322  -0.14426  -0.12637   0.04080
 Alpha virt. eigenvalues --    0.05607   0.06317   0.06866   0.07645   0.07864
 Alpha virt. eigenvalues --    0.08152   0.08268   0.08395   0.08960   0.09319
 Alpha virt. eigenvalues --    0.09817   0.10082   0.10592   0.10735   0.11118

  Beta  occ. eigenvalues --  -88.73858 -14.19649 -10.10157 -10.10025 -10.09814
  Beta  occ. eigenvalues --  -10.09433 -10.08652 -10.08464 -10.08431 -10.08409
  Beta  occ. eigenvalues --  -10.07648 -10.07553 -10.07337 -10.07111 -10.06990
  Beta  occ. eigenvalues --  -10.06879 -10.06771  -7.82465  -5.78854  -5.78486
  Beta  occ. eigenvalues --   -5.77850  -0.78931  -0.77521  -0.73541  -0.71018
  Beta  occ. eigenvalues --   -0.67348  -0.66698  -0.63931  -0.60149  -0.59685
  Beta  occ. eigenvalues --   -0.59294  -0.57839  -0.52593  -0.50789  -0.49372
  Beta  occ. eigenvalues --   -0.47465  -0.44215  -0.40448  -0.40153  -0.39003
  Beta  occ. eigenvalues --   -0.38214  -0.36378  -0.35502  -0.35196  -0.34596
  Beta  occ. eigenvalues --   -0.33381  -0.33311  -0.32238  -0.31634  -0.30651
  Beta  occ. eigenvalues --   -0.30466  -0.29786  -0.28994  -0.28819  -0.28353
  Beta  occ. eigenvalues --   -0.27863  -0.27765  -0.27293  -0.25697  -0.25322
  Beta  occ. eigenvalues --   -0.24563  -0.23820  -0.22744  -0.22492  -0.20249
  Beta  occ. eigenvalues --   -0.15708  -0.15287  -0.14400  -0.12621
  Beta virt. eigenvalues --    0.05910   0.06448   0.06955   0.07242   0.07829
  Beta virt. eigenvalues --    0.08129   0.08420   0.08526   0.08633   0.09127
  Beta virt. eigenvalues --    0.09683   0.10208   0.10306   0.10760   0.10959

 Mulliken charges and spin densities:
               1          2
     1  C    1.425162  -1.918486
     2  C   -0.490017   0.485636
     3  C    0.274149   0.429652
     4  C   -0.839058   0.318098
     5  C    1.008072  -0.787076
     6  C   -0.698934   0.425281
     7  C    0.545334  -0.826663
     8  C   -0.297960   0.674638
     9  C    0.041279  -0.707303
    10  C    0.159761  -0.808516
    11  C   -0.125212  -0.339358
    12  C   -1.514085   0.825451
    13  C    0.135751  -0.435445
    14  S    0.183073  -0.050456
    15  C   -0.633208   0.551424
    16  C    0.505483  -1.252890
    17  N   -0.400334  -0.004167
    18  H    0.104434   0.130779
    19  H    0.033178   0.100226
    20  H    0.000087   0.135638
    21  H    0.404834  -0.227930
    22  H   -0.149693   0.309685
    23  H   -0.255611   0.425980
    24  H   -0.124444   0.262230
    25  H   -0.135865   0.283768
    26  H    0.074718   0.075354
    27  H   -0.040758   0.178084
    28  H    0.051740   0.093983
    29  H   -0.059370   0.187984
    30  H   -0.030729   0.170512
    31  H    0.001788   0.128954
    32  H   -0.275626   0.444675
    33  H   -0.046202   0.191511
    34  H   -0.094895   0.250969
    35  H   -0.255276   0.474709
    36  H    0.195731  -0.081739
    37  H    0.768386  -0.565015
    38  H    0.271764  -0.049092
    39  H   -0.361447   0.519311
    40  H   -0.203576   0.344627
    41  H   -0.185314   0.446226
    42  H    0.032892   0.188747
 Sum of Mulliken charges =  -1.00000   1.00000

 Dipole moment (field-independent basis, Debye):
    X=              2.0143    Y=              0.9063    Z=              2.6722  Tot=              3.4669
 Quadrupole moment (field-independent basis, Debye-Ang):
   XX=           -207.3280   YY=           -156.5781   ZZ=           -161.3495
   XY=              1.6817   XZ=             -7.3267   YZ=              0.5971

 Summary of Natural Population Analysis:

                                       Natural Population
                Natural  -----------------------------------------------
    Atom  No    Charge         Core      Valence    Rydberg      Total
 -----------------------------------------------------------------------
      C    1   -0.29982      0.99963     2.29443    0.00576     3.29982
      C    2   -0.01774      0.99946     2.00895    0.00933     3.01774
      C    3   -0.01543      0.99947     2.00515    0.01082     3.01543
      C    4   -0.09441      0.99946     2.08620    0.00875     3.09441
      C    5   -0.01034      0.99948     1.99858    0.01228     3.01034
      C    6   -0.10255      0.99950     2.09405    0.00899     3.10255
      C    7   -0.09585      0.99952     2.08707    0.00926     3.09585
      C    8   -0.05282      0.99956     2.04224    0.01103     3.05282
      C    9   -0.27986      0.99963     2.27328    0.00695     3.27986
      C   10   -0.27974      0.99963     2.27309    0.00702     3.27974
      C   11   -0.28674      0.99964     2.27961    0.00750     3.28674
      C   12   -0.20242      0.99958     2.19222    0.01062     3.20242
      C   13   -0.25153      0.99957     2.24136    0.01059     3.25153
      S   14    0.07448      4.99963     2.91029    0.01560     7.92552
      C   15   -0.25286      0.99957     2.24312    0.01017     3.25286
      C   16   -0.09241      0.99962     2.08018    0.01262     3.09241
      N   17   -0.42721      0.99977     2.91604    0.01140     3.92721
      H   18    0.11583      0.00000     0.38261    0.00156     0.38417
      H   19    0.10041      0.00000     0.39857    0.00102     0.39959
      H   20    0.10128      0.00000     0.39788    0.00084     0.39872
      H   21    0.10070      0.00000     0.39751    0.00179     0.39930
      H   22    0.10290      0.00000     0.39599    0.00111     0.39710
      H   23    0.09790      0.00000     0.40084    0.00127     0.40210
      H   24    0.09991      0.00000     0.39921    0.00088     0.40009
      H   25    0.09838      0.00000     0.40077    0.00086     0.40162
      H   26    0.10066      0.00000     0.39860    0.00075     0.39934
      H   27    0.10164      0.00000     0.39735    0.00101     0.39836
      H   28    0.09730      0.00000     0.40186    0.00085     0.40270
      H   29    0.10192      0.00000     0.39700    0.00108     0.39808
      H   30    0.10207      0.00000     0.39688    0.00105     0.39793
      H   31    0.10031      0.00000     0.39872    0.00096     0.39969
      H   32    0.10128      0.00000     0.39781    0.00091     0.39872
      H   33    0.10190      0.00000     0.39685    0.00125     0.39810
      H   34    0.10354      0.00000     0.39520    0.00126     0.39646
      H   35    0.10388      0.00000     0.39498    0.00114     0.39612
      H   36    0.11227      0.00000     0.38534    0.00239     0.38773
      H   37    0.11125      0.00000     0.38546    0.00329     0.38875
      H   38    0.10481      0.00000     0.39389    0.00130     0.39519
      H   39    0.09393      0.00000     0.40457    0.00150     0.40607
      H   40    0.07914      0.00000     0.41903    0.00183     0.42086
      H   41    0.17911      0.00000     0.31746    0.00343     0.32089
      H   42    0.17494      0.00000     0.32255    0.00251     0.32506
 =======================================================================
   * Total *   -0.00000     20.99273    47.80276    0.20452    69.00000

 Normal termination of Gaussian 16 at Fri Dec 11 13:57:53 2020.
