 Gaussian 16, Revision A.03,

 -----------------------------------------------------------
 # opt freq B3LYP/6-31G(d) empiricaldispersion=gd3bj scf=xqc
 -----------------------------------------------------------

 -----------------------------
 CID_20623530_JID_468_neutraal
 -----------------------------
 Symbolic Z-matrix:
 Charge =  0 Multiplicity = 1

 SCF Done:  E(RB3LYP) =  -817.586345683     A.U. after   14 cycles
 SCF Done:  E(RB3LYP) =  -817.591831822     A.U. after   12 cycles
 SCF Done:  E(RB3LYP) =  -817.592516884     A.U. after   12 cycles
 SCF Done:  E(RB3LYP) =  -817.592984067     A.U. after   13 cycles
 SCF Done:  E(RB3LYP) =  -817.592997627     A.U. after   13 cycles
 SCF Done:  E(RB3LYP) =  -817.593303405     A.U. after   11 cycles
 SCF Done:  E(RB3LYP) =  -817.593396831     A.U. after   12 cycles
 SCF Done:  E(RB3LYP) =  -817.593421845     A.U. after   11 cycles
 SCF Done:  E(RB3LYP) =  -817.593440201     A.U. after   10 cycles
 SCF Done:  E(RB3LYP) =  -817.593448787     A.U. after   11 cycles
 SCF Done:  E(RB3LYP) =  -817.593449242     A.U. after    8 cycles
 SCF Done:  E(RB3LYP) =  -817.593449437     A.U. after    7 cycles
 SCF Done:  E(RB3LYP) =  -817.593449545     A.U. after    8 cycles
 Optimization completed.
    -- Stationary point found.
 Normal termination of Gaussian 16 at Mon Dec 14 16:25:14 2020.

 --------------------------------------------------------------------
 #N Geom=AllCheck Guess=TCheck SCRF=Check GenChk RB3LYP/6-31G(d) Freq
 --------------------------------------------------------------------

 Structure from the checkpoint file:  "JID_468.chk"
 -----------------------------
 CID_20623530_JID_468_neutraal
 -----------------------------
 Charge =  0 Multiplicity = 1

 SCF Done:  E(RB3LYP) =  -817.593449545     A.U. after    1 cycles

  Exact polarizability: 133.465  -4.784  89.783  -1.291  -1.192  65.745
 Approx polarizability: 174.140  -4.208 146.943  -5.920  -5.946 102.295

                      1                      2                      3
                      A                      A                      A
 Frequencies --     15.4222                61.2096               101.9722
 Red. masses --      4.6652                 3.9503                 2.1643
 Frc consts  --      0.0007                 0.0087                 0.0133
 IR Inten    --      1.3105                 6.4607                 0.7257

                      4                      5                      6
                      A                      A                      A
 Frequencies --    107.6166               142.0174               207.7012
 Red. masses --      4.4161                 3.8537                 2.6542
 Frc consts  --      0.0301                 0.0458                 0.0675
 IR Inten    --      4.8710                 2.3120                 0.8840

                      7                      8                      9
                      A                      A                      A
 Frequencies --    261.5916               291.2368               343.2298
 Red. masses --      1.4369                 2.5340                 2.8424
 Frc consts  --      0.0579                 0.1266                 0.1973
 IR Inten    --      1.0718                 2.8832                22.3148

                     10                     11                     12
                      A                      A                      A
 Frequencies --    380.7216               392.4983               447.2407
 Red. masses --      4.3458                 1.5589                 3.1993
 Frc consts  --      0.3711                 0.1415                 0.3770
 IR Inten    --      6.4689               129.4793                38.3883

                     13                     14                     15
                      A                      A                      A
 Frequencies --    499.1485               576.2800               640.4152
 Red. masses --      6.3786                 1.4423                 4.5835
 Frc consts  --      0.9363                 0.2822                 1.1076
 IR Inten    --      3.9066                51.7913                 6.5579

                     16                     17                     18
                      A                      A                      A
 Frequencies --    657.5993               709.3670               746.3052
 Red. masses --      3.2432                 4.1332                 4.1349
 Frc consts  --      0.8263                 1.2254                 1.3569
 IR Inten    --     12.9103                 1.2544                11.0872

                     19                     20                     21
                      A                      A                      A
 Frequencies --    787.9977               842.4353               975.1688
 Red. masses --      1.2256                 1.3148                 1.7812
 Frc consts  --      0.4484                 0.5498                 0.9980
 IR Inten    --     10.7410                20.8451                32.3093

                     22                     23                     24
                      A                      A                      A
 Frequencies --    989.0819               995.4895              1035.8690
 Red. masses --      1.8933                 3.8267                 6.3636
 Frc consts  --      1.0913                 2.2343                 4.0231
 IR Inten    --     11.0496                 8.1537                59.5110

                     25                     26                     27
                      A                      A                      A
 Frequencies --   1064.9801              1076.9530              1093.5883
 Red. masses --      4.7771                 1.3253                 1.8642
 Frc consts  --      3.1923                 0.9057                 1.3136
 IR Inten    --     32.5481                 2.2787                 3.7531

                     28                     29                     30
                      A                      A                      A
 Frequencies --   1164.9825              1187.3563              1211.7795
 Red. masses --      1.7657                 1.7213                 1.2916
 Frc consts  --      1.4119                 1.4298                 1.1174
 IR Inten    --     22.9607                 6.7676                22.5443

                     31                     32                     33
                      A                      A                      A
 Frequencies --   1287.2018              1294.2547              1317.0553
 Red. masses --      2.6576                 1.2065                 1.2905
 Frc consts  --      2.5944                 1.1907                 1.3189
 IR Inten    --      8.8053                 1.6919                56.2933

                     34                     35                     36
                      A                      A                      A
 Frequencies --   1363.5383              1410.6538              1425.1541
 Red. masses --      1.6227                 3.3880                 2.7895
 Frc consts  --      1.7775                 3.9722                 3.3382
 IR Inten    --      8.4748                40.7413                 3.9235

                     37                     38                     39
                      A                      A                      A
 Frequencies --   1433.1465              1442.1066              1461.9974
 Red. masses --      1.5037                 1.2449                 3.1351
 Frc consts  --      1.8197                 1.5254                 3.9481
 IR Inten    --    122.8120                 1.0176                36.4455

                     40                     41                     42
                      A                      A                      A
 Frequencies --   1497.3030              1518.4060              1531.1940
 Red. masses --      1.1076                 1.0390                 1.0859
 Frc consts  --      1.4630                 1.4113                 1.5000
 IR Inten    --      4.2330                 4.4414                 0.1811

                     43                     44                     45
                      A                      A                      A
 Frequencies --   1539.5513              1618.0139              3028.3193
 Red. masses --      1.0477                 4.8124                 1.0653
 Frc consts  --      1.4632                 7.4230                 5.7560
 IR Inten    --      4.3394                 7.6815                57.4754

                     46                     47                     48
                      A                      A                      A
 Frequencies --   3049.8597              3072.4120              3081.2076
 Red. masses --      1.0403                 1.0592                 1.0991
 Frc consts  --      5.7012                 5.8910                 6.1479
 IR Inten    --     38.8639                23.0402                29.6207

                     49                     50                     51
                      A                      A                      A
 Frequencies --   3115.9322              3126.7125              3157.1814
 Red. masses --      1.1026                 1.1013                 1.1032
 Frc consts  --      6.3073                 6.3437                 6.4787
 IR Inten    --      8.1818                21.9963                 8.5565

                     52                     53                     54
                      A                      A                      A
 Frequencies --   3256.8482              3645.3835              3729.0881
 Red. masses --      1.0968                 1.0808                 1.0661
 Frc consts  --      6.8544                 8.4618                 8.7349
 IR Inten    --      9.8987                65.1374                13.7608

 - Thermochemistry -
 -------------------
 Temperature   298.150 Kelvin.  Pressure   1.00000 Atm.
 Atom     1 has atomic number  6 and mass  12.00000

 Molecular mass:   158.05138 amu.
 Principal axes and moments of inertia in atomic units:
                           1         2         3
     Eigenvalues --   630.260823193.657933580.13437
           X            0.99995   0.00738   0.00728
           Y           -0.00732   0.99994  -0.00780
           Z           -0.00733   0.00774   0.99994
 This molecule is an asymmetric top.
 Rotational symmetry number  1.
 Warning -- assumption of classical behavior for rotation
           may cause significant error
 Rotational temperatures (Kelvin)      0.13743     0.02712     0.02419
 Rotational constants (GHZ):           2.86348     0.56510     0.50410
 Zero-point vibrational energy     427125.3 (Joules/Mol)
                                  102.08540 (Kcal/Mol)
 Warning -- explicit consideration of  14 degrees of freedom as
           vibrations may cause significant error
 Vibrational temperatures:     22.19    88.07   146.72   154.84   204.33
          (Kelvin)            298.84   376.37   419.02   493.83   547.77
                              564.72   643.48   718.16   829.14   921.41
                              946.14  1020.62  1073.77  1133.75  1212.08
                             1403.05  1423.07  1432.29  1490.38  1532.27
                             1549.50  1573.43  1676.15  1708.34  1743.48
                             1852.00  1862.14  1894.95  1961.83  2029.62
                             2050.48  2061.98  2074.87  2103.49  2154.29
                             2184.65  2203.05  2215.07  2327.96  4357.08
                             4388.07  4420.52  4433.17  4483.13  4498.64
                             4542.48  4685.88  5244.89  5365.33

 Zero-point correction=                           0.162683 (Hartree/Particle)
 Thermal correction to Energy=                    0.173476
 Thermal correction to Enthalpy=                  0.174420
 Thermal correction to Gibbs Free Energy=         0.124291
 Sum of electronic and zero-point Energies=           -817.430766
 Sum of electronic and thermal Energies=              -817.419973
 Sum of electronic and thermal Enthalpies=            -817.419029
 Sum of electronic and thermal Free Energies=         -817.469159

                     E (Thermal)             CV                S
                      KCal/Mol        Cal/Mol-Kelvin    Cal/Mol-Kelvin
 Total                  108.858             38.358            105.506
 Electronic               0.000              0.000              0.000
 Translational            0.889              2.981             41.082
 Rotational               0.889              2.981             30.356
 Vibrational            107.080             32.397             34.068
 Vibration     1          0.593              1.986              7.150
 Vibration     2          0.597              1.973              4.418
 Vibration     3          0.604              1.948              3.416
 Vibration     4          0.606              1.943              3.311
 Vibration     5          0.615              1.911              2.777
 Vibration     6          0.641              1.829              2.064
 Vibration     7          0.669              1.743              1.651
 Vibration     8          0.687              1.690              1.467
 Vibration     9          0.722              1.589              1.197
 Vibration    10          0.750              1.511              1.036
 Vibration    11          0.760              1.486              0.991
 Vibration    12          0.806              1.367              0.804
 Vibration    13          0.855              1.252              0.660
 Vibration    14          0.933              1.083              0.492

                           ! Non-Optimized Parameters !
 Normal termination of Gaussian 16 at Mon Dec 14 16:28:00 2020.

 ----------------------------------------------------------------------
 # B3LYP/6-311++G(d,p) empiricaldispersion=gd3bj scf=xqc pop=npa geom=c
 heck
 ----------------------------------------------------------------------

 -------------------------------------
 CID_20623530_JID_468_Energie_neutraal
 -------------------------------------
 Structure from the checkpoint file:  "JID_468.chk"
 Charge =  0 Multiplicity = 1

 SCF Done:  E(RB3LYP) =  -817.750412956     A.U. after   14 cycles
 Normal termination of Gaussian 16 at Mon Dec 14 16:28:50 2020.

 ----------------------------------------------------------------------
 # B3LYP/6-311++G(d,p) empiricaldispersion=gd3bj scf=xqc pop=npa geom=c
 heck
 ----------------------------------------------------------------------

 -----------------------------------
 CID_20623530_JID_468_Energie_kation
 -----------------------------------
 Structure from the checkpoint file:  "JID_468.chk"
 Charge =  1 Multiplicity = 2

 SCF Done:  E(UB3LYP) =  -817.452854436     A.U. after   21 cycles
 Normal termination of Gaussian 16 at Mon Dec 14 16:30:46 2020.
 Gaussian 16:  ES64L-G16RevA.03 25-Dec-2016

 ----------------------------------------------------------------------
 # B3LYP/6-311++G(d,p) empiricaldispersion=gd3bj scf=xqc pop=npa geom=c
 heck
 ----------------------------------------------------------------------

 ----------------------------------
 CID_20623530_JID_468_Energie_anion
 ----------------------------------
 Structure from the checkpoint file:  "JID_468.chk"
 Charge = -1 Multiplicity = 2

                         Standard orientation:
 ---------------------------------------------------------------------
 Center     Atomic      Atomic             Coordinates (Angstroms)
 Number     Number       Type             X           Y           Z
 ---------------------------------------------------------------------
      1          6           0        3.462047    0.978587    0.233925
      2          6           0        2.891364   -0.338373    0.746283
      3         16           0        1.725234   -1.151349   -0.438042
      4          6           0        0.323352   -0.092705   -0.285321
      5          7           0        0.235917    1.192104   -0.589901
      6          6           0       -1.066785    1.545858   -0.323471
      7          6           0       -1.788797    0.466964    0.137390
      8          7           0       -0.879473   -0.570601    0.167729
      9          6           0       -3.208911    0.276282    0.554048
     10          8           0       -3.790452   -0.890691   -0.029168
     11          1           0        4.025056    0.824473   -0.691926
     12          1           0        4.137528    1.408894    0.984087
     13          1           0        2.657899    1.689803    0.029661
     14          1           0        3.676579   -1.086943    0.897395
     15          1           0        2.365415   -0.210759    1.696824
     16          1           0       -1.416903    2.557543   -0.480911
     17          1           0       -1.084731   -1.526399    0.423894
     18          1           0       -3.289565    0.113474    1.635124
     19          1           0       -3.777319    1.187642    0.318580
     20          1           0       -3.742811   -0.780802   -0.992626
 ---------------------------------------------------------------------

 SCF Done:  E(UB3LYP) =  -817.736554428     A.U. after   33 cycles
 SCF Done:  E(UB3LYP) =  -817.736554428     a.u. after    1 cycles

 The electronic state is 2-A.
 Alpha  occ. eigenvalues --  -88.74577 -19.01111 -14.25494 -14.18830 -10.13700
 Alpha  occ. eigenvalues --  -10.11573 -10.09962 -10.09420 -10.07733 -10.06274
 Alpha  occ. eigenvalues --   -7.83151  -5.79553  -5.79176  -5.78529  -0.91822
 Alpha  occ. eigenvalues --   -0.90391  -0.76584  -0.70866  -0.66002  -0.61055
 Alpha  occ. eigenvalues --   -0.56136  -0.51372  -0.49941  -0.47512  -0.42361
 Alpha  occ. eigenvalues --   -0.37971  -0.35914  -0.34891  -0.34119  -0.33122
 Alpha  occ. eigenvalues --   -0.31675  -0.31007  -0.29466  -0.27668  -0.25585
 Alpha  occ. eigenvalues --   -0.23819  -0.22370  -0.18748  -0.17571  -0.16510
 Alpha  occ. eigenvalues --   -0.14939  -0.11232   0.04938
 Alpha virt. eigenvalues --    0.06247   0.08540   0.08858   0.08947   0.10104
 Alpha virt. eigenvalues --    0.10305   0.10467   0.11748   0.12546   0.13014
 Alpha virt. eigenvalues --    0.13739   0.14708   0.15012   0.15518   0.16249

  Beta  occ. eigenvalues --  -88.74574 -19.01036 -14.25397 -14.18816 -10.13645
  Beta  occ. eigenvalues --  -10.11527 -10.09879 -10.09404 -10.07723 -10.06266
  Beta  occ. eigenvalues --   -7.83147  -5.79543  -5.79178  -5.78527  -0.91684
  Beta  occ. eigenvalues --   -0.90259  -0.76470  -0.70754  -0.65901  -0.60946
  Beta  occ. eigenvalues --   -0.56034  -0.51252  -0.49853  -0.47440  -0.42250
  Beta  occ. eigenvalues --   -0.37852  -0.35806  -0.34775  -0.34020  -0.33048
  Beta  occ. eigenvalues --   -0.31572  -0.30880  -0.29374  -0.27619  -0.25527
  Beta  occ. eigenvalues --   -0.23733  -0.22227  -0.18611  -0.17373  -0.16454
  Beta  occ. eigenvalues --   -0.14853  -0.11072
  Beta virt. eigenvalues --    0.06965   0.07805   0.08959   0.09300   0.09659
  Beta virt. eigenvalues --    0.10430   0.10662   0.11241   0.12085   0.12815
  Beta virt. eigenvalues --    0.13167   0.13793   0.14669   0.15087   0.15468

 Mulliken charges and spin densities:
               1          2
     1  C   -0.278745  -0.328455
     2  C    0.178163  -0.327775
     3  S   -0.239388   0.010718
     4  C   -0.199658   0.125222
     5  N   -0.062296  -0.001620
     6  C    0.220955  -0.306374
     7  C   -1.320329   1.565476
     8  N   -0.138765   0.136961
     9  C    2.771331  -3.375776
    10  O   -0.286708   0.040594
    11  H    0.064906   0.043598
    12  H    0.007934   0.096488
    13  H    0.169557   0.030114
    14  H   -0.434388   0.622288
    15  H    0.190525  -0.042249
    16  H   -0.254370   0.407453
    17  H    0.054612   0.263489
    18  H   -0.389373   0.563379
    19  H   -0.674798   0.845751
    20  H   -0.379165   0.630718
 Sum of Mulliken charges =  -1.00000   1.00000

 Dipole moment (field-independent basis, Debye):
    X=              5.7267    Y=              0.7141    Z=              1.5119  Tot=              5.9658
 Quadrupole moment (field-independent basis, Debye-Ang):
   XX=           -152.7909   YY=            -94.1744   ZZ=            -90.9973
   XY=              2.3265   XZ=             -4.2409   YZ=              1.4416

 Summary of Natural Population Analysis:

                                       Natural Population
                Natural  -----------------------------------------------
    Atom  No    Charge         Core      Valence    Rydberg      Total
 -----------------------------------------------------------------------
      C    1   -0.29721      0.99965     2.29072    0.00684     3.29721
      C    2   -0.23579      0.99960     2.22458    0.01161     3.23579
      S    3    0.10419      4.99954     2.87730    0.01898     7.89581
      C    4    0.10678      0.99957     1.87091    0.02274     2.89322
      N    5   -0.26516      0.99968     2.75500    0.01049     3.76516
      C    6   -0.03062      0.99951     2.01658    0.01453     3.03062
      C    7    0.04314      0.99953     1.94343    0.01390     2.95686
      N    8   -0.26342      0.99961     2.75345    0.01036     3.76342
      C    9   -0.02327      0.99956     2.00978    0.01392     3.02327
      O   10   -0.36882      0.99991     3.36163    0.00728     4.36882
      H   11    0.09763      0.00000     0.40120    0.00117     0.40237
      H   12    0.09452      0.00000     0.40447    0.00101     0.40548
      H   13    0.11477      0.00000     0.38420    0.00103     0.38523
      H   14    0.10179      0.00000     0.39539    0.00282     0.39821
      H   15    0.09897      0.00000     0.40011    0.00092     0.40103
      H   16    0.09698      0.00000     0.40187    0.00115     0.40302
      H   17    0.20974      0.00000     0.28801    0.00226     0.29026
      H   18    0.09218      0.00000     0.40558    0.00224     0.40782
      H   19    0.08870      0.00000     0.40827    0.00302     0.41130
      H   20    0.23489      0.00000     0.24471    0.02040     0.26511
 =======================================================================
   * Total *   -0.00000     13.99617    27.83716    0.16667    42.00000

 Normal termination of Gaussian 16 at Mon Dec 14 16:33:45 2020.
