 Gaussian 16, Revision A.03,

 -----------------------------------------------------------
 # opt freq B3LYP/6-31G(d) empiricaldispersion=gd3bj scf=xqc
 -----------------------------------------------------------

 -------------------------------
 CID_103454273_JID_1182_neutraal
 -------------------------------
 Symbolic Z-matrix:
 Charge =  0 Multiplicity = 1

 SCF Done:  E(RB3LYP) =  -464.627274940     A.U. after   15 cycles
 SCF Done:  E(RB3LYP) =  -464.651958882     A.U. after   15 cycles
 SCF Done:  E(RB3LYP) =  -464.660892580     A.U. after   15 cycles
 SCF Done:  E(RB3LYP) =  -464.667244739     A.U. after   14 cycles
 SCF Done:  E(RB3LYP) =  -464.668537216     A.U. after   16 cycles
 SCF Done:  E(RB3LYP) =  -464.669599382     A.U. after   15 cycles
 SCF Done:  E(RB3LYP) =  -464.674892309     A.U. after   14 cycles
 SCF Done:  E(RB3LYP) =  -464.675939974     A.U. after   13 cycles
 SCF Done:  E(RB3LYP) =  -464.675898564     A.U. after   14 cycles
 SCF Done:  E(RB3LYP) =  -464.676852973     A.U. after   14 cycles
 SCF Done:  E(RB3LYP) =  -464.683049314     A.U. after   10 cycles
 SCF Done:  E(RB3LYP) =  -464.683049802     A.U. after    9 cycles
 SCF Done:  E(RB3LYP) =  -464.683050062     A.U. after    8 cycles
 SCF Done:  E(RB3LYP) =  -464.683050065     A.U. after    7 cycles
 SCF Done:  E(RB3LYP) =  -464.683050063     A.U. after    6 cycles
 Optimization completed.
    -- Stationary point found.
 Normal termination of Gaussian 16 at Tue Dec  8 19:25:27 2020.

 --------------------------------------------------------------------
 #N Geom=AllCheck Guess=TCheck SCRF=Check GenChk RB3LYP/6-31G(d) Freq
 --------------------------------------------------------------------

 Structure from the checkpoint file:  "JID_1182.chk"
 -------------------------------
 CID_103454273_JID_1182_neutraal
 -------------------------------
 Charge =  0 Multiplicity = 1

 SCF Done:  E(RB3LYP) =  -464.683050063     A.U. after    1 cycles

  Exact polarizability: 142.124  -5.165  92.784  -3.978   3.602  79.396
 Approx polarizability: 216.600 -16.617 119.276 -20.169   8.834 128.662

                      1                      2                      3
                      A                      A                      A
 Frequencies --     24.1274                37.0632                59.9985
 Red. masses --      1.4789                 2.4148                 2.1360
 Frc consts  --      0.0005                 0.0020                 0.0045
 IR Inten    --      0.2010                 2.1069                 0.9831

                      4                      5                      6
                      A                      A                      A
 Frequencies --     75.6738                89.9008               124.3912
 Red. masses --      3.4979                 3.6715                 2.8944
 Frc consts  --      0.0118                 0.0175                 0.0264
 IR Inten    --      0.2829                 0.0897                 2.2894

                      7                      8                      9
                      A                      A                      A
 Frequencies --    155.6853               187.2580               198.4111
 Red. masses --      2.7593                 1.9061                 4.1428
 Frc consts  --      0.0394                 0.0394                 0.0961
 IR Inten    --      0.6922                 3.5889                 3.1962

                     10                     11                     12
                      A                      A                      A
 Frequencies --    242.5318               264.9679               309.8888
 Red. masses --      1.9196                 1.6018                 3.4393
 Frc consts  --      0.0665                 0.0663                 0.1946
 IR Inten    --      3.4311                 3.6710                 7.1692

                     13                     14                     15
                      A                      A                      A
 Frequencies --    362.0010               378.2272               397.6964
 Red. masses --      2.9490                 3.6382                 2.7188
 Frc consts  --      0.2277                 0.3067                 0.2534
 IR Inten    --      0.7003                 0.0173                 0.8221

                     16                     17                     18
                      A                      A                      A
 Frequencies --    500.5053               520.1766               547.0251
 Red. masses --      3.8493                 4.4092                 2.8256
 Frc consts  --      0.5681                 0.7029                 0.4982
 IR Inten    --      2.7946                 3.4331                10.2670

                     19                     20                     21
                      A                      A                      A
 Frequencies --    705.5851               712.5121               762.0613
 Red. masses --      3.0996                 3.3077                 2.0114
 Frc consts  --      0.9092                 0.9894                 0.6882
 IR Inten    --      1.2876                 0.8862                 5.5231

                     22                     23                     24
                      A                      A                      A
 Frequencies --    813.4005               867.6367               922.6683
 Red. masses --      1.3877                 1.7237                 1.9512
 Frc consts  --      0.5409                 0.7645                 0.9787
 IR Inten    --      4.2832                 0.9527                 2.9581

                     25                     26                     27
                      A                      A                      A
 Frequencies --    958.1306               969.4423              1017.8365
 Red. masses --      2.3038                 2.5912                 1.1174
 Frc consts  --      1.2461                 1.4348                 0.6820
 IR Inten    --      2.9062                 0.8170                28.1427

                     28                     29                     30
                      A                      A                      A
 Frequencies --   1035.5382              1044.4116              1069.3670
 Red. masses --      1.9769                 2.3554                 1.3902
 Frc consts  --      1.2490                 1.5138                 0.9367
 IR Inten    --     14.4890                 1.7664                 3.0254

                     31                     32                     33
                      A                      A                      A
 Frequencies --   1071.5425              1100.6833              1144.1295
 Red. masses --      1.3880                 1.6521                 1.9216
 Frc consts  --      0.9390                 1.1793                 1.4820
 IR Inten    --      1.8891                 2.0674                21.8895

                     34                     35                     36
                      A                      A                      A
 Frequencies --   1174.0213              1192.1151              1243.0766
 Red. masses --      2.7374                 1.6031                 1.2369
 Frc consts  --      2.2230                 1.3423                 1.1262
 IR Inten    --      1.0683                13.9446                19.7036

                     37                     38                     39
                      A                      A                      A
 Frequencies --   1276.0856              1287.5750              1328.7592
 Red. masses --      1.2719                 1.7092                 1.3137
 Frc consts  --      1.2203                 1.6695                 1.3666
 IR Inten    --      1.1807                59.6150                 1.6285

                     40                     41                     42
                      A                      A                      A
 Frequencies --   1344.2310              1365.9867              1379.1024
 Red. masses --      1.2838                 1.4606                 1.4209
 Frc consts  --      1.3668                 1.6057                 1.5922
 IR Inten    --      0.9342                14.8730                 7.1565

                     43                     44                     45
                      A                      A                      A
 Frequencies --   1386.5640              1434.8910              1445.2171
 Red. masses --      1.6285                 1.2191                 1.2424
 Frc consts  --      1.8447                 1.4789                 1.5289
 IR Inten    --     39.8718                 1.1825                 3.8282

                     46                     47                     48
                      A                      A                      A
 Frequencies --   1504.3434              1507.9365              1508.5227
 Red. masses --      1.0428                 1.0405                 1.0901
 Frc consts  --      1.3905                 1.3940                 1.4615
 IR Inten    --      8.2382                 6.6803                 8.1939

                     49                     50                     51
                      A                      A                      A
 Frequencies --   1511.9296              1517.9784              1526.6999
 Red. masses --      1.0740                 1.1110                 1.0414
 Frc consts  --      1.4465                 1.5084                 1.4301
 IR Inten    --      6.8004                 8.9843                 7.9812

                     52                     53                     54
                      A                      A                      A
 Frequencies --   1536.1142              1718.9586              1759.9329
 Red. masses --      1.0665                 5.8842                10.2851
 Frc consts  --      1.4827                10.2440                18.7695
 IR Inten    --      5.1548                32.0813               216.9324

                     55                     56                     57
                      A                      A                      A
 Frequencies --   2375.1398              3027.1203              3038.5825
 Red. masses --     11.8034                 1.0659                 1.0347
 Frc consts  --     39.2316                 5.7550                 5.6285
 IR Inten    --      0.8931                26.4383                26.5219

                     58                     59                     60
                      A                      A                      A
 Frequencies --   3041.1678              3053.3491              3074.6693
 Red. masses --      1.0598                 1.0347                 1.0925
 Frc consts  --      5.7750                 5.6836                 6.0849
 IR Inten    --     25.7079                32.2013                 3.0663

                     61                     62                     63
                      A                      A                      A
 Frequencies --   3083.5586              3086.6805              3097.2326
 Red. masses --      1.0961                 1.0689                 1.1012
 Frc consts  --      6.1405                 6.0005                 6.2241
 IR Inten    --      9.8295                20.8647                13.4971

                     64                     65                     66
                      A                      A                      A
 Frequencies --   3101.2827              3122.4993              3129.7783
 Red. masses --      1.1014                 1.1023                 1.1035
 Frc consts  --      6.2414                 6.3320                 6.3685
 IR Inten    --     16.0807                38.9204                34.8897

                     67                     68                     69
                      A                      A                      A
 Frequencies --   3134.5672              3173.9933              3181.2722
 Red. masses --      1.1049                 1.0926                 1.0854
 Frc consts  --      6.3962                 6.4855                 6.4719
 IR Inten    --     17.1832                 2.2657                22.7558

 - Thermochemistry -
 -------------------
 Temperature   298.150 Kelvin.  Pressure   1.00000 Atm.
 Atom     1 has atomic number  6 and mass  12.00000

 Molecular mass:   150.10447 amu.
 Principal axes and moments of inertia in atomic units:
                           1         2         3
     Eigenvalues --  1666.474832126.208973416.31318
           X            0.99829   0.05574   0.01732
           Y           -0.05563   0.99843  -0.00721
           Z           -0.01769   0.00623   0.99982
 This molecule is an asymmetric top.
 Rotational symmetry number  1.
 Warning -- assumption of classical behavior for rotation
           may cause significant error
 Rotational temperatures (Kelvin)      0.05197     0.04074     0.02535
 Rotational constants (GHZ):           1.08297     0.84881     0.52827
 Zero-point vibrational energy     564286.9 (Joules/Mol)
                                  134.86782 (Kcal/Mol)
 Warning -- explicit consideration of  18 degrees of freedom as
           vibrations may cause significant error
 Vibrational temperatures:     34.71    53.33    86.32   108.88   129.35
          (Kelvin)            178.97   224.00   269.42   285.47   348.95
                              381.23   445.86   520.84   544.18   572.20
                              720.12   748.42   787.05  1015.18  1025.15
                             1096.44  1170.30  1248.34  1327.51  1378.54
                             1394.81  1464.44  1489.91  1502.68  1538.58
                             1541.71  1583.64  1646.15  1689.15  1715.19
                             1788.51  1836.00  1852.53  1911.79  1934.05
                             1965.35  1984.22  1994.96  2064.49  2079.35
                             2164.41  2169.58  2170.43  2175.33  2184.03
                             2196.58  2210.13  2473.20  2532.15  3417.30
                             4355.35  4371.84  4375.56  4393.09  4423.76
                             4436.55  4441.04  4456.23  4462.05  4492.58
                             4503.05  4509.94  4566.67  4577.14

 Zero-point correction=                           0.214926 (Hartree/Particle)
 Thermal correction to Energy=                    0.228258
 Thermal correction to Enthalpy=                  0.229203
 Thermal correction to Gibbs Free Energy=         0.173238
 Sum of electronic and zero-point Energies=           -464.468125
 Sum of electronic and thermal Energies=              -464.454792
 Sum of electronic and thermal Enthalpies=            -464.453848
 Sum of electronic and thermal Free Energies=         -464.509812

                     E (Thermal)             CV                S
                      KCal/Mol        Cal/Mol-Kelvin    Cal/Mol-Kelvin
 Total                  143.234             45.923            117.787
 Electronic               0.000              0.000              0.000
 Translational            0.889              2.981             40.929
 Rotational               0.889              2.981             30.871
 Vibrational            141.457             39.961             45.987
 Vibration     1          0.593              1.985              6.262
 Vibration     2          0.594              1.982              5.410
 Vibration     3          0.597              1.973              4.457
 Vibration     4          0.599              1.965              4.000
 Vibration     5          0.602              1.956              3.662
 Vibration     6          0.610              1.929              3.031
 Vibration     7          0.620              1.896              2.602
 Vibration     8          0.632              1.857              2.255
 Vibration     9          0.637              1.842              2.148
 Vibration    10          0.659              1.775              1.784
 Vibration    11          0.671              1.737              1.629
 Vibration    12          0.699              1.655              1.363
 Vibration    13          0.736              1.551              1.113
 Vibration    14          0.749              1.517              1.046
 Vibration    15          0.764              1.475              0.971
 Vibration    16          0.856              1.249              0.657
 Vibration    17          0.875              1.205              0.610
 Vibration    18          0.902              1.146              0.550

 Optimization completed.
    -- Stationary point found.
 Normal termination of Gaussian 16 at Tue Dec  8 19:30:35 2020.

 ----------------------------------------------------------------------
 # B3LYP/6-311++G(d,p) empiricaldispersion=gd3bj scf=xqc pop=npa geom=c
 heck
 ----------------------------------------------------------------------

 ---------------------------------------
 CID_103454273_JID_1182_Energie_neutraal
 ---------------------------------------
 Structure from the checkpoint file:  "JID_1182.chk"
 Charge =  0 Multiplicity = 1

 SCF Done:  E(RB3LYP) =  -464.817666239     A.U. after   14 cycles
 Normal termination of Gaussian 16 at Tue Dec  8 19:32:48 2020.

 ----------------------------------------------------------------------
 # B3LYP/6-311++G(d,p) empiricaldispersion=gd3bj scf=xqc pop=npa geom=c
 heck
 ----------------------------------------------------------------------

 -------------------------------------
 CID_103454273_JID_1182_Energie_kation
 -------------------------------------
 Structure from the checkpoint file:  "JID_1182.chk"
 Charge =  1 Multiplicity = 2

 SCF Done:  E(UB3LYP) =  -464.498867379     A.U. after   27 cycles
 Normal termination of Gaussian 16 at Tue Dec  8 19:38:55 2020.
 Gaussian 16:  ES64L-G16RevA.03 25-Dec-2016

 ----------------------------------------------------------------------
 # B3LYP/6-311++G(d,p) empiricaldispersion=gd3bj scf=xqc pop=npa geom=c
 heck
 ----------------------------------------------------------------------

 ------------------------------------
 CID_103454273_JID_1182_Energie_anion
 ------------------------------------
 Structure from the checkpoint file:  "JID_1182.chk"
 Charge = -1 Multiplicity = 2

                         Standard orientation:
 ---------------------------------------------------------------------
 Center     Atomic      Atomic             Coordinates (Angstroms)
 Number     Number       Type             X           Y           Z
 ---------------------------------------------------------------------
      1          6           0       -3.094564   -0.869421   -0.051882
      2          6           0       -2.050311   -1.933065    0.328800
      3          6           0       -0.681715   -1.341194    0.477571
      4          6           0        0.372527   -1.650064   -0.291662
      5          6           0        1.706698   -1.021328   -0.221931
      6          8           0        2.544711   -1.266659   -1.081300
      7          6           0        2.050912   -0.035611    0.891336
      8          6           0        1.993222    1.425399    0.379091
      9          6           0        0.636583    1.886806    0.086537
     10          6           0       -0.494862    2.245814   -0.144182
     11          6           0       -1.852939    2.692570   -0.440634
     12          1           0       -3.129009   -0.066645    0.693313
     13          1           0       -4.094211   -1.311336   -0.120483
     14          1           0       -2.850068   -0.417602   -1.018695
     15          1           0       -2.347446   -2.396628    1.280875
     16          1           0       -2.033921   -2.730066   -0.423532
     17          1           0       -0.582814   -0.572959    1.242269
     18          1           0        0.277552   -2.388180   -1.086399
     19          1           0        1.408357   -0.148935    1.767940
     20          1           0        3.080991   -0.251636    1.191077
     21          1           0        2.451742    2.079801    1.131765
     22          1           0        2.618810    1.493414   -0.519953
     23          1           0       -1.866528    3.746388   -0.743935
     24          1           0       -2.295735    2.106750   -1.254846
     25          1           0       -2.508713    2.591467    0.432740
 ---------------------------------------------------------------------

 SCF Done:  E(UB3LYP) =  -464.818562154     A.U. after   33 cycles
 SCF Done:  E(UB3LYP) =  -464.818562154     a.u. after    1 cycles

 The electronic state is 2-A.
 Alpha  occ. eigenvalues --  -18.92749 -10.08408 -10.07622 -10.07441 -10.04932
 Alpha  occ. eigenvalues --  -10.04671 -10.04455 -10.04445 -10.03872 -10.01919
 Alpha  occ. eigenvalues --  -10.01136  -0.86720  -0.68763  -0.66898  -0.65585
 Alpha  occ. eigenvalues --   -0.60626  -0.58428  -0.53081  -0.50360  -0.43604
 Alpha  occ. eigenvalues --   -0.39314  -0.37052  -0.35307  -0.33894  -0.32646
 Alpha  occ. eigenvalues --   -0.32330  -0.31524  -0.31172  -0.29926  -0.28081
 Alpha  occ. eigenvalues --   -0.26596  -0.25493  -0.23835  -0.23210  -0.21812
 Alpha  occ. eigenvalues --   -0.21507  -0.20808  -0.14524  -0.14349  -0.11957
 Alpha  occ. eigenvalues --   -0.08922   0.04811
 Alpha virt. eigenvalues --    0.07090   0.08285   0.08772   0.10298   0.10480
 Alpha virt. eigenvalues --    0.11133   0.11854   0.12165   0.12313   0.12993
 Alpha virt. eigenvalues --    0.14368   0.14486   0.15172   0.15957   0.16174

  Beta  occ. eigenvalues --  -18.92299 -10.08386 -10.07591 -10.07170 -10.04929
  Beta  occ. eigenvalues --  -10.04670 -10.04485 -10.04467 -10.03793 -10.01543
  Beta  occ. eigenvalues --  -10.01128  -0.85910  -0.68675  -0.66538  -0.65517
  Beta  occ. eigenvalues --   -0.60329  -0.58356  -0.52847  -0.50174  -0.42996
  Beta  occ. eigenvalues --   -0.39084  -0.36918  -0.35198  -0.33802  -0.32604
  Beta  occ. eigenvalues --   -0.32295  -0.31280  -0.31080  -0.29575  -0.27816
  Beta  occ. eigenvalues --   -0.26323  -0.25268  -0.23649  -0.23054  -0.21617
  Beta  occ. eigenvalues --   -0.20637  -0.19698  -0.14441  -0.14316  -0.10311
  Beta  occ. eigenvalues --   -0.08528
  Beta virt. eigenvalues --    0.07294   0.08328   0.08741   0.10386   0.10641
  Beta virt. eigenvalues --    0.11014   0.11633   0.11951   0.12189   0.12394
  Beta virt. eigenvalues --    0.13163   0.14429   0.14566   0.15204   0.15963

 Mulliken charges and spin densities:
               1          2
     1  C    0.420118  -0.926962
     2  C   -0.928727   0.572012
     3  C    0.746391  -0.094359
     4  C   -0.249528  -0.105452
     5  C   -0.358253   0.204990
     6  O   -0.394562   0.150736
     7  C    0.250232  -0.078947
     8  C   -0.572792  -0.018870
     9  C    0.223848  -0.088538
    10  C   -1.031821   0.856665
    11  C    0.748138  -1.191200
    12  H    0.053318   0.063085
    13  H   -0.774764   0.917688
    14  H    0.169304  -0.054221
    15  H    0.000764   0.121910
    16  H    0.077810   0.047849
    17  H    0.041039  -0.022402
    18  H    0.149400  -0.010429
    19  H    0.105317   0.010242
    20  H    0.072737   0.115256
    21  H    0.024888   0.117277
    22  H    0.200521  -0.019862
    23  H    0.104079   0.033334
    24  H   -0.001820   0.164695
    25  H   -0.075637   0.235502
 Sum of Mulliken charges =  -1.00000   1.00000

 Dipole moment (field-independent basis, Debye):
    X=              1.1510    Y=              3.5679    Z=              1.7626  Tot=              4.1426
 Quadrupole moment (field-independent basis, Debye-Ang):
   XX=           -127.2491   YY=            -94.4179   ZZ=            -82.6930
   XY=              0.4141   XZ=              7.0960   YZ=             -2.1047

 Summary of Natural Population Analysis:

                                       Natural Population
                Natural  -----------------------------------------------
    Atom  No    Charge         Core      Valence    Rydberg      Total
 -----------------------------------------------------------------------
      C    1   -0.27650      0.99966     2.27158    0.00525     3.27650
      C    2   -0.21077      0.99963     2.20066    0.01048     3.21077
      C    3    0.00804      0.99954     1.98367    0.00875     2.99196
      C    4   -0.15343      0.99948     2.14229    0.01166     3.15343
      C    5    0.29098      0.99964     1.68909    0.02029     2.70902
      O    6   -0.26843      0.99988     3.26176    0.00679     4.26843
      C    7   -0.22084      0.99960     2.21197    0.00928     3.22084
      C    8   -0.21851      0.99958     2.21158    0.00736     3.21851
      C    9   -0.00553      0.99926     1.99880    0.00748     3.00553
      C   10   -0.01719      0.99923     2.01216    0.00581     3.01719
      C   11   -0.31775      0.99962     2.31245    0.00568     3.31775
      H   12    0.09293      0.00000     0.40584    0.00123     0.40707
      H   13    0.09655      0.00000     0.40032    0.00313     0.40345
      H   14    0.09451      0.00000     0.40427    0.00122     0.40549
      H   15    0.09749      0.00000     0.40136    0.00115     0.40251
      H   16    0.09278      0.00000     0.40605    0.00117     0.40722
      H   17    0.08231      0.00000     0.41595    0.00174     0.41769
      H   18    0.09139      0.00000     0.40724    0.00137     0.40861
      H   19    0.09628      0.00000     0.40237    0.00135     0.40372
      H   20    0.10347      0.00000     0.39453    0.00200     0.39653
      H   21    0.10202      0.00000     0.39603    0.00195     0.39798
      H   22    0.11364      0.00000     0.38514    0.00122     0.38636
      H   23    0.10451      0.00000     0.39465    0.00084     0.39549
      H   24    0.11222      0.00000     0.38676    0.00102     0.38778
      H   25    0.10984      0.00000     0.38910    0.00107     0.39016
 =======================================================================
   * Total *    0.00000     10.99511    29.88561    0.11928    41.00000

 Normal termination of Gaussian 16 at Tue Dec  8 19:46:21 2020.
