 Gaussian 16, Revision A.03,

 -----------------------------------------------------------
 # opt freq B3LYP/6-31G(d) empiricaldispersion=gd3bj scf=xqc
 -----------------------------------------------------------

 -------------------------------
 CID_151848931_JID_8045_neutraal
 -------------------------------
 Symbolic Z-matrix:
 Charge =  0 Multiplicity = 1

 SCF Done:  E(RB3LYP) =  -1103.76895371     A.U. after   16 cycles
 SCF Done:  E(RB3LYP) =  -1103.77352016     A.U. after   15 cycles
 SCF Done:  E(RB3LYP) =  -1103.77323129     A.U. after   15 cycles
 SCF Done:  E(RB3LYP) =  -1103.77400847     A.U. after   13 cycles
 SCF Done:  E(RB3LYP) =  -1103.77522605     A.U. after   13 cycles
 SCF Done:  E(RB3LYP) =  -1103.77591970     A.U. after   16 cycles
 SCF Done:  E(RB3LYP) =  -1103.77590038     A.U. after   16 cycles
 SCF Done:  E(RB3LYP) =  -1103.77686679     A.U. after   13 cycles
 SCF Done:  E(RB3LYP) =  -1103.77742760     A.U. after   14 cycles
 SCF Done:  E(RB3LYP) =  -1103.77772561     A.U. after   14 cycles
 SCF Done:  E(RB3LYP) =  -1103.77789696     A.U. after   10 cycles
 SCF Done:  E(RB3LYP) =  -1103.77789771     A.U. after    9 cycles
 SCF Done:  E(RB3LYP) =  -1103.77789777     A.U. after    8 cycles
 SCF Done:  E(RB3LYP) =  -1103.77789778     A.U. after    7 cycles
 SCF Done:  E(RB3LYP) =  -1103.77789778     A.U. after    6 cycles
 Optimization completed.
    -- Stationary point found.
 Normal termination of Gaussian 16 at Fri Dec 11 18:54:48 2020.

 --------------------------------------------------------------------
 #N Geom=AllCheck Guess=TCheck SCRF=Check GenChk RB3LYP/6-31G(d) Freq
 --------------------------------------------------------------------

 Structure from the checkpoint file:  "JID_8045.chk"
 -------------------------------
 CID_151848931_JID_8045_neutraal
 -------------------------------
 Charge =  0 Multiplicity = 1

 SCF Done:  E(RB3LYP) =  -1103.77789778     A.U. after    1 cycles

  Exact polarizability: 225.664   1.546 194.586 -20.526   6.725 133.575
 Approx polarizability: 323.206   0.878 353.424 -51.967  26.634 236.756

                      1                      2                      3
                      A                      A                      A
 Frequencies --     23.3278                32.3356                38.3556
 Red. masses --      6.1199                 1.0577                 3.8975
 Frc consts  --      0.0020                 0.0007                 0.0034
 IR Inten    --      0.3087                 0.2567                 0.4193

                      4                      5                      6
                      A                      A                      A
 Frequencies --     44.2137                58.4985               115.3829
 Red. masses --      4.8372                 7.0700                 4.5730
 Frc consts  --      0.0056                 0.0143                 0.0359
 IR Inten    --      0.1479                 0.6595                 0.2904

                      7                      8                      9
                      A                      A                      A
 Frequencies --    127.6058               156.4975               189.8174
 Red. masses --      7.9272                 2.6604                 1.2754
 Frc consts  --      0.0761                 0.0384                 0.0271
 IR Inten    --      0.5712                 0.0870                 0.6975

                     10                     11                     12
                      A                      A                      A
 Frequencies --    201.1415               232.1432               250.1667
 Red. masses --      4.8545                 4.4342                 3.8096
 Frc consts  --      0.1157                 0.1408                 0.1405
 IR Inten    --      0.2324                 0.4182                 0.3578

                     13                     14                     15
                      A                      A                      A
 Frequencies --    265.7842               288.7918               324.9905
 Red. masses --      4.6699                 4.0415                 4.9119
 Frc consts  --      0.1944                 0.1986                 0.3057
 IR Inten    --      2.1049                 3.4240                 0.4732

                     16                     17                     18
                      A                      A                      A
 Frequencies --    374.5973               392.7444               447.5635
 Red. masses --      4.4375                 6.1936                 3.7109
 Frc consts  --      0.3669                 0.5629                 0.4380
 IR Inten    --      1.2185                 0.3049                 2.7127

                     19                     20                     21
                      A                      A                      A
 Frequencies --    456.9316               462.6193               476.6505
 Red. masses --      3.2258                 4.8405                 4.8712
 Frc consts  --      0.3968                 0.6104                 0.6521
 IR Inten    --      2.5085                 0.8302                 2.6275

                     22                     23                     24
                      A                      A                      A
 Frequencies --    502.7237               526.4569               541.1952
 Red. masses --      4.9087                12.9650                 4.6652
 Frc consts  --      0.7309                 2.1171                 0.8051
 IR Inten    --      1.9194                15.5546                 2.0506

                     25                     26                     27
                      A                      A                      A
 Frequencies --    564.4060               579.1929               635.6525
 Red. masses --      5.6089                 4.1406                 6.2014
 Frc consts  --      1.0527                 0.8184                 1.4763
 IR Inten    --      0.2615                 3.3370                 1.5590

                     28                     29                     30
                      A                      A                      A
 Frequencies --    687.3461               693.5291               722.0250
 Red. masses --      7.0389                 6.2670                 4.1950
 Frc consts  --      1.9593                 1.7760                 1.2885
 IR Inten    --      6.1290                 6.3670                 0.2497

                     31                     32                     33
                      A                      A                      A
 Frequencies --    727.4860               766.3483               772.1860
 Red. masses --      3.9935                 1.9279                 2.3759
 Frc consts  --      1.2453                 0.6671                 0.8347
 IR Inten    --      5.7905                31.8351                11.1227

                     34                     35                     36
                      A                      A                      A
 Frequencies --    821.2059               828.1527               881.7159
 Red. masses --      4.1884                 1.3523                 1.2865
 Frc consts  --      1.6642                 0.5464                 0.5893
 IR Inten    --      1.7637                17.6306                 0.4353

                     37                     38                     39
                      A                      A                      A
 Frequencies --    900.6833               936.5550               949.3746
 Red. masses --      1.3633                 4.3037                 1.3392
 Frc consts  --      0.6516                 2.2241                 0.7112
 IR Inten    --      7.9127                10.4002                 0.5280

                     40                     41                     42
                      A                      A                      A
 Frequencies --    961.8836               988.3878              1021.7354
 Red. masses --      1.3029                 1.2685                 1.5519
 Frc consts  --      0.7102                 0.7301                 0.9545
 IR Inten    --      1.4590                 0.0562                 1.3382

                     43                     44                     45
                      A                      A                      A
 Frequencies --   1033.1523              1064.1304              1073.2977
 Red. masses --      1.4642                 5.9433                 2.4834
 Frc consts  --      0.9209                 3.9652                 1.6856
 IR Inten    --      5.2628                26.9903                 8.1486

                     46                     47                     48
                      A                      A                      A
 Frequencies --   1074.6032              1076.7674              1084.0234
 Red. masses --      1.5261                 2.0385                 2.6291
 Frc consts  --      1.0383                 1.3925                 1.8203
 IR Inten    --      5.7874                 7.3816                 1.6759

                     49                     50                     51
                      A                      A                      A
 Frequencies --   1158.2613              1164.0202              1184.6334
 Red. masses --      2.0895                 1.6107                 1.4091
 Frc consts  --      1.6516                 1.2859                 1.1651
 IR Inten    --      2.9239                 2.2290                 0.8497

                     52                     53                     54
                      A                      A                      A
 Frequencies --   1197.5812              1238.8932              1246.3769
 Red. masses --      1.0944                 2.5265                 2.8713
 Frc consts  --      0.9248                 2.2847                 2.6280
 IR Inten    --      0.2927                 0.1876                 8.8137

                     55                     56                     57
                      A                      A                      A
 Frequencies --   1299.2440              1313.2910              1326.8579
 Red. masses --      1.5699                 1.5409                 5.7875
 Frc consts  --      1.5614                 1.5658                 6.0033
 IR Inten    --      1.4253                 2.1271                14.3375

                     58                     59                     60
                      A                      A                      A
 Frequencies --   1341.8084              1390.9388              1443.2329
 Red. masses --      7.0592                 5.8981                 1.2563
 Frc consts  --      7.4883                 6.7232                 1.5418
 IR Inten    --      2.3269                72.8998                 1.7526

                     61                     62                     63
                      A                      A                      A
 Frequencies --   1444.4941              1447.0894              1480.4635
 Red. masses --      1.2407                 3.3943                 1.9222
 Frc consts  --      1.5253                 4.1879                 2.4822
 IR Inten    --      0.7196                81.9732                 1.4852

                     64                     65                     66
                      A                      A                      A
 Frequencies --   1508.6876              1515.2171              1519.4465
 Red. masses --      1.1322                 1.0477                 1.8759
 Frc consts  --      1.5183                 1.4172                 2.5517
 IR Inten    --     11.1590                 6.7833                20.1995

                     67                     68                     69
                      A                      A                      A
 Frequencies --   1522.0024              1526.8217              1529.7184
 Red. masses --      1.1969                 2.0649                 1.3249
 Frc consts  --      1.6336                 2.8361                 1.8266
 IR Inten    --      9.5356                51.5671                29.4380

                     70                     71                     72
                      A                      A                      A
 Frequencies --   1609.4217              1627.5125              1652.9333
 Red. masses --      5.7072                 5.3130                 5.6613
 Frc consts  --      8.7099                 8.2916                 9.1133
 IR Inten    --      8.1985                 0.4408                 2.8335

                     73                     74                     75
                      A                      A                      A
 Frequencies --   1660.2885              2266.3606              3046.4734
 Red. masses --      5.8022                13.9852                 1.0385
 Frc consts  --      9.4235                42.3231                 5.6785
 IR Inten    --     38.3521               620.3410                33.9713

                     76                     77                     78
                      A                      A                      A
 Frequencies --   3055.3513              3100.6474              3112.8626
 Red. masses --      1.0366                 1.0994                 1.0991
 Frc consts  --      5.7013                 6.2272                 6.2750
 IR Inten    --     12.8512                17.1865                10.3632

                     79                     80                     81
                      A                      A                      A
 Frequencies --   3131.8452              3135.0631              3180.9052
 Red. masses --      1.1015                 1.1031                 1.0866
 Frc consts  --      6.3656                 6.3878                 6.4776
 IR Inten    --     15.4425                16.1859                 5.8956

                     82                     83                     84
                      A                      A                      A
 Frequencies --   3187.1056              3193.1716              3204.7423
 Red. masses --      1.0885                 1.0885                 1.0927
 Frc consts  --      6.5146                 6.5389                 6.6119
 IR Inten    --     10.3388                10.0378                22.0840

                     85                     86                     87
                      A                      A                      A
 Frequencies --   3206.3568              3213.3417              3215.1706
 Red. masses --      1.0907                 1.0932                 1.0971
 Frc consts  --      6.6066                 6.6509                 6.6820
 IR Inten    --      7.9837                 4.3217                21.4258

 - Thermochemistry -
 -------------------
 Temperature   298.150 Kelvin.  Pressure   1.00000 Atm.
 Atom     1 has atomic number  6 and mass  12.00000

 Molecular mass:   255.08302 amu.
 Principal axes and moments of inertia in atomic units:
                           1         2         3
     Eigenvalues --  3251.835906235.717928017.07443
           X            0.99943  -0.03364  -0.00084
           Y            0.03364   0.99943   0.00053
           Z            0.00082  -0.00056   1.00000
 This molecule is an asymmetric top.
 Rotational symmetry number  1.
 Warning -- assumption of classical behavior for rotation
           may cause significant error
 Rotational temperatures (Kelvin)      0.02664     0.01389     0.01080
 Rotational constants (GHZ):           0.55499     0.28942     0.22511
 Zero-point vibrational energy     633859.4 (Joules/Mol)
                                  151.49602 (Kcal/Mol)
 Warning -- explicit consideration of  26 degrees of freedom as
           vibrations may cause significant error
 Vibrational temperatures:     33.56    46.52    55.19    63.61    84.17
          (Kelvin)            166.01   183.60   225.16   273.10   289.40
                              334.00   359.93   382.40   415.51   467.59
                              538.96   565.07   643.94   657.42   665.61
                              685.79   723.31   757.45   778.66   812.05
                              833.33   914.56   988.94   997.83  1038.83
                             1046.69  1102.60  1111.00  1181.53  1191.53
                             1268.59  1295.88  1347.49  1365.94  1383.94
                             1422.07  1470.05  1486.48  1531.05  1544.24
                             1546.11  1549.23  1559.67  1666.48  1674.77
                             1704.42  1723.05  1782.49  1793.26  1869.32
                             1889.53  1909.05  1930.56  2001.25  2076.49
                             2078.30  2082.04  2130.06  2170.66  2180.06
                             2186.14  2189.82  2196.76  2200.92  2315.60
                             2341.63  2378.20  2388.78  3260.79  4383.20
                             4395.97  4461.14  4478.72  4506.03  4510.66
                             4576.61  4585.53  4594.26  4610.91  4613.23
                             4623.28  4625.91

 Zero-point correction=                           0.241424 (Hartree/Particle)
 Thermal correction to Energy=                    0.258236
 Thermal correction to Enthalpy=                  0.259180
 Thermal correction to Gibbs Free Energy=         0.194527
 Sum of electronic and zero-point Energies=          -1103.536474
 Sum of electronic and thermal Energies=             -1103.519662
 Sum of electronic and thermal Enthalpies=           -1103.518718
 Sum of electronic and thermal Free Energies=        -1103.583371

                     E (Thermal)             CV                S
                      KCal/Mol        Cal/Mol-Kelvin    Cal/Mol-Kelvin
 Total                  162.046             62.705            136.075
 Electronic               0.000              0.000              0.000
 Translational            0.889              2.981             42.509
 Rotational               0.889              2.981             33.452
 Vibrational            160.268             56.743             60.114
 Vibration     1          0.593              1.985              6.329
 Vibration     2          0.594              1.983              5.681
 Vibration     3          0.594              1.982              5.342
 Vibration     4          0.595              1.980              5.061
 Vibration     5          0.596              1.974              4.507
 Vibration     6          0.608              1.937              3.176
 Vibration     7          0.611              1.926              2.982
 Vibration     8          0.620              1.895              2.592
 Vibration     9          0.633              1.854              2.230
 Vibration    10          0.638              1.838              2.123
 Vibration    11          0.653              1.792              1.862
 Vibration    12          0.663              1.762              1.729
 Vibration    13          0.672              1.736              1.623
 Vibration    14          0.685              1.695              1.481
 Vibration    15          0.709              1.625              1.285
 Vibration    16          0.746              1.524              1.061
 Vibration    17          0.760              1.486              0.990
 Vibration    18          0.807              1.366              0.803
 Vibration    19          0.815              1.346              0.775
 Vibration    20          0.820              1.333              0.759
 Vibration    21          0.833              1.302              0.719
 Vibration    22          0.858              1.244              0.651
 Vibration    23          0.881              1.191              0.595
 Vibration    24          0.896              1.159              0.563
 Vibration    25          0.920              1.108              0.515
 Vibration    26          0.936              1.076              0.487

 Optimization completed.
    -- Stationary point found.
 Normal termination of Gaussian 16 at Fri Dec 11 19:06:11 2020.

 ----------------------------------------------------------------------
 # B3LYP/6-311++G(d,p) empiricaldispersion=gd3bj scf=xqc pop=npa geom=c
 heck
 ----------------------------------------------------------------------

 ---------------------------------------
 CID_151848931_JID_8045_Energie_neutraal
 ---------------------------------------
 Structure from the checkpoint file:  "JID_8045.chk"
 Charge =  0 Multiplicity = 1

 SCF Done:  E(RB3LYP) =  -1103.98343291     A.U. after   18 cycles
 Normal termination of Gaussian 16 at Fri Dec 11 19:12:40 2020.

 ----------------------------------------------------------------------
 # B3LYP/6-311++G(d,p) empiricaldispersion=gd3bj scf=xqc pop=npa geom=c
 heck
 ----------------------------------------------------------------------

 -------------------------------------
 CID_151848931_JID_8045_Energie_kation
 -------------------------------------
 Structure from the checkpoint file:  "JID_8045.chk"
 Charge =  1 Multiplicity = 2

 SCF Done:  E(UB3LYP) =  -1103.70197338     A.U. after   28 cycles
 Normal termination of Gaussian 16 at Fri Dec 11 19:26:37 2020.
 Gaussian 16:  ES64L-G16RevA.03 25-Dec-2016

 ----------------------------------------------------------------------
 # B3LYP/6-311++G(d,p) empiricaldispersion=gd3bj scf=xqc pop=npa geom=c
 heck
 ----------------------------------------------------------------------

 ------------------------------------
 CID_151848931_JID_8045_Energie_anion
 ------------------------------------
 Structure from the checkpoint file:  "JID_8045.chk"
 Charge = -1 Multiplicity = 2

                         Standard orientation:
 ---------------------------------------------------------------------
 Center     Atomic      Atomic             Coordinates (Angstroms)
 Number     Number       Type             X           Y           Z
 ---------------------------------------------------------------------
      1          6           0       -3.858585    2.857136    0.084496
      2          6           0       -2.788928    1.817170   -0.137811
      3          6           0       -2.942967    0.516849    0.335670
      4          6           0       -1.964698   -0.465244    0.126404
      5          6           0       -0.783000   -0.137702   -0.564488
      6          6           0       -0.641838    1.165686   -1.059862
      7          6           0       -1.617989    2.129136   -0.845114
      8         16           0        0.549784   -1.318872   -0.756506
      9          6           0        1.960020   -0.320764   -0.276165
     10          6           0        2.977575   -0.152855   -1.222079
     11          6           0        4.130606    0.561154   -0.900320
     12          6           0        4.257495    1.121304    0.369396
     13          6           0        3.240354    0.952686    1.308554
     14          6           0        2.079765    0.225955    1.018810
     15          6           0        1.010518    0.060585    2.065662
     16          7           0       -2.244332   -1.717109    0.732300
     17          7           0       -1.861967   -2.775182    0.213796
     18          7           0       -1.627775   -3.837012   -0.129568
     19          1           0       -4.378506    3.095791   -0.851950
     20          1           0       -4.608766    2.512268    0.802136
     21          1           0       -3.430791    3.792451    0.463003
     22          1           0       -3.832986    0.232521    0.888366
     23          1           0        0.268216    1.423065   -1.591923
     24          1           0       -1.471394    3.135345   -1.229029
     25          1           0        2.854487   -0.583050   -2.211042
     26          1           0        4.916300    0.684571   -1.639906
     27          1           0        5.147394    1.685927    0.632687
     28          1           0        3.349127    1.384460    2.300310
     29          1           0        0.153068    0.713455    1.864900
     30          1           0        0.626658   -0.964560    2.084288
     31          1           0        1.399189    0.308250    3.057647
 ---------------------------------------------------------------------

 SCF Done:  E(UB3LYP) =  -1103.98207458     A.U. after   33 cycles
 SCF Done:  E(UB3LYP) =  -1103.98207459     a.u. after    2 cycles

 The electronic state is 2-A.
 Alpha  occ. eigenvalues --  -88.73066 -14.32324 -14.22771 -14.22596 -10.09274
 Alpha  occ. eigenvalues --  -10.08997 -10.08296 -10.07314 -10.07230 -10.07110
 Alpha  occ. eigenvalues --  -10.06994 -10.06975 -10.06812 -10.05781 -10.05777
 Alpha  occ. eigenvalues --  -10.05727 -10.05155 -10.04939  -7.81641  -5.78034
 Alpha  occ. eigenvalues --   -5.77642  -5.77041  -0.99560  -0.84379  -0.76279
 Alpha  occ. eigenvalues --   -0.74383  -0.68967  -0.66855  -0.65545  -0.64008
 Alpha  occ. eigenvalues --   -0.60883  -0.58251  -0.55400  -0.52178  -0.49778
 Alpha  occ. eigenvalues --   -0.48875  -0.46946  -0.41566  -0.40034  -0.38304
 Alpha  occ. eigenvalues --   -0.37338  -0.36849  -0.36191  -0.34458  -0.34297
 Alpha  occ. eigenvalues --   -0.32128  -0.32059  -0.31531  -0.31237  -0.31102
 Alpha  occ. eigenvalues --   -0.30309  -0.28612  -0.28349  -0.27035  -0.26090
 Alpha  occ. eigenvalues --   -0.25475  -0.24580  -0.24221  -0.23187  -0.21207
 Alpha  occ. eigenvalues --   -0.18717  -0.16413  -0.15990  -0.14798  -0.14420
 Alpha  occ. eigenvalues --   -0.11102  -0.09202   0.04714
 Alpha virt. eigenvalues --    0.06350   0.07240   0.07727   0.08004   0.08585
 Alpha virt. eigenvalues --    0.09136   0.09360   0.09603   0.09769   0.10792
 Alpha virt. eigenvalues --    0.11034   0.11183   0.11796   0.12754   0.13254

  Beta  occ. eigenvalues --  -88.73069 -14.31997 -14.22694 -14.22317 -10.09084
  Beta  occ. eigenvalues --  -10.08902 -10.08309 -10.07232 -10.07160 -10.07060
  Beta  occ. eigenvalues --  -10.06963 -10.06934 -10.06831 -10.05774 -10.05774
  Beta  occ. eigenvalues --  -10.05500 -10.05221 -10.04916  -7.81641  -5.78035
  Beta  occ. eigenvalues --   -5.77647  -5.77048  -0.98932  -0.84060  -0.76170
  Beta  occ. eigenvalues --   -0.74150  -0.68761  -0.66784  -0.65310  -0.63795
  Beta  occ. eigenvalues --   -0.60769  -0.58195  -0.55285  -0.51963  -0.49668
  Beta  occ. eigenvalues --   -0.48777  -0.46868  -0.41328  -0.39922  -0.37885
  Beta  occ. eigenvalues --   -0.36791  -0.36396  -0.35869  -0.34236  -0.34043
  Beta  occ. eigenvalues --   -0.31943  -0.31874  -0.31451  -0.31182  -0.30345
  Beta  occ. eigenvalues --   -0.30061  -0.28551  -0.28271  -0.26943  -0.25675
  Beta  occ. eigenvalues --   -0.25186  -0.24509  -0.24103  -0.23006  -0.21003
  Beta  occ. eigenvalues --   -0.17869  -0.16144  -0.15766  -0.14598  -0.13942
  Beta  occ. eigenvalues --   -0.10838  -0.08680
  Beta virt. eigenvalues --    0.06715   0.07178   0.08114   0.08171   0.08568
  Beta virt. eigenvalues --    0.09148   0.09227   0.09582   0.09953   0.10348
  Beta virt. eigenvalues --    0.10965   0.11326   0.11677   0.11937   0.12703

 Mulliken charges and spin densities:
               1          2
     1  C   -0.594001  -0.042864
     2  C    0.557791   0.074373
     3  C   -0.524317  -0.078933
     4  C   -1.111815   0.121417
     5  C    0.809417   0.091241
     6  C   -0.095221   0.070677
     7  C   -0.371579   0.050046
     8  S   -0.530511   0.027837
     9  C    0.713024   0.004622
    10  C   -0.400335   0.218154
    11  C    0.203935  -0.515954
    12  C    0.113778  -0.353140
    13  C   -0.193080   0.198808
    14  C   -0.045383  -0.117920
    15  C   -0.576307  -0.031290
    16  N   -0.222258  -0.060288
    17  N    0.507757   0.120362
    18  N   -0.286077   0.243567
    19  H    0.127498   0.024106
    20  H    0.128733   0.003696
    21  H    0.110583   0.025562
    22  H    0.097476   0.074268
    23  H    0.197665  -0.005470
    24  H    0.144290  -0.003412
    25  H    0.061824   0.109592
    26  H   -0.193406   0.345267
    27  H   -0.179418   0.323041
    28  H    0.099090   0.035042
    29  H    0.178565   0.017542
    30  H    0.146088   0.029292
    31  H    0.126194   0.000759
 Sum of Mulliken charges =  -1.00000   1.00000

 Dipole moment (field-independent basis, Debye):
    X=             -0.6672    Y=              4.1420    Z=              1.1207  Tot=              4.3425
 Quadrupole moment (field-independent basis, Debye-Ang):
   XX=           -165.3175   YY=           -153.8611   ZZ=           -127.2948
   XY=            -10.4106   XZ=              3.1039   YZ=             -0.1683

 Summary of Natural Population Analysis:

                                       Natural Population
                Natural  -----------------------------------------------
    Atom  No    Charge         Core      Valence    Rydberg      Total
 -----------------------------------------------------------------------
      C    1   -0.29104      0.99965     2.28693    0.00446     3.29104
      C    2    0.01736      0.99952     1.97425    0.00887     2.98264
      C    3   -0.12259      0.99947     2.11391    0.00921     3.12259
      C    4    0.09416      0.99935     1.89268    0.01381     2.90584
      C    5   -0.08842      0.99934     2.07704    0.01204     3.08842
      C    6   -0.09451      0.99951     2.08464    0.01036     3.09451
      C    7   -0.11225      0.99952     2.10491    0.00782     3.11225
      S    8    0.13383      4.99950     2.84710    0.01958     7.86617
      C    9   -0.07475      0.99935     2.06183    0.01356     3.07475
      C   10   -0.09854      0.99949     2.08760    0.01145     3.09854
      C   11   -0.11030      0.99956     2.10085    0.00988     3.11030
      C   12   -0.09795      0.99957     2.08784    0.01055     3.09795
      C   13   -0.09787      0.99952     2.08886    0.00949     3.09787
      C   14   -0.01635      0.99944     2.00787    0.00904     3.01635
      C   15   -0.29911      0.99963     2.29398    0.00551     3.29911
      N   16   -0.21079      0.99965     2.69664    0.01450     3.71079
      N   17    0.14541      0.99970     2.33982    0.01507     3.35459
      N   18    0.01066      0.99981     2.47660    0.01292     3.48934
      H   19    0.10064      0.00000     0.39839    0.00097     0.39936
      H   20    0.09791      0.00000     0.40135    0.00075     0.40209
      H   21    0.09949      0.00000     0.39964    0.00087     0.40051
      H   22    0.09978      0.00000     0.39880    0.00142     0.40022
      H   23    0.10213      0.00000     0.39676    0.00111     0.39787
      H   24    0.09295      0.00000     0.40593    0.00112     0.40705
      H   25    0.10416      0.00000     0.39461    0.00122     0.39584
      H   26    0.09928      0.00000     0.39968    0.00104     0.40072
      H   27    0.09758      0.00000     0.40144    0.00098     0.40242
      H   28    0.09581      0.00000     0.40327    0.00092     0.40419
      H   29    0.11480      0.00000     0.38430    0.00090     0.38520
      H   30    0.11297      0.00000     0.38597    0.00106     0.38703
      H   31    0.09556      0.00000     0.40372    0.00072     0.40444
 =======================================================================
   * Total *   -0.00000     21.99157    44.79722    0.21121    67.00000

 Normal termination of Gaussian 16 at Fri Dec 11 20:02:27 2020.
