 Gaussian 16, Revision A.03,

 -----------------------------------------------------------
 # opt freq B3LYP/6-31G(d) empiricaldispersion=gd3bj scf=xqc
 -----------------------------------------------------------

 ------------------------------
 CID_75356017_JID_5803_neutraal
 ------------------------------
 Symbolic Z-matrix:
 Charge =  0 Multiplicity = 1

 SCF Done:  E(RB3LYP) =  -617.009580486     A.U. after   14 cycles
 SCF Done:  E(RB3LYP) =  -617.012771233     A.U. after   12 cycles
 SCF Done:  E(RB3LYP) =  -617.013045393     A.U. after   11 cycles
 SCF Done:  E(RB3LYP) =  -617.013073697     A.U. after   10 cycles
 SCF Done:  E(RB3LYP) =  -617.013086444     A.U. after   10 cycles
 SCF Done:  E(RB3LYP) =  -617.013099844     A.U. after   10 cycles
 SCF Done:  E(RB3LYP) =  -617.013106149     A.U. after   10 cycles
 SCF Done:  E(RB3LYP) =  -617.013110217     A.U. after    8 cycles
 SCF Done:  E(RB3LYP) =  -617.013111130     A.U. after    8 cycles
 SCF Done:  E(RB3LYP) =  -617.013111378     A.U. after    7 cycles
 SCF Done:  E(RB3LYP) =  -617.013400501     A.U. after   10 cycles
 SCF Done:  E(RB3LYP) =  -617.013404665     A.U. after   10 cycles
 SCF Done:  E(RB3LYP) =  -617.013407368     A.U. after    9 cycles
 SCF Done:  E(RB3LYP) =  -617.013409842     A.U. after    9 cycles
 SCF Done:  E(RB3LYP) =  -617.013410353     A.U. after    8 cycles
 Optimization completed.
    -- Stationary point found.
 Normal termination of Gaussian 16 at Thu Dec 10 17:36:30 2020.

 --------------------------------------------------------------------
 #N Geom=AllCheck Guess=TCheck SCRF=Check GenChk RB3LYP/6-31G(d) Freq
 --------------------------------------------------------------------

 Structure from the checkpoint file:  "JID_5803.chk"
 ------------------------------
 CID_75356017_JID_5803_neutraal
 ------------------------------
 Charge =  0 Multiplicity = 1

 SCF Done:  E(RB3LYP) =  -617.013410353     A.U. after    1 cycles

  Exact polarizability: 207.190  -3.264 120.125   1.413 -14.698 120.671
 Approx polarizability: 270.311  -5.639 175.712  -0.116 -40.328 203.344

                      1                      2                      3
                      A                      A                      A
 Frequencies --     29.4189                55.1154                61.6892
 Red. masses --      3.6881                 1.3888                 2.0452
 Frc consts  --      0.0019                 0.0025                 0.0046
 IR Inten    --      0.0980                 0.2094                 0.4649

                      4                      5                      6
                      A                      A                      A
 Frequencies --     87.1092               113.5903               154.9000
 Red. masses --      3.0904                 3.4244                 3.0572
 Frc consts  --      0.0138                 0.0260                 0.0432
 IR Inten    --      0.3649                 1.7782                 0.3120

                      7                      8                      9
                      A                      A                      A
 Frequencies --    171.0749               215.2653               225.4384
 Red. masses --      3.0430                 1.1533                 2.2857
 Frc consts  --      0.0525                 0.0315                 0.0684
 IR Inten    --      0.0779                 1.2211                 1.1456

                     10                     11                     12
                      A                      A                      A
 Frequencies --    265.6100               319.7936               325.3652
 Red. masses --      3.0820                 2.5215                 1.7573
 Frc consts  --      0.1281                 0.1519                 0.1096
 IR Inten    --     16.2286                 0.6139                 4.1038

                     13                     14                     15
                      A                      A                      A
 Frequencies --    349.4074               372.7546               381.4036
 Red. masses --      3.3917                 1.2821                 2.4115
 Frc consts  --      0.2440                 0.1050                 0.2067
 IR Inten    --      1.2847                90.3867                 0.6484

                     16                     17                     18
                      A                      A                      A
 Frequencies --    415.8455               430.6925               443.2861
 Red. masses --      3.2522                 3.5977                 3.5574
 Frc consts  --      0.3314                 0.3932                 0.4119
 IR Inten    --      0.2459                 2.9109                 6.7059

                     19                     20                     21
                      A                      A                      A
 Frequencies --    486.9707               528.9210               531.9841
 Red. masses --      2.2063                 2.9529                 2.5501
 Frc consts  --      0.3083                 0.4867                 0.4252
 IR Inten    --      1.1199                 2.3344                 1.2459

                     22                     23                     24
                      A                      A                      A
 Frequencies --    595.0913               637.6219               665.2935
 Red. masses --      3.5241                 3.1599                 5.1826
 Frc consts  --      0.7353                 0.7569                 1.3515
 IR Inten    --      2.5495                 0.6165                 4.2996

                     25                     26                     27
                      A                      A                      A
 Frequencies --    740.1978               779.4009               797.1659
 Red. masses --      3.4263                 2.7842                 2.9795
 Frc consts  --      1.1061                 0.9965                 1.1155
 IR Inten    --      1.5551                 1.0795                 1.8437

                     28                     29                     30
                      A                      A                      A
 Frequencies --    829.4050               833.1109               860.6517
 Red. masses --      1.7290                 1.5375                 2.6332
 Frc consts  --      0.7008                 0.6287                 1.1492
 IR Inten    --      1.3937                24.4660                 0.2131

                     31                     32                     33
                      A                      A                      A
 Frequencies --    882.5123               885.8725               907.8717
 Red. masses --      2.7150                 3.1454                 1.4087
 Frc consts  --      1.2459                 1.4543                 0.6841
 IR Inten    --      1.4223                 1.3782                 2.2671

                     34                     35                     36
                      A                      A                      A
 Frequencies --    918.5055               949.5492               973.0321
 Red. masses --      1.4102                 1.2958                 2.1806
 Frc consts  --      0.7010                 0.6884                 1.2164
 IR Inten    --      1.3906                 0.5174                 0.3370

                     37                     38                     39
                      A                      A                      A
 Frequencies --    995.5052              1014.3993              1019.4864
 Red. masses --      1.6511                 1.6567                 1.4531
 Frc consts  --      0.9641                 1.0044                 0.8898
 IR Inten    --      1.3431                 4.4218                 9.6292

                     40                     41                     42
                      A                      A                      A
 Frequencies --   1030.5987              1041.2278              1065.6161
 Red. masses --      1.9346                 2.3396                 1.8026
 Frc consts  --      1.2107                 1.4945                 1.2060
 IR Inten    --      3.4920                 9.9196                 5.2660

                     43                     44                     45
                      A                      A                      A
 Frequencies --   1074.2223              1100.9131              1120.7421
 Red. masses --      1.5212                 1.7773                 2.9206
 Frc consts  --      1.0343                 1.2692                 2.1614
 IR Inten    --      4.4426                 3.9139                 0.9143

                     46                     47                     48
                      A                      A                      A
 Frequencies --   1125.2642              1170.0606              1175.7200
 Red. masses --      1.3576                 1.5727                 1.2929
 Frc consts  --      1.0128                 1.2686                 1.0530
 IR Inten    --      1.8110                 3.4932                 4.7467

                     49                     50                     51
                      A                      A                      A
 Frequencies --   1200.8102              1254.8060              1259.5347
 Red. masses --      2.1873                 1.6115                 4.0170
 Frc consts  --      1.8583                 1.4950                 3.7547
 IR Inten    --     14.8212                 2.2546                13.3361

                     52                     53                     54
                      A                      A                      A
 Frequencies --   1286.2477              1296.3190              1299.7952
 Red. masses --      1.4000                 1.5652                 1.4960
 Frc consts  --      1.3646                 1.5497                 1.4891
 IR Inten    --      3.0738                36.3335                29.1732

                     55                     56                     57
                      A                      A                      A
 Frequencies --   1339.8179              1346.9567              1355.6810
 Red. masses --      1.4054                 1.3111                 1.3055
 Frc consts  --      1.4864                 1.4015                 1.4136
 IR Inten    --      0.6045                13.3009                 0.8020

                     58                     59                     60
                      A                      A                      A
 Frequencies --   1369.8704              1373.3517              1387.4011
 Red. masses --      1.5138                 2.6780                 1.4785
 Frc consts  --      1.6737                 2.9760                 1.6768
 IR Inten    --     24.9353                82.0581                18.3761

                     61                     62                     63
                      A                      A                      A
 Frequencies --   1392.5771              1402.7590              1415.4650
 Red. masses --      1.5077                 1.4712                 1.6383
 Frc consts  --      1.7227                 1.7057                 1.9339
 IR Inten    --      1.8506                 0.8294                 3.5909

                     64                     65                     66
                      A                      A                      A
 Frequencies --   1424.2843              1432.7070              1441.1379
 Red. masses --      1.4112                 2.1226                 1.2920
 Frc consts  --      1.6867                 2.5670                 1.5809
 IR Inten    --     25.2267                 1.8400                 0.8197

                     67                     68                     69
                      A                      A                      A
 Frequencies --   1446.2885              1507.4381              1509.6242
 Red. masses --      1.2433                 1.0462                 1.2962
 Frc consts  --      1.5323                 1.4007                 1.7404
 IR Inten    --      5.8819                 4.3750                12.7673

                     70                     71                     72
                      A                      A                      A
 Frequencies --   1511.1196              1516.3060              1519.7965
 Red. masses --      1.1358                 1.0916                 1.0956
 Frc consts  --      1.5281                 1.4787                 1.4910
 IR Inten    --      3.1410                 2.4711                10.2057

                     73                     74                     75
                      A                      A                      A
 Frequencies --   1524.9151              1530.1980              1532.5144
 Red. masses --      1.0666                 1.0796                 1.1155
 Frc consts  --      1.4613                 1.4893                 1.5435
 IR Inten    --      4.9115                16.0244                14.5035

                     76                     77                     78
                      A                      A                      A
 Frequencies --   1535.7155              1557.4580              1632.0769
 Red. masses --      1.5347                 2.0049                 4.0802
 Frc consts  --      2.1325                 2.8653                 6.4035
 IR Inten    --     26.6376               302.1095                25.6733

                     79                     80                     81
                      A                      A                      A
 Frequencies --   1661.9630              2994.0089              3016.3882
 Red. masses --      6.1347                 1.0833                 1.0744
 Frc consts  --      9.9836                 5.7215                 5.7595
 IR Inten    --     69.3554                28.6235                 3.7331

                     82                     83                     84
                      A                      A                      A
 Frequencies --   3022.2296              3027.4480              3036.2234
 Red. masses --      1.0723                 1.0664                 1.0697
 Frc consts  --      5.7709                 5.7584                 5.8099
 IR Inten    --      9.8555                26.2841                58.0475

                     85                     86                     87
                      A                      A                      A
 Frequencies --   3046.0029              3047.8186              3049.1209
 Red. masses --      1.0366                 1.0620                 1.0361
 Frc consts  --      5.6666                 5.8124                 5.6753
 IR Inten    --     34.3508                15.3246                42.4040

                     88                     89                     90
                      A                      A                      A
 Frequencies --   3069.1719              3076.8763              3087.7597
 Red. masses --      1.0962                 1.0963                 1.0986
 Frc consts  --      6.0841                 6.1150                 6.1713
 IR Inten    --     60.9959                54.6497                35.1735

                     91                     92                     93
                      A                      A                      A
 Frequencies --   3093.1860              3105.1745              3107.5436
 Red. masses --      1.1019                 1.1011                 1.1007
 Frc consts  --      6.2115                 6.2552                 6.2623
 IR Inten    --     63.9119                19.0368                58.8195

                     94                     95                     96
                      A                      A                      A
 Frequencies --   3117.8409              3125.4203              3128.5010
 Red. masses --      1.1028                 1.0891                 1.1021
 Frc consts  --      6.3161                 6.2682                 6.3556
 IR Inten    --     34.6087                49.9766                12.9578

                     97                     98                     99
                      A                      A                      A
 Frequencies --   3190.4367              3219.6254              3613.6272
 Red. masses --      1.0891                 1.0924                 1.0755
 Frc consts  --      6.5317                 6.6716                 8.2743
 IR Inten    --     23.0680                14.7857                18.3425

 - Thermochemistry -
 -------------------
 Temperature   298.150 Kelvin.  Pressure   1.00000 Atm.
 Atom     1 has atomic number  6 and mass  12.00000

 Molecular mass:   204.16265 amu.
 Principal axes and moments of inertia in atomic units:
                           1         2         3
     Eigenvalues --  1274.163086309.152006724.21936
           X            0.99998  -0.00513   0.00459
           Y            0.00512   0.99999   0.00114
           Z           -0.00459  -0.00112   0.99999
 This molecule is an asymmetric top.
 Rotational symmetry number  1.
 Warning -- assumption of classical behavior for rotation
           may cause significant error
 Rotational temperatures (Kelvin)      0.06798     0.01373     0.01288
 Rotational constants (GHZ):           1.41641     0.28605     0.26839
 Zero-point vibrational energy     822995.0 (Joules/Mol)
                                  196.70052 (Kcal/Mol)
 Warning -- explicit consideration of  22 degrees of freedom as
           vibrations may cause significant error
 Vibrational temperatures:     42.33    79.30    88.76   125.33   163.43
          (Kelvin)            222.87   246.14   309.72   324.36   382.15
                              460.11   468.13   502.72   536.31   548.75
                              598.31   619.67   637.79   700.64   761.00
                              765.41   856.20   917.40   957.21  1064.98
                             1121.38  1146.94  1193.33  1198.66  1238.29
                             1269.74  1274.57  1306.22  1321.52  1366.19
                             1399.98  1432.31  1459.49  1466.81  1482.80
                             1498.09  1533.18  1545.57  1583.97  1612.50
                             1619.00  1683.46  1691.60  1727.70  1805.39
                             1812.19  1850.62  1865.11  1870.12  1927.70
                             1937.97  1950.52  1970.94  1975.95  1996.16
                             2003.61  2018.26  2036.54  2049.23  2061.35
                             2073.48  2080.89  2168.87  2172.01  2174.16
                             2181.63  2186.65  2194.01  2201.61  2204.95
                             2209.55  2240.83  2348.19  2391.19  4307.71
                             4339.91  4348.31  4355.82  4368.45  4382.52
                             4385.13  4387.00  4415.85  4426.94  4442.60
                             4450.40  4467.65  4471.06  4485.88  4496.78
                             4501.22  4590.33  4632.32  5199.20

 Zero-point correction=                           0.313462 (Hartree/Particle)
 Thermal correction to Energy=                    0.328098
 Thermal correction to Enthalpy=                  0.329042
 Thermal correction to Gibbs Free Energy=         0.271310
 Sum of electronic and zero-point Energies=           -616.699948
 Sum of electronic and thermal Energies=              -616.685313
 Sum of electronic and thermal Enthalpies=            -616.684368
 Sum of electronic and thermal Free Energies=         -616.742100

                     E (Thermal)             CV                S
                      KCal/Mol        Cal/Mol-Kelvin    Cal/Mol-Kelvin
 Total                  205.884             57.081            121.507
 Electronic               0.000              0.000              0.000
 Translational            0.889              2.981             41.846
 Rotational               0.889              2.981             32.358
 Vibrational            204.107             51.120             47.304
 Vibration     1          0.593              1.984              5.868
 Vibration     2          0.596              1.976              4.625
 Vibration     3          0.597              1.973              4.402
 Vibration     4          0.601              1.958              3.724
 Vibration     5          0.607              1.938              3.207
 Vibration     6          0.620              1.897              2.611
 Vibration     7          0.626              1.878              2.424
 Vibration     8          0.645              1.818              1.999
 Vibration     9          0.650              1.802              1.915
 Vibration    10          0.671              1.736              1.625
 Vibration    11          0.706              1.636              1.311
 Vibration    12          0.709              1.625              1.283
 Vibration    13          0.727              1.576              1.169
 Vibration    14          0.744              1.528              1.068
 Vibration    15          0.751              1.510              1.034
 Vibration    16          0.779              1.436              0.906
 Vibration    17          0.792              1.403              0.856
 Vibration    18          0.803              1.376              0.816
 Vibration    19          0.843              1.279              0.692
 Vibration    20          0.884              1.186              0.590
 Vibration    21          0.887              1.179              0.583
 Vibration    22          0.953              1.042              0.458

 Optimization completed.
    -- Stationary point found.
 Normal termination of Gaussian 16 at Thu Dec 10 17:47:24 2020.

 ----------------------------------------------------------------------
 # B3LYP/6-311++G(d,p) empiricaldispersion=gd3bj scf=xqc pop=npa geom=c
 heck
 ----------------------------------------------------------------------

 --------------------------------------
 CID_75356017_JID_5803_Energie_neutraal
 --------------------------------------
 Structure from the checkpoint file:  "JID_5803.chk"
 Charge =  0 Multiplicity = 1

 SCF Done:  E(RB3LYP) =  -617.177872131     A.U. after   14 cycles
 Normal termination of Gaussian 16 at Thu Dec 10 17:52:08 2020.

 ----------------------------------------------------------------------
 # B3LYP/6-311++G(d,p) empiricaldispersion=gd3bj scf=xqc pop=npa geom=c
 heck
 ----------------------------------------------------------------------

 ------------------------------------
 CID_75356017_JID_5803_Energie_kation
 ------------------------------------
 Structure from the checkpoint file:  "JID_5803.chk"
 Charge =  1 Multiplicity = 2

 SCF Done:  E(UB3LYP) =  -616.911691555     A.U. after   20 cycles
 Normal termination of Gaussian 16 at Thu Dec 10 18:00:55 2020.
 Gaussian 16:  ES64L-G16RevA.03 25-Dec-2016

 ----------------------------------------------------------------------
 # B3LYP/6-311++G(d,p) empiricaldispersion=gd3bj scf=xqc pop=npa geom=c
 heck
 ----------------------------------------------------------------------

 -----------------------------------
 CID_75356017_JID_5803_Energie_anion
 -----------------------------------
 Structure from the checkpoint file:  "JID_5803.chk"
 Charge = -1 Multiplicity = 2

                         Standard orientation:
 ---------------------------------------------------------------------
 Center     Atomic      Atomic             Coordinates (Angstroms)
 Number     Number       Type             X           Y           Z
 ---------------------------------------------------------------------
      1          6           0       -2.244515    2.349115    0.799712
      2          6           0       -2.585314    0.863875    0.642680
      3          6           0       -3.398880    0.581433   -0.632547
      4          6           0       -3.786234   -0.899006   -0.743504
      5          6           0       -2.554071   -1.807355   -0.646188
      6          6           0       -1.756706   -1.528813    0.632705
      7          6           0       -1.340367   -0.046856    0.727958
      8          7           0       -0.379177    0.290820   -0.317552
      9          6           0        0.987419    0.143315   -0.162594
     10          6           0        1.867979    0.769531   -1.071407
     11          7           0        3.190469    0.677966   -1.026218
     12          6           0        3.757497   -0.059432   -0.052195
     13          6           0        2.972781   -0.715494    0.897624
     14          6           0        1.583173   -0.621327    0.850904
     15          6           0        5.262792   -0.135473   -0.047078
     16          1           0       -1.663189    2.731590   -0.047790
     17          1           0       -3.158735    2.949617    0.861563
     18          1           0       -1.657507    2.527296    1.707876
     19          1           0       -3.213708    0.574829    1.497600
     20          1           0       -4.295634    1.213867   -0.637196
     21          1           0       -2.816924    0.874059   -1.519194
     22          1           0       -4.322245   -1.079830   -1.683146
     23          1           0       -4.484474   -1.147003    0.069344
     24          1           0       -1.901577   -1.632923   -1.511148
     25          1           0       -2.853942   -2.861460   -0.680136
     26          1           0       -0.865648   -2.165343    0.667059
     27          1           0       -2.363339   -1.777418    1.515272
     28          1           0       -0.868234    0.129783    1.706840
     29          1           0       -0.649774    1.034025   -0.945218
     30          1           0        1.451574    1.379230   -1.876122
     31          1           0        3.445859   -1.304818    1.678211
     32          1           0        0.979489   -1.138894    1.587957
     33          1           0        5.701830    0.865605    0.033918
     34          1           0        5.630530   -0.742510    0.786110
     35          1           0        5.633278   -0.572282   -0.981837
 ---------------------------------------------------------------------

 SCF Done:  E(UB3LYP) =  -617.164905092     A.U. after   33 cycles
 SCF Done:  E(UB3LYP) =  -617.164905092     a.u. after    1 cycles

 The electronic state is 2-A.
 Alpha  occ. eigenvalues --  -14.22770 -14.21011 -10.12348 -10.11033 -10.10739
 Alpha  occ. eigenvalues --  -10.10441 -10.08316 -10.08250 -10.07922 -10.07808
 Alpha  occ. eigenvalues --  -10.06705 -10.06564 -10.06509 -10.06434 -10.06273
 Alpha  occ. eigenvalues --   -0.85772  -0.83298  -0.73718  -0.69675  -0.68088
 Alpha  occ. eigenvalues --   -0.66903  -0.64354  -0.60004  -0.57855  -0.54350
 Alpha  occ. eigenvalues --   -0.52259  -0.50235  -0.49318  -0.45545  -0.44269
 Alpha  occ. eigenvalues --   -0.40771  -0.38246  -0.37851  -0.36653  -0.35341
 Alpha  occ. eigenvalues --   -0.34493  -0.33889  -0.33360  -0.32256  -0.31422
 Alpha  occ. eigenvalues --   -0.30312  -0.30162  -0.29314  -0.28068  -0.27706
 Alpha  occ. eigenvalues --   -0.27511  -0.26670  -0.26007  -0.23883  -0.22904
 Alpha  occ. eigenvalues --   -0.22354  -0.20674  -0.19919  -0.18330  -0.16266
 Alpha  occ. eigenvalues --   -0.10857   0.04257
 Alpha virt. eigenvalues --    0.06009   0.06312   0.06715   0.07154   0.07700
 Alpha virt. eigenvalues --    0.08380   0.08668   0.09325   0.09655   0.10122
 Alpha virt. eigenvalues --    0.10567   0.10647   0.11150   0.12098   0.12339

  Beta  occ. eigenvalues --  -14.22760 -14.20981 -10.12353 -10.11029 -10.10741
  Beta  occ. eigenvalues --  -10.10426 -10.08286 -10.08229 -10.07908 -10.07801
  Beta  occ. eigenvalues --  -10.06682 -10.06544 -10.06488 -10.06424 -10.06239
  Beta  occ. eigenvalues --   -0.85743  -0.83266  -0.73686  -0.69624  -0.68063
  Beta  occ. eigenvalues --   -0.66866  -0.64320  -0.59970  -0.57803  -0.54294
  Beta  occ. eigenvalues --   -0.52218  -0.50185  -0.49260  -0.45495  -0.44237
  Beta  occ. eigenvalues --   -0.40736  -0.38190  -0.37807  -0.36620  -0.35316
  Beta  occ. eigenvalues --   -0.34449  -0.33858  -0.33324  -0.32229  -0.31392
  Beta  occ. eigenvalues --   -0.30282  -0.30121  -0.29288  -0.28017  -0.27663
  Beta  occ. eigenvalues --   -0.27473  -0.26630  -0.25975  -0.23836  -0.22868
  Beta  occ. eigenvalues --   -0.22299  -0.20627  -0.19873  -0.18222  -0.16230
  Beta  occ. eigenvalues --   -0.10807
  Beta virt. eigenvalues --    0.06152   0.06528   0.06721   0.07342   0.07730
  Beta virt. eigenvalues --    0.08198   0.08675   0.08935   0.09777   0.10146
  Beta virt. eigenvalues --    0.10523   0.10767   0.10866   0.11177   0.12461

 Mulliken charges and spin densities:
               1          2
     1  C    0.872441  -1.475214
     2  C   -1.619491   1.327938
     3  C    0.308818  -0.464571
     4  C    0.808293  -1.401810
     5  C   -0.452936   0.147134
     6  C    0.766557  -0.947669
     7  C    0.607229  -0.478180
     8  N    0.086865   0.039022
     9  C    0.707895  -1.058072
    10  C   -1.461841   0.996468
    11  N   -0.063055   0.056359
    12  C   -0.042436  -0.190088
    13  C   -0.025951   0.061740
    14  C    0.576277  -0.325163
    15  C    0.271980  -0.848823
    16  H   -0.235307   0.364253
    17  H   -0.402015   0.561243
    18  H   -0.125122   0.269918
    19  H   -0.541337   0.739300
    20  H   -0.371450   0.561721
    21  H   -0.145473   0.265355
    22  H   -0.329218   0.491716
    23  H    0.078568   0.056880
    24  H    0.168258  -0.032736
    25  H   -0.248228   0.426448
    26  H   -0.002710   0.137796
    27  H   -0.357427   0.516172
    28  H    0.193441   0.006245
    29  H    0.598238  -0.353355
    30  H   -0.207971   0.373994
    31  H   -0.328367   0.498123
    32  H   -0.322803   0.493323
    33  H    0.112175   0.032007
    34  H    0.046325   0.088454
    35  H    0.079779   0.064076
 Sum of Mulliken charges =  -1.00000   1.00000

 Dipole moment (field-independent basis, Debye):
    X=              5.3234    Y=             -1.0078    Z=             -1.5115  Tot=              5.6248
 Quadrupole moment (field-independent basis, Debye-Ang):
   XX=           -183.6941   YY=           -138.9656   ZZ=           -131.1415
   XY=              3.0255   XZ=              4.6643   YZ=              1.4173

 Summary of Natural Population Analysis:

                                       Natural Population
                Natural  -----------------------------------------------
    Atom  No    Charge         Core      Valence    Rydberg      Total
 -----------------------------------------------------------------------
      C    1   -0.28323      0.99965     2.27679    0.00679     3.28323
      C    2   -0.11333      0.99958     2.10295    0.01081     3.11333
      C    3   -0.18857      0.99961     2.17955    0.00941     3.18857
      C    4   -0.18764      0.99963     2.17993    0.00808     3.18764
      C    5   -0.19142      0.99963     2.18322    0.00858     3.19142
      C    6   -0.19124      0.99960     2.18243    0.00921     3.19124
      C    7   -0.00588      0.99956     1.99257    0.01375     3.00588
      N    8   -0.31709      0.99966     2.80726    0.01017     3.81709
      C    9    0.07503      0.99949     1.91565    0.00983     2.92497
      C   10    0.01652      0.99956     1.97089    0.01303     2.98348
      N   11   -0.23177      0.99968     2.72069    0.01140     3.73177
      C   12    0.07728      0.99955     1.91044    0.01274     2.92272
      C   13   -0.10993      0.99952     2.10140    0.00902     3.10993
      C   14   -0.11172      0.99953     2.10317    0.00902     3.11172
      C   15   -0.29400      0.99964     2.28901    0.00535     3.29400
      H   16    0.09327      0.00000     0.40546    0.00126     0.40673
      H   17    0.10376      0.00000     0.39499    0.00125     0.39624
      H   18    0.10127      0.00000     0.39767    0.00107     0.39873
      H   19    0.10181      0.00000     0.39605    0.00213     0.39819
      H   20    0.10374      0.00000     0.39474    0.00153     0.39626
      H   21    0.08944      0.00000     0.40895    0.00161     0.41056
      H   22    0.09782      0.00000     0.40116    0.00102     0.40218
      H   23    0.09416      0.00000     0.40426    0.00158     0.40584
      H   24    0.09635      0.00000     0.40223    0.00141     0.40365
      H   25    0.09925      0.00000     0.39983    0.00092     0.40075
      H   26    0.10034      0.00000     0.39831    0.00135     0.39966
      H   27    0.09794      0.00000     0.40039    0.00167     0.40206
      H   28    0.09480      0.00000     0.40281    0.00239     0.40520
      H   29    0.18797      0.00000     0.30871    0.00332     0.31203
      H   30    0.08600      0.00000     0.41243    0.00157     0.41400
      H   31    0.10101      0.00000     0.39797    0.00101     0.39899
      H   32    0.10538      0.00000     0.39298    0.00164     0.39462
      H   33    0.10272      0.00000     0.39585    0.00143     0.39728
      H   34    0.09750      0.00000     0.40172    0.00077     0.40250
      H   35    0.10245      0.00000     0.39611    0.00144     0.39755
 =======================================================================
   * Total *    0.00000     14.99388    40.82856    0.17756    56.00000

 Normal termination of Gaussian 16 at Thu Dec 10 18:15:30 2020.
