 Gaussian 16, Revision A.03,

 -----------------------------------------------------------
 # opt freq B3LYP/6-31G(d) empiricaldispersion=gd3bj scf=xqc
 -----------------------------------------------------------

 -------------------------------
 CID_107044986_JID_7789_neutraal
 -------------------------------
 Symbolic Z-matrix:
 Charge =  0 Multiplicity = 1

 SCF Done:  E(RB3LYP) =  -851.415930517     A.U. after   15 cycles
 SCF Done:  E(RB3LYP) =  -851.420787990     A.U. after   12 cycles
 SCF Done:  E(RB3LYP) =  -851.421417025     A.U. after   11 cycles
 SCF Done:  E(RB3LYP) =  -851.421679044     A.U. after   11 cycles
 SCF Done:  E(RB3LYP) =  -851.421891102     A.U. after   11 cycles
 SCF Done:  E(RB3LYP) =  -851.421908155     A.U. after   11 cycles
 SCF Done:  E(RB3LYP) =  -851.421961196     A.U. after   10 cycles
 SCF Done:  E(RB3LYP) =  -851.422018981     A.U. after   11 cycles
 SCF Done:  E(RB3LYP) =  -851.422062153     A.U. after   11 cycles
 SCF Done:  E(RB3LYP) =  -851.422107455     A.U. after   10 cycles
 SCF Done:  E(RB3LYP) =  -851.422239390     A.U. after    8 cycles
 SCF Done:  E(RB3LYP) =  -851.422239446     A.U. after    8 cycles
 SCF Done:  E(RB3LYP) =  -851.422239496     A.U. after    8 cycles
 SCF Done:  E(RB3LYP) =  -851.422239525     A.U. after    8 cycles
 SCF Done:  E(RB3LYP) =  -851.422239540     A.U. after    7 cycles
 Optimization completed.
    -- Stationary point found.
 Normal termination of Gaussian 16 at Fri Dec 11 13:20:44 2020.

 --------------------------------------------------------------------
 #N Geom=AllCheck Guess=TCheck SCRF=Check GenChk RB3LYP/6-31G(d) Freq
 --------------------------------------------------------------------

 Structure from the checkpoint file:  "JID_7789.chk"
 -------------------------------
 CID_107044986_JID_7789_neutraal
 -------------------------------
 Charge =  0 Multiplicity = 1

 SCF Done:  E(RB3LYP) =  -851.422239540     A.U. after    1 cycles

  Exact polarizability: 126.655  -2.630 137.967  12.769  -1.674 115.764
 Approx polarizability: 179.143  -1.155 210.275  28.086  -4.023 183.482

                      1                      2                      3
                      A                      A                      A
 Frequencies --     11.4828                23.1078                48.1136
 Red. masses --      6.5259                 9.2950                 4.6812
 Frc consts  --      0.0005                 0.0029                 0.0064
 IR Inten    --      1.0254                 2.0649                 2.2277

                      4                      5                      6
                      A                      A                      A
 Frequencies --     60.7343                73.8539                88.2986
 Red. masses --      5.3834                 3.3682                 2.0206
 Frc consts  --      0.0117                 0.0108                 0.0093
 IR Inten    --      0.2791                 0.5590                 0.0846

                      7                      8                      9
                      A                      A                      A
 Frequencies --     99.6562               140.1919               175.5740
 Red. masses --      1.9572                 4.6739                 3.7560
 Frc consts  --      0.0115                 0.0541                 0.0682
 IR Inten    --      0.5004                 0.4851                 0.5163

                     10                     11                     12
                      A                      A                      A
 Frequencies --    206.4350               226.3876               270.7445
 Red. masses --      3.3371                 3.9212                 2.9904
 Frc consts  --      0.0838                 0.1184                 0.1292
 IR Inten    --      4.2579                 4.5562                 2.7305

                     13                     14                     15
                      A                      A                      A
 Frequencies --    298.8418               336.5563               388.8163
 Red. masses --      3.3286                 3.2015                 2.9336
 Frc consts  --      0.1751                 0.2137                 0.2613
 IR Inten    --      8.0215                 0.0875                 1.6216

                     16                     17                     18
                      A                      A                      A
 Frequencies --    416.1710               427.7273               433.3679
 Red. masses --      3.3381                 4.8114                 2.2846
 Frc consts  --      0.3406                 0.5186                 0.2528
 IR Inten    --      1.7855                 1.6045                 0.4954

                     19                     20                     21
                      A                      A                      A
 Frequencies --    469.4712               481.5019               487.3325
 Red. masses --      2.4515                 3.1577                 2.5523
 Frc consts  --      0.3183                 0.4313                 0.3571
 IR Inten    --      2.6712                 4.1424                 2.5607

                     22                     23                     24
                      A                      A                      A
 Frequencies --    571.8774               618.2363               645.4223
 Red. masses --      2.3647                 3.1313                 1.4842
 Frc consts  --      0.4556                 0.7052                 0.3643
 IR Inten    --     33.1282                30.3010                75.8917

                     25                     26                     27
                      A                      A                      A
 Frequencies --    661.0844               694.0308               753.0492
 Red. masses --      3.8344                10.2365                 5.9013
 Frc consts  --      0.9873                 2.9051                 1.9717
 IR Inten    --     35.1036                 0.3137                10.4416

                     28                     29                     30
                      A                      A                      A
 Frequencies --    766.8081               803.4680               838.2106
 Red. masses --      3.7051                 3.2936                 5.0681
 Frc consts  --      1.2836                 1.2527                 2.0980
 IR Inten    --     42.0906                22.5226                17.8315

                     31                     32                     33
                      A                      A                      A
 Frequencies --    863.9621               876.3133               900.6454
 Red. masses --      2.7551                 3.7478                 1.7182
 Frc consts  --      1.2117                 1.6957                 0.8212
 IR Inten    --      1.4983                 7.8075                 4.0611

                     34                     35                     36
                      A                      A                      A
 Frequencies --    920.6375               961.8119               987.7253
 Red. masses --      3.1833                 2.2929                 2.4044
 Frc consts  --      1.5897                 1.2498                 1.3820
 IR Inten    --      6.9997                 2.2650                 9.6975

                     37                     38                     39
                      A                      A                      A
 Frequencies --   1043.3013              1050.2573              1055.6702
 Red. masses --      2.8914                 2.7159                 3.5917
 Frc consts  --      1.8543                 1.7650                 2.3584
 IR Inten    --     35.9563                58.6933                18.2249

                     40                     41                     42
                      A                      A                      A
 Frequencies --   1058.6241              1093.1794              1105.0967
 Red. masses --      2.3998                 2.4301                 7.0400
 Frc consts  --      1.5846                 1.7110                 5.0655
 IR Inten    --     40.7747                 3.1911                 2.3949

                     43                     44                     45
                      A                      A                      A
 Frequencies --   1127.2247              1132.3872              1160.6832
 Red. masses --      3.9392                 3.1463                 2.0347
 Frc consts  --      2.9490                 2.3770                 1.6151
 IR Inten    --    119.9244                12.8571                20.5881

                     46                     47                     48
                      A                      A                      A
 Frequencies --   1161.5368              1169.8226              1193.8927
 Red. masses --      1.3280                 2.2438                 2.3286
 Frc consts  --      1.0556                 1.8091                 1.9556
 IR Inten    --      0.6227                70.3663                59.3344

                     49                     50                     51
                      A                      A                      A
 Frequencies --   1248.1398              1255.8451              1274.1863
 Red. masses --      1.5448                 4.6997                 1.2878
 Frc consts  --      1.4179                 4.3671                 1.2319
 IR Inten    --     83.2297                 2.6483                13.6361

                     52                     53                     54
                      A                      A                      A
 Frequencies --   1292.1106              1309.2387              1317.2941
 Red. masses --      1.3560                 2.4870                 1.3861
 Frc consts  --      1.3338                 2.5117                 1.4172
 IR Inten    --      4.1644                 5.8043                14.5452

                     55                     56                     57
                      A                      A                      A
 Frequencies --   1354.8540              1368.3137              1385.8951
 Red. masses --      1.3087                 1.7591                 1.9028
 Frc consts  --      1.4154                 1.9405                 2.1533
 IR Inten    --      5.0963                 1.5951                21.1200

                     58                     59                     60
                      A                      A                      A
 Frequencies --   1391.1262              1401.7940              1406.0304
 Red. masses --      1.3037                 1.4957                 1.4966
 Frc consts  --      1.4864                 1.7317                 1.7432
 IR Inten    --     15.1730                16.0889                49.2976

                     61                     62                     63
                      A                      A                      A
 Frequencies --   1411.3660              1416.8031              1433.7612
 Red. masses --      1.3109                 6.0228                 1.4458
 Frc consts  --      1.5386                 7.1230                 1.7511
 IR Inten    --     20.1345                 4.6394                16.1929

                     64                     65                     66
                      A                      A                      A
 Frequencies --   1436.5726              1446.7281              1468.2309
 Red. masses --      1.7875                 1.9621                 1.1870
 Frc consts  --      2.1735                 2.4196                 1.5076
 IR Inten    --      5.9435                12.5692                 0.3997

                     67                     68                     69
                      A                      A                      A
 Frequencies --   1487.9395              1493.6981              1503.4223
 Red. masses --      1.1018                 1.0825                 1.1136
 Frc consts  --      1.4372                 1.4230                 1.4830
 IR Inten    --      9.5366                 8.8122                 6.2407

                     70                     71                     72
                      A                      A                      A
 Frequencies --   1505.3481              1509.6498              1521.2712
 Red. masses --      1.0422                 1.1114                 2.1281
 Frc consts  --      1.3915                 1.4924                 2.9017
 IR Inten    --     10.1993                 9.9119                 9.2201

                     73                     74                     75
                      A                      A                      A
 Frequencies --   1528.0728              1538.0933              1853.9751
 Red. masses --      1.0971                 1.6680                 9.5284
 Frc consts  --      1.5093                 2.3249                19.2966
 IR Inten    --      1.4172                 9.6129               254.4331

                     76                     77                     78
                      A                      A                      A
 Frequencies --   3018.0576              3022.9385              3030.4830
 Red. masses --      1.0717                 1.0710                 1.0668
 Frc consts  --      5.7513                 5.7664                 5.7725
 IR Inten    --     25.8602                22.4955                 6.9137

                     79                     80                     81
                      A                      A                      A
 Frequencies --   3035.0030              3063.5161              3086.4512
 Red. masses --      1.0751                 1.0618                 1.0615
 Frc consts  --      5.8345                 5.8711                 5.9579
 IR Inten    --    103.7128                31.5537                14.4934

                     82                     83                     84
                      A                      A                      A
 Frequencies --   3089.7057              3098.7161              3106.3055
 Red. masses --      1.0322                 1.0965                 1.1015
 Frc consts  --      5.8053                 6.2033                 6.2623
 IR Inten    --     19.2777                28.4563                54.7474

                     85                     86                     87
                      A                      A                      A
 Frequencies --   3117.8131              3134.7747              3151.6323
 Red. masses --      1.1033                 1.0943                 1.1034
 Frc consts  --      6.3191                 6.3355                 6.4574
 IR Inten    --     15.5383                11.3208                 6.2632

                     88                     89                     90
                      A                      A                      A
 Frequencies --   3163.6093              3200.3172              3681.6692
 Red. masses --      1.1069                 1.1051                 1.0639
 Frc consts  --      6.5271                 6.6689                 8.4963
 IR Inten    --      6.8591                 0.6084                48.4287

 - Thermochemistry -
 -------------------
 Temperature   298.150 Kelvin.  Pressure   1.00000 Atm.
 Atom     1 has atomic number  6 and mass  12.00000

 Molecular mass:   241.11749 amu.
 Principal axes and moments of inertia in atomic units:
                           1         2         3
     Eigenvalues --  3213.068894471.889535851.35760
           X            0.99950  -0.02517   0.01929
           Y            0.02544   0.99958  -0.01360
           Z           -0.01894   0.01409   0.99972
 This molecule is an asymmetric top.
 Rotational symmetry number  1.
 Warning -- assumption of classical behavior for rotation
           may cause significant error
 Rotational temperatures (Kelvin)      0.02696     0.01937     0.01480
 Rotational constants (GHZ):           0.56169     0.40357     0.30843
 Zero-point vibrational energy     693475.7 (Joules/Mol)
                                  165.74466 (Kcal/Mol)
 Warning -- explicit consideration of  23 degrees of freedom as
           vibrations may cause significant error
 Vibrational temperatures:     16.52    33.25    69.22    87.38   106.26
          (Kelvin)            127.04   143.38   201.70   252.61   297.01
                              325.72   389.54   429.97   484.23   559.42
                              598.78   615.40   623.52   675.46   692.77
                              701.16   822.80   889.50   928.62   951.15
                              998.56  1083.47  1103.27  1156.01  1206.00
                             1243.05  1260.82  1295.83  1324.59  1383.83
                             1421.12  1501.08  1511.09  1518.87  1523.12
                             1572.84  1589.99  1621.82  1629.25  1669.96
                             1671.19  1683.11  1717.75  1795.79  1806.88
                             1833.27  1859.06  1883.70  1895.29  1949.33
                             1968.70  1993.99  2001.52  2016.87  2022.96
                             2030.64  2038.46  2062.86  2066.91  2081.52
                             2112.46  2140.81  2149.10  2163.09  2165.86
                             2172.05  2188.77  2198.56  2212.97  2667.46
                             4342.31  4349.33  4360.19  4366.69  4407.72
                             4440.71  4445.40  4458.36  4469.28  4485.84
                             4510.24  4534.50  4551.73  4604.54  5297.10

 Zero-point correction=                           0.264131 (Hartree/Particle)
 Thermal correction to Energy=                    0.280015
 Thermal correction to Enthalpy=                  0.280960
 Thermal correction to Gibbs Free Energy=         0.217413
 Sum of electronic and zero-point Energies=           -851.158109
 Sum of electronic and thermal Energies=              -851.142224
 Sum of electronic and thermal Enthalpies=            -851.141280
 Sum of electronic and thermal Free Energies=         -851.204826

                     E (Thermal)             CV                S
                      KCal/Mol        Cal/Mol-Kelvin    Cal/Mol-Kelvin
 Total                  175.712             58.155            133.744
 Electronic               0.000              0.000              0.000
 Translational            0.889              2.981             42.341
 Rotational               0.889              2.981             32.797
 Vibrational            173.935             52.194             58.606
 Vibration     1          0.593              1.987              7.736
 Vibration     2          0.593              1.985              6.347
 Vibration     3          0.595              1.978              4.893
 Vibration     4          0.597              1.973              4.433
 Vibration     5          0.599              1.966              4.048
 Vibration     6          0.601              1.957              3.697
 Vibration     7          0.604              1.949              3.461
 Vibration     8          0.615              1.913              2.801
 Vibration     9          0.628              1.872              2.375
 Vibration    10          0.641              1.831              2.075
 Vibration    11          0.650              1.801              1.907
 Vibration    12          0.674              1.727              1.591
 Vibration    13          0.692              1.676              1.423
 Vibration    14          0.717              1.602              1.228
 Vibration    15          0.757              1.494              1.005
 Vibration    16          0.779              1.435              0.905
 Vibration    17          0.789              1.410              0.866
 Vibration    18          0.794              1.398              0.848
 Vibration    19          0.827              1.318              0.739
 Vibration    20          0.838              1.291              0.706
 Vibration    21          0.843              1.278              0.691
 Vibration    22          0.928              1.092              0.501
 Vibration    23          0.978              0.993              0.419

 Optimization completed.
    -- Stationary point found.
 Normal termination of Gaussian 16 at Fri Dec 11 13:32:55 2020.

 ----------------------------------------------------------------------
 # B3LYP/6-311++G(d,p) empiricaldispersion=gd3bj scf=xqc pop=npa geom=c
 heck
 ----------------------------------------------------------------------

 ---------------------------------------
 CID_107044986_JID_7789_Energie_neutraal
 ---------------------------------------
 Structure from the checkpoint file:  "JID_7789.chk"
 Charge =  0 Multiplicity = 1

 SCF Done:  E(RB3LYP) =  -851.668191850     A.U. after   15 cycles
 Normal termination of Gaussian 16 at Fri Dec 11 13:37:45 2020.

 ----------------------------------------------------------------------
 # B3LYP/6-311++G(d,p) empiricaldispersion=gd3bj scf=xqc pop=npa geom=c
 heck
 ----------------------------------------------------------------------

 -------------------------------------
 CID_107044986_JID_7789_Energie_kation
 -------------------------------------
 Structure from the checkpoint file:  "JID_7789.chk"
 Charge =  1 Multiplicity = 2

 SCF Done:  E(UB3LYP) =  -851.383938237     A.U. after   20 cycles
 Normal termination of Gaussian 16 at Fri Dec 11 13:46:49 2020.
 Gaussian 16:  ES64L-G16RevA.03 25-Dec-2016

 ----------------------------------------------------------------------
 # B3LYP/6-311++G(d,p) empiricaldispersion=gd3bj scf=xqc pop=npa geom=c
 heck
 ----------------------------------------------------------------------

 ------------------------------------
 CID_107044986_JID_7789_Energie_anion
 ------------------------------------
 Structure from the checkpoint file:  "JID_7789.chk"
 Charge = -1 Multiplicity = 2

                         Standard orientation:
 ---------------------------------------------------------------------
 Center     Atomic      Atomic             Coordinates (Angstroms)
 Number     Number       Type             X           Y           Z
 ---------------------------------------------------------------------
      1          6           0        3.476400   -1.765296    1.300010
      2          7           0        2.600323   -1.226595    0.276626
      3          7           0        2.552086    0.066357   -0.040497
      4          6           0        1.631139    0.073714   -1.005936
      5          7           0        1.154118   -1.174867   -1.258305
      6          7           0        1.777004   -1.989173   -0.438128
      7          6           0        1.094750    1.307140   -1.681419
      8          7           0       -0.022965    1.982545   -1.033856
      9          6           0        0.270707    2.856869    0.099765
     10          6           0        0.184354    2.149133    1.454212
     11          8           0       -1.073730    1.491426    1.589387
     12          6           0       -1.250031    0.504007    0.573386
     13          6           0       -1.220034    1.175414   -0.809783
     14          6           0       -2.581134   -0.194739    0.878571
     15          6           0       -2.686617   -1.511222    0.145600
     16          8           0       -2.380938   -2.591664    0.595830
     17          8           0       -3.136776   -1.352754   -1.126942
     18          1           0        4.517691   -1.574962    1.030302
     19          1           0        3.252166   -1.291729    2.258217
     20          1           0        3.287684   -2.836986    1.353853
     21          1           0        1.906483    2.031643   -1.796651
     22          1           0        0.771155    1.004719   -2.683783
     23          1           0       -0.469652    3.669925    0.095172
     24          1           0        1.260809    3.304897   -0.037181
     25          1           0        1.002714    1.422887    1.564753
     26          1           0        0.241331    2.870551    2.275539
     27          1           0       -0.439283   -0.235025    0.651239
     28          1           0       -2.098130    1.834670   -0.873124
     29          1           0       -1.305207    0.426273   -1.600644
     30          1           0       -2.616029   -0.404016    1.949505
     31          1           0       -3.414728    0.462902    0.612340
     32          1           0       -3.106612   -2.239810   -1.533061
 ---------------------------------------------------------------------

 SCF Done:  E(UB3LYP) =  -851.657986908     A.U. after   33 cycles
 SCF Done:  E(UB3LYP) =  -851.657986908     a.u. after    1 cycles

 The electronic state is 2-A.
 Alpha  occ. eigenvalues --  -19.08385 -19.03431 -19.02661 -14.31133 -14.25778
 Alpha  occ. eigenvalues --  -14.23414 -14.22290 -14.21310 -10.21779 -10.13421
 Alpha  occ. eigenvalues --  -10.11929 -10.11458 -10.11289 -10.10923 -10.10229
 Alpha  occ. eigenvalues --  -10.09879 -10.09550  -1.02774  -1.02250  -0.95092
 Alpha  occ. eigenvalues --   -0.93292  -0.83465  -0.83158  -0.77776  -0.71505
 Alpha  occ. eigenvalues --   -0.66163  -0.64597  -0.62568  -0.56896  -0.56124
 Alpha  occ. eigenvalues --   -0.52267  -0.51308  -0.50346  -0.47608  -0.41971
 Alpha  occ. eigenvalues --   -0.41684  -0.40500  -0.40222  -0.39729  -0.38790
 Alpha  occ. eigenvalues --   -0.38156  -0.36813  -0.36092  -0.35066  -0.34001
 Alpha  occ. eigenvalues --   -0.32151  -0.31983  -0.31737  -0.30979  -0.29820
 Alpha  occ. eigenvalues --   -0.28577  -0.28220  -0.27348  -0.26322  -0.25234
 Alpha  occ. eigenvalues --   -0.23778  -0.23048  -0.20491  -0.19933  -0.19492
 Alpha  occ. eigenvalues --   -0.18526  -0.17880  -0.17473  -0.11264   0.04567
 Alpha virt. eigenvalues --    0.06152   0.06742   0.06949   0.07715   0.08503
 Alpha virt. eigenvalues --    0.08719   0.09404   0.10079   0.10507   0.11007
 Alpha virt. eigenvalues --    0.11476   0.11965   0.12372   0.12594   0.13609

  Beta  occ. eigenvalues --  -19.08361 -19.03428 -19.02648 -14.30901 -14.25521
  Beta  occ. eigenvalues --  -14.23256 -14.22282 -14.21310 -10.21752 -10.13416
  Beta  occ. eigenvalues --  -10.11925 -10.11464 -10.11258 -10.10914 -10.10217
  Beta  occ. eigenvalues --  -10.09867 -10.09544  -1.02464  -1.02204  -0.95084
  Beta  occ. eigenvalues --   -0.93257  -0.83366  -0.82947  -0.77516  -0.71484
  Beta  occ. eigenvalues --   -0.66089  -0.64543  -0.62473  -0.56867  -0.56076
  Beta  occ. eigenvalues --   -0.52168  -0.51118  -0.50247  -0.47564  -0.41894
  Beta  occ. eigenvalues --   -0.41628  -0.40268  -0.39864  -0.39524  -0.38750
  Beta  occ. eigenvalues --   -0.38119  -0.36759  -0.36050  -0.35007  -0.33942
  Beta  occ. eigenvalues --   -0.32080  -0.31863  -0.31595  -0.30950  -0.29781
  Beta  occ. eigenvalues --   -0.28510  -0.28175  -0.27312  -0.26161  -0.25181
  Beta  occ. eigenvalues --   -0.23720  -0.22983  -0.19692  -0.19613  -0.19444
  Beta  occ. eigenvalues --   -0.18465  -0.17708  -0.16811  -0.11219
  Beta virt. eigenvalues --    0.06455   0.07146   0.07572   0.07954   0.08332
  Beta virt. eigenvalues --    0.08928   0.09224   0.09606   0.10227   0.10824
  Beta virt. eigenvalues --    0.11449   0.11777   0.12270   0.12528   0.12716

 Mulliken charges and spin densities:
               1          2
     1  C    1.111497  -1.384227
     2  N    0.061114   0.127101
     3  N   -0.174334   0.223560
     4  C   -0.566941   0.170007
     5  N   -0.088912  -0.049413
     6  N   -0.055515   0.206548
     7  C   -0.080159  -0.516336
     8  N    0.068068   0.146675
     9  C    0.239017  -0.374756
    10  C   -0.325900   0.051649
    11  O   -0.072013   0.012811
    12  C   -0.419730   0.503403
    13  C   -0.415460  -0.329910
    14  C    0.388765  -0.756896
    15  C   -0.095189  -0.071805
    16  O   -0.256044   0.017562
    17  O   -0.139747   0.010864
    18  H   -0.773674   0.975283
    19  H   -0.044716   0.205468
    20  H   -0.113092   0.282983
    21  H   -0.101303   0.282388
    22  H    0.111767   0.062049
    23  H    0.109390   0.036222
    24  H   -0.225299   0.368438
    25  H    0.258468  -0.122848
    26  H   -0.115192   0.312609
    27  H    0.290928  -0.020395
    28  H   -0.069650   0.254036
    29  H    0.293268  -0.089861
    30  H    0.101823   0.098830
    31  H    0.083815   0.100990
    32  H    0.014946   0.266974
 Sum of Mulliken charges =  -1.00000   1.00000

 Dipole moment (field-independent basis, Debye):
    X=             -6.2227    Y=              3.0090    Z=             -0.2064  Tot=              6.9151
 Quadrupole moment (field-independent basis, Debye-Ang):
   XX=           -176.4221   YY=           -148.6774   ZZ=           -125.8786
   XY=              6.7254   XZ=             -3.5858   YZ=              2.0746

 Summary of Natural Population Analysis:

                                       Natural Population
                Natural  -----------------------------------------------
    Atom  No    Charge         Core      Valence    Rydberg      Total
 -----------------------------------------------------------------------
      C    1   -0.17675      0.99963     2.16939    0.00772     3.17675
      N    2    0.01323      0.99972     2.47129    0.01576     3.48677
      N    3   -0.13541      0.99968     2.62405    0.01167     3.63541
      C    4    0.13540      0.99965     1.84586    0.01909     2.86460
      N    5   -0.16942      0.99971     2.65594    0.01377     3.66942
      N    6   -0.00168      0.99977     2.48657    0.01534     3.50168
      C    7   -0.10093      0.99956     2.08907    0.01230     3.10093
      N    8   -0.27586      0.99973     2.76179    0.01433     3.77586
      C    9   -0.09601      0.99961     2.08553    0.01087     3.09601
      C   10   -0.02301      0.99957     2.01160    0.01184     3.02301
      O   11   -0.30560      0.99988     3.29647    0.00924     4.30560
      C   12    0.05711      0.99954     1.93053    0.01282     2.94289
      C   13   -0.09914      0.99958     2.08811    0.01144     3.09914
      C   14   -0.24394      0.99955     2.23440    0.00999     3.24394
      C   15    0.40829      0.99972     1.56596    0.02603     2.59171
      O   16   -0.29879      0.99987     3.29292    0.00601     4.29879
      O   17   -0.34757      0.99988     3.34133    0.00636     4.34757
      H   18    0.11126      0.00000     0.38055    0.00818     0.38874
      H   19    0.09989      0.00000     0.39918    0.00093     0.40011
      H   20    0.10829      0.00000     0.39031    0.00140     0.39171
      H   21    0.10576      0.00000     0.39314    0.00110     0.39424
      H   22    0.10260      0.00000     0.39613    0.00127     0.39740
      H   23    0.09123      0.00000     0.40758    0.00119     0.40877
      H   24    0.10114      0.00000     0.39773    0.00113     0.39886
      H   25    0.08832      0.00000     0.40987    0.00181     0.41168
      H   26    0.08844      0.00000     0.41037    0.00120     0.41156
      H   27    0.09053      0.00000     0.40710    0.00237     0.40947
      H   28    0.09302      0.00000     0.40570    0.00128     0.40698
      H   29    0.11078      0.00000     0.38787    0.00134     0.38922
      H   30    0.11786      0.00000     0.38095    0.00119     0.38214
      H   31    0.10952      0.00000     0.38918    0.00131     0.39048
      H   32    0.24142      0.00000     0.25436    0.00423     0.25858
 =======================================================================
   * Total *    0.00000     16.99466    46.76082    0.24452    64.00000

 Normal termination of Gaussian 16 at Fri Dec 11 14:00:46 2020.
