 Gaussian 16, Revision A.03,

 -----------------------------------------------------------
 # opt freq B3LYP/6-31G(d) empiricaldispersion=gd3bj scf=xqc
 -----------------------------------------------------------

 -------------------------------
 CID_102700087_JID_5308_neutraal
 -------------------------------
 Symbolic Z-matrix:
 Charge =  0 Multiplicity = 1

 SCF Done:  E(RB3LYP) =  -1016.60054725     A.U. after   14 cycles
 SCF Done:  E(RB3LYP) =  -1016.60223696     A.U. after   12 cycles
 SCF Done:  E(RB3LYP) =  -1016.60365462     A.U. after   13 cycles
 SCF Done:  E(RB3LYP) =  -1016.60506397     A.U. after   12 cycles
 SCF Done:  E(RB3LYP) =  -1016.60618555     A.U. after   12 cycles
 SCF Done:  E(RB3LYP) =  -1016.60665556     A.U. after   13 cycles
 SCF Done:  E(RB3LYP) =  -1016.60771304     A.U. after   11 cycles
 SCF Done:  E(RB3LYP) =  -1016.60796347     A.U. after   11 cycles
 SCF Done:  E(RB3LYP) =  -1016.60804905     A.U. after   11 cycles
 SCF Done:  E(RB3LYP) =  -1016.60806644     A.U. after   10 cycles
 SCF Done:  E(RB3LYP) =  -1016.60808031     A.U. after    8 cycles
 SCF Done:  E(RB3LYP) =  -1016.60808165     A.U. after    8 cycles
 SCF Done:  E(RB3LYP) =  -1016.60808195     A.U. after    8 cycles
 SCF Done:  E(RB3LYP) =  -1016.60808204     A.U. after    7 cycles
 SCF Done:  E(RB3LYP) =  -1016.60808206     A.U. after    7 cycles
 Optimization completed.
    -- Stationary point found.
 Normal termination of Gaussian 16 at Thu Dec 10 15:32:28 2020.

 --------------------------------------------------------------------
 #N Geom=AllCheck Guess=TCheck SCRF=Check GenChk RB3LYP/6-31G(d) Freq
 --------------------------------------------------------------------

 Structure from the checkpoint file:  "JID_5308.chk"
 -------------------------------
 CID_102700087_JID_5308_neutraal
 -------------------------------
 Charge =  0 Multiplicity = 1

 SCF Done:  E(RB3LYP) =  -1016.60808206     A.U. after    1 cycles

  Exact polarizability: 167.441  -2.560 169.304   8.147  -2.130 119.287
 Approx polarizability: 193.779  -5.738 259.137  16.443  -0.619 189.801

                      1                      2                      3
                      A                      A                      A
 Frequencies --     24.6434                35.2945                41.1903
 Red. masses --      4.1202                 3.0346                 4.0590
 Frc consts  --      0.0015                 0.0022                 0.0041
 IR Inten    --      0.4801                 0.4417                 1.2356

                      4                      5                      6
                      A                      A                      A
 Frequencies --     49.1206                56.3790                73.0232
 Red. masses --      3.3266                 5.0084                 3.6267
 Frc consts  --      0.0047                 0.0094                 0.0114
 IR Inten    --      1.8306                 2.0006                 0.6157

                      7                      8                      9
                      A                      A                      A
 Frequencies --     85.1486                93.3028               126.0441
 Red. masses --      3.9188                 1.9191                 2.2209
 Frc consts  --      0.0167                 0.0098                 0.0208
 IR Inten    --      0.3679                 2.6166                 0.1748

                     10                     11                     12
                      A                      A                      A
 Frequencies --    173.7103               183.1910               218.4197
 Red. masses --      2.7712                 1.4767                 1.5894
 Frc consts  --      0.0493                 0.0292                 0.0447
 IR Inten    --      2.2579                 0.9899                 1.0753

                     13                     14                     15
                      A                      A                      A
 Frequencies --    246.2696               255.2761               284.0078
 Red. masses --      1.7401                 2.0362                 1.9633
 Frc consts  --      0.0622                 0.0782                 0.0933
 IR Inten    --      0.5783                 6.3439                 0.2485

                     16                     17                     18
                      A                      A                      A
 Frequencies --    299.1757               305.4128               323.8086
 Red. masses --      2.0109                 1.7185                 4.3263
 Frc consts  --      0.1060                 0.0944                 0.2673
 IR Inten    --      1.5870                 0.8716                 1.3114

                     19                     20                     21
                      A                      A                      A
 Frequencies --    343.7791               351.7211               385.4381
 Red. masses --      2.3877                 3.3582                 2.1252
 Frc consts  --      0.1663                 0.2448                 0.1860
 IR Inten    --      0.7121                 3.5264                 4.5441

                     22                     23                     24
                      A                      A                      A
 Frequencies --    407.2106               443.4477               470.1569
 Red. masses --      2.5289                 1.9889                 2.4281
 Frc consts  --      0.2471                 0.2304                 0.3162
 IR Inten    --      7.5299                 1.7641                 2.2812

                     25                     26                     27
                      A                      A                      A
 Frequencies --    514.4502               563.2278               588.8595
 Red. masses --      3.0502                 2.6543                 3.2461
 Frc consts  --      0.4756                 0.4961                 0.6632
 IR Inten    --      4.1988                 1.0693                20.4629

                     28                     29                     30
                      A                      A                      A
 Frequencies --    636.2715               672.7950               704.4661
 Red. masses --      1.6380                 3.9171                 1.3008
 Frc consts  --      0.3907                 1.0447                 0.3803
 IR Inten    --      2.7138                75.9105                98.1322

                     31                     32                     33
                      A                      A                      A
 Frequencies --    721.6723               760.3600               821.5334
 Red. masses --      1.2824                 1.6622                 2.2417
 Frc consts  --      0.3935                 0.5662                 0.8914
 IR Inten    --     30.5228                 1.9888                 0.5861

                     34                     35                     36
                      A                      A                      A
 Frequencies --    828.6242               831.0681               860.6315
 Red. masses --      2.6278                 1.7178                 2.0253
 Frc consts  --      1.0631                 0.6990                 0.8839
 IR Inten    --      5.7617                 1.5222                 4.7940

                     37                     38                     39
                      A                      A                      A
 Frequencies --    901.7067               913.6440               935.6773
 Red. masses --      1.6233                 2.5630                 1.4572
 Frc consts  --      0.7777                 1.2606                 0.7517
 IR Inten    --      0.8156                17.3387                 0.2400

                     40                     41                     42
                      A                      A                      A
 Frequencies --    961.1816               974.8586              1035.6996
 Red. masses --      1.6906                 1.8868                 2.3816
 Frc consts  --      0.9202                 1.0565                 1.5052
 IR Inten    --      0.5138                 2.2575                22.7297

                     43                     44                     45
                      A                      A                      A
 Frequencies --   1038.7421              1047.6642              1057.6205
 Red. masses --      1.7063                 2.1534                 2.2716
 Frc consts  --      1.0847                 1.3926                 1.4971
 IR Inten    --      3.5135                21.5648                13.2695

                     46                     47                     48
                      A                      A                      A
 Frequencies --   1077.7893              1103.5661              1132.8655
 Red. masses --      2.0045                 2.2013                 2.9062
 Frc consts  --      1.3719                 1.5795                 2.1975
 IR Inten    --      4.4863                 8.4505                 6.5991

                     49                     50                     51
                      A                      A                      A
 Frequencies --   1145.5871              1164.0742              1168.7950
 Red. masses --      2.1239                 2.0016                 2.1452
 Frc consts  --      1.6422                 1.5980                 1.7266
 IR Inten    --      3.6586                63.8582                21.3501

                     52                     53                     54
                      A                      A                      A
 Frequencies --   1184.8596              1195.3806              1222.5581
 Red. masses --      1.7135                 1.9624                 1.5503
 Frc consts  --      1.4173                 1.6522                 1.3652
 IR Inten    --     55.0599               101.2176                43.8099

                     55                     56                     57
                      A                      A                      A
 Frequencies --   1232.9647              1239.3818              1258.6977
 Red. masses --      1.7340                 1.5699                 1.4793
 Frc consts  --      1.5531                 1.4208                 1.3808
 IR Inten    --    130.4620                18.0178                25.0925

                     58                     59                     60
                      A                      A                      A
 Frequencies --   1293.4347              1306.9684              1319.0717
 Red. masses --      1.2710                 1.2476                 1.1870
 Frc consts  --      1.2528                 1.2556                 1.2168
 IR Inten    --     20.1479                14.4304                 6.0232

                     61                     62                     63
                      A                      A                      A
 Frequencies --   1351.1354              1359.9215              1383.1624
 Red. masses --      1.0976                 1.3521                 1.3467
 Frc consts  --      1.1806                 1.4732                 1.5180
 IR Inten    --      1.7096                28.7838                24.3968

                     64                     65                     66
                      A                      A                      A
 Frequencies --   1393.1466              1403.0300              1407.5000
 Red. masses --      1.4676                 1.3638                 1.2807
 Frc consts  --      1.6783                 1.5818                 1.4949
 IR Inten    --      1.2239                20.0996                 2.0231

                     67                     68                     69
                      A                      A                      A
 Frequencies --   1422.2334              1423.1726              1427.9206
 Red. masses --      1.2741                 1.4222                 1.3947
 Frc consts  --      1.5185                 1.6972                 1.6755
 IR Inten    --      1.8281                 0.6318                10.5758

                     70                     71                     72
                      A                      A                      A
 Frequencies --   1442.5375              1444.2881              1476.0127
 Red. masses --      1.2902                 1.2716                 1.9123
 Frc consts  --      1.5819                 1.5628                 2.4547
 IR Inten    --     15.6849                 8.1963                94.7770

                     73                     74                     75
                      A                      A                      A
 Frequencies --   1486.0272              1503.4541              1507.0863
 Red. masses --      1.1936                 1.1269                 1.0754
 Frc consts  --      1.5530                 1.5007                 1.4391
 IR Inten    --     58.7273                 3.1614                 2.9816

                     76                     77                     78
                      A                      A                      A
 Frequencies --   1517.8901              1520.3084              1527.2057
 Red. masses --      1.0858                 1.0590                 1.0665
 Frc consts  --      1.4739                 1.4421                 1.4656
 IR Inten    --      3.6742                 1.8843                 3.5119

                     79                     80                     81
                      A                      A                      A
 Frequencies --   1527.8387              1528.6338              1534.1464
 Red. masses --      1.0584                 1.0767                 1.0668
 Frc consts  --      1.4556                 1.4823                 1.4794
 IR Inten    --      9.8925                 3.8933                 1.3723

                     82                     83                     84
                      A                      A                      A
 Frequencies --   1534.7690              1541.2221              1543.3765
 Red. masses --      1.0918                 1.0926                 1.0734
 Frc consts  --      1.5152                 1.5291                 1.5064
 IR Inten    --     12.7136                 6.4185                 2.8160

                     85                     86                     87
                      A                      A                      A
 Frequencies --   1546.9567              1557.3043              1594.7399
 Red. masses --      1.2868                 1.0891                 1.5689
 Frc consts  --      1.8144                 1.5562                 2.3509
 IR Inten    --     90.7638                 3.9765               238.9805

                     88                     89                     90
                      A                      A                      A
 Frequencies --   3012.3864              3025.3933              3033.3528
 Red. masses --      1.0382                 1.0637                 1.0649
 Frc consts  --      5.5510                 5.7361                 5.7733
 IR Inten    --     44.9180                26.8161                30.2991

                     91                     92                     93
                      A                      A                      A
 Frequencies --   3045.8902              3049.5523              3052.5549
 Red. masses --      1.0404                 1.0631                 1.0694
 Frc consts  --      5.6870                 5.8250                 5.8713
 IR Inten    --     16.9652                 6.0582                 5.4342

                     94                     95                     96
                      A                      A                      A
 Frequencies --   3053.0263              3060.5044              3066.4494
 Red. masses --      1.0432                 1.0900                 1.0944
 Frc consts  --      5.7290                 6.0152                 6.0632
 IR Inten    --      7.9737                37.0118                71.0534

                     97                     98                     99
                      A                      A                      A
 Frequencies --   3070.7367              3078.2627              3085.2025
 Red. masses --      1.0953                 1.0639                 1.0719
 Frc consts  --      6.0851                 5.9397                 6.0114
 IR Inten    --     65.2272                24.6910                24.5890

                    100                    101                    102
                      A                      A                      A
 Frequencies --   3088.4430              3092.9467              3096.4378
 Red. masses --      1.0989                 1.0768                 1.1004
 Frc consts  --      6.1759                 6.0694                 6.2164
 IR Inten    --     24.2519                23.1333                50.1372

                    103                    104                    105
                      A                      A                      A
 Frequencies --   3111.4341              3117.1317              3120.9605
 Red. masses --      1.1019                 1.1019                 1.1013
 Frc consts  --      6.2850                 6.3083                 6.3202
 IR Inten    --     47.3890                53.0922                31.3648

                    106                    107                    108
                      A                      A                      A
 Frequencies --   3123.7539              3130.4122              3137.8112
 Red. masses --      1.1006                 1.1030                 1.1027
 Frc consts  --      6.3278                 6.3684                 6.3965
 IR Inten    --     29.6177                23.5584                24.1448

                    109                    110                    111
                      A                      A                      A
 Frequencies --   3138.5546              3604.1325              3609.4144
 Red. masses --      1.0996                 1.0755                 1.0776
 Frc consts  --      6.3816                 8.2312                 8.2714
 IR Inten    --     22.1641                56.4607                 8.2824

 - Thermochemistry -
 -------------------
 Temperature   298.150 Kelvin.  Pressure   1.00000 Atm.
 Atom     1 has atomic number  6 and mass  12.00000

 Molecular mass:   232.16094 amu.
 Principal axes and moments of inertia in atomic units:
                           1         2         3
     Eigenvalues --  2427.834707286.753258977.09815
           X            0.99998   0.00608   0.00261
           Y           -0.00605   0.99991  -0.01169
           Z           -0.00268   0.01168   0.99993
 This molecule is an asymmetric top.
 Rotational symmetry number  1.
 Warning -- assumption of classical behavior for rotation
           may cause significant error
 Rotational temperatures (Kelvin)      0.03568     0.01189     0.00965
 Rotational constants (GHZ):           0.74335     0.24767     0.20104
 Zero-point vibrational energy     930704.8 (Joules/Mol)
                                  222.44378 (Kcal/Mol)
 Warning -- explicit consideration of  27 degrees of freedom as
           vibrations may cause significant error
 Vibrational temperatures:     35.46    50.78    59.26    70.67    81.12
          (Kelvin)            105.06   122.51   134.24   181.35   249.93
                              263.57   314.26   354.33   367.29   408.62
                              430.45   439.42   465.89   494.62   506.05
                              554.56   585.89   638.02   676.45   740.18
                              810.36   847.24   915.45   968.00  1013.57
                             1038.33  1093.99  1182.00  1192.21  1195.72
                             1238.26  1297.35  1314.53  1346.23  1382.93
                             1402.60  1490.14  1494.52  1507.36  1521.68
                             1550.70  1587.79  1629.94  1648.24  1674.84
                             1681.64  1704.75  1719.89  1758.99  1773.96
                             1783.19  1810.99  1860.96  1880.44  1897.85
                             1943.98  1956.62  1990.06  2004.43  2018.65
                             2025.08  2046.28  2047.63  2054.46  2075.49
                             2078.01  2123.65  2138.06  2163.14  2168.36
                             2183.91  2187.38  2197.31  2198.22  2199.36
                             2207.29  2208.19  2217.47  2220.57  2225.73
                             2240.61  2294.47  4334.15  4352.87  4364.32
                             4382.36  4387.63  4391.95  4392.62  4403.38
                             4411.94  4418.11  4428.93  4438.92  4443.58
                             4450.06  4455.08  4476.66  4484.86  4490.37
                             4494.39  4503.96  4514.61  4515.68  5185.54
                             5193.14

 Zero-point correction=                           0.354487 (Hartree/Particle)
 Thermal correction to Energy=                    0.372977
 Thermal correction to Enthalpy=                  0.373922
 Thermal correction to Gibbs Free Energy=         0.305578
 Sum of electronic and zero-point Energies=          -1016.253595
 Sum of electronic and thermal Energies=             -1016.235105
 Sum of electronic and thermal Enthalpies=           -1016.234161
 Sum of electronic and thermal Free Energies=        -1016.302504

                     E (Thermal)             CV                S
                      KCal/Mol        Cal/Mol-Kelvin    Cal/Mol-Kelvin
 Total                  234.047             67.084            143.841
 Electronic               0.000              0.000              0.000
 Translational            0.889              2.981             42.229
 Rotational               0.889              2.981             33.429
 Vibrational            232.269             61.122             68.183
 Vibration     1          0.593              1.985              6.220
 Vibration     2          0.594              1.982              5.507
 Vibration     3          0.594              1.981              5.201
 Vibration     4          0.595              1.978              4.852
 Vibration     5          0.596              1.975              4.580
 Vibration     6          0.599              1.967              4.070
 Vibration     7          0.601              1.959              3.769
 Vibration     8          0.602              1.954              3.590
 Vibration     9          0.611              1.927              3.006
 Vibration    10          0.627              1.875              2.395
 Vibration    11          0.631              1.863              2.296
 Vibration    12          0.646              1.813              1.972
 Vibration    13          0.661              1.769              1.757
 Vibration    14          0.666              1.754              1.694
 Vibration    15          0.682              1.703              1.509
 Vibration    16          0.692              1.675              1.422
 Vibration    17          0.696              1.663              1.387
 Vibration    18          0.708              1.628              1.291
 Vibration    19          0.723              1.588              1.195
 Vibration    20          0.728              1.572              1.158
 Vibration    21          0.754              1.501              1.018
 Vibration    22          0.772              1.455              0.937
 Vibration    23          0.803              1.375              0.816
 Vibration    24          0.827              1.316              0.737
 Vibration    25          0.870              1.218              0.623
 Vibration    26          0.919              1.111              0.517
 Vibration    27          0.946              1.056              0.469

                           ! Non-Optimized Parameters !
 Normal termination of Gaussian 16 at Thu Dec 10 15:44:36 2020.

 ----------------------------------------------------------------------
 # B3LYP/6-311++G(d,p) empiricaldispersion=gd3bj scf=xqc pop=npa geom=c
 heck
 ----------------------------------------------------------------------

 ---------------------------------------
 CID_102700087_JID_5308_Energie_neutraal
 ---------------------------------------
 Structure from the checkpoint file:  "JID_5308.chk"
 Charge =  0 Multiplicity = 1

 SCF Done:  E(RB3LYP) =  -1016.81703867     A.U. after   14 cycles
 Normal termination of Gaussian 16 at Thu Dec 10 15:51:50 2020.

 ----------------------------------------------------------------------
 # B3LYP/6-311++G(d,p) empiricaldispersion=gd3bj scf=xqc pop=npa geom=c
 heck
 ----------------------------------------------------------------------

 -------------------------------------
 CID_102700087_JID_5308_Energie_kation
 -------------------------------------
 Structure from the checkpoint file:  "JID_5308.chk"
 Charge =  1 Multiplicity = 2

 SCF Done:  E(UB3LYP) =  -1016.53254679     A.U. after   26 cycles
 Normal termination of Gaussian 16 at Thu Dec 10 16:11:16 2020.
 Gaussian 16:  ES64L-G16RevA.03 25-Dec-2016

 ----------------------------------------------------------------------
 # B3LYP/6-311++G(d,p) empiricaldispersion=gd3bj scf=xqc pop=npa geom=c
 heck
 ----------------------------------------------------------------------

 ------------------------------------
 CID_102700087_JID_5308_Energie_anion
 ------------------------------------
 Structure from the checkpoint file:  "JID_5308.chk"
 Charge = -1 Multiplicity = 2

                         Standard orientation:
 ---------------------------------------------------------------------
 Center     Atomic      Atomic             Coordinates (Angstroms)
 Number     Number       Type             X           Y           Z
 ---------------------------------------------------------------------
      1          6           0       -5.267892   -1.553577    0.428636
      2          6           0       -4.447293   -0.999072   -0.739526
      3          6           0       -3.713156    0.311016   -0.415471
      4          6           0       -2.712278    0.233501    0.748300
      5          6           0       -1.617641   -0.833046    0.596927
      6          6           0       -0.781234   -0.691210   -0.681071
      7          7           0       -0.199121    0.644349   -0.870919
      8          6           0        0.472152    1.390857    0.052415
      9         16           0        0.401871    3.077294    0.015008
     10          7           0        1.209189    0.750460    1.010501
     11          6           0        1.932364   -0.512809    0.856242
     12          6           0        2.804245   -0.573283   -0.414360
     13          6           0        3.858615    0.531919   -0.451957
     14          8           0        3.322768   -1.892135   -0.580467
     15          6           0        4.386285   -2.267347    0.275602
     16          1           0       -4.631192   -1.833359    1.275327
     17          1           0       -5.829159   -2.445557    0.129344
     18          1           0       -5.988785   -0.809754    0.789534
     19          1           0       -3.727480   -1.760230   -1.070794
     20          1           0       -5.111357   -0.823323   -1.595727
     21          1           0       -3.199457    0.663672   -1.320920
     22          1           0       -4.454943    1.085550   -0.179189
     23          1           0       -2.240697    1.215869    0.870319
     24          1           0       -3.251670    0.040168    1.683465
     25          1           0       -0.956724   -0.783638    1.469465
     26          1           0       -2.054776   -1.839997    0.594078
     27          1           0        0.001175   -1.455968   -0.716594
     28          1           0       -1.406836   -0.860119   -1.561470
     29          1           0       -0.710880    1.245493   -1.503148
     30          1           0        1.657508    1.426871    1.614095
     31          1           0        2.557593   -0.607736    1.748624
     32          1           0        1.248360   -1.365386    0.861486
     33          1           0        2.145816   -0.446712   -1.279107
     34          1           0        4.491945    0.529785    0.442879
     35          1           0        4.500364    0.410453   -1.330247
     36          1           0        3.371278    1.509841   -0.517315
     37          1           0        5.294892   -1.677182    0.095150
     38          1           0        4.126310   -2.188658    1.341549
     39          1           0        4.601152   -3.315076    0.051304
 ---------------------------------------------------------------------

 SCF Done:  E(UB3LYP) =  -1016.80869715     A.U. after   33 cycles
 SCF Done:  E(UB3LYP) =  -1016.80869715     a.u. after    1 cycles

 The electronic state is 2-A.
 Alpha  occ. eigenvalues --  -88.69673 -19.03845 -14.25867 -14.25768 -10.19511
 Alpha  occ. eigenvalues --  -10.13895 -10.12789 -10.12155 -10.12018 -10.08331
 Alpha  occ. eigenvalues --  -10.08064 -10.08020 -10.07720 -10.07570 -10.07302
 Alpha  occ. eigenvalues --   -7.78446  -5.74866  -5.74268  -5.73978  -0.94944
 Alpha  occ. eigenvalues --   -0.90081  -0.82961  -0.72726  -0.70252  -0.68269
 Alpha  occ. eigenvalues --   -0.65096  -0.61986  -0.60787  -0.59098  -0.57268
 Alpha  occ. eigenvalues --   -0.53815  -0.51838  -0.49039  -0.46671  -0.42799
 Alpha  occ. eigenvalues --   -0.41759  -0.41143  -0.40102  -0.39607  -0.38543
 Alpha  occ. eigenvalues --   -0.37844  -0.35793  -0.35406  -0.33967  -0.33276
 Alpha  occ. eigenvalues --   -0.32456  -0.31887  -0.31094  -0.30495  -0.29717
 Alpha  occ. eigenvalues --   -0.28429  -0.28212  -0.27515  -0.27030  -0.26700
 Alpha  occ. eigenvalues --   -0.26066  -0.24049  -0.23313  -0.23235  -0.22461
 Alpha  occ. eigenvalues --   -0.18933  -0.16635  -0.13226  -0.12042   0.03695
 Alpha virt. eigenvalues --    0.05117   0.06145   0.06904   0.07143   0.07411
 Alpha virt. eigenvalues --    0.07896   0.08051   0.09262   0.09653   0.10044
 Alpha virt. eigenvalues --    0.10151   0.10379   0.11052   0.11338   0.12174

  Beta  occ. eigenvalues --  -88.69671 -19.03839 -14.25858 -14.25756 -10.19486
  Beta  occ. eigenvalues --  -10.13892 -10.12778 -10.12120 -10.11972 -10.08313
  Beta  occ. eigenvalues --  -10.08045 -10.08009 -10.07713 -10.07549 -10.07273
  Beta  occ. eigenvalues --   -7.78444  -5.74863  -5.74264  -5.73977  -0.94927
  Beta  occ. eigenvalues --   -0.90043  -0.82930  -0.72698  -0.70217  -0.68236
  Beta  occ. eigenvalues --   -0.65062  -0.61943  -0.60729  -0.59046  -0.57233
  Beta  occ. eigenvalues --   -0.53769  -0.51784  -0.48981  -0.46621  -0.42757
  Beta  occ. eigenvalues --   -0.41729  -0.41108  -0.40066  -0.39574  -0.38510
  Beta  occ. eigenvalues --   -0.37814  -0.35745  -0.35369  -0.33927  -0.33237
  Beta  occ. eigenvalues --   -0.32417  -0.31858  -0.31052  -0.30461  -0.29688
  Beta  occ. eigenvalues --   -0.28391  -0.28180  -0.27477  -0.26991  -0.26666
  Beta  occ. eigenvalues --   -0.26028  -0.24022  -0.23282  -0.23209  -0.22428
  Beta  occ. eigenvalues --   -0.18909  -0.16611  -0.13204  -0.12027
  Beta virt. eigenvalues --    0.05632   0.06284   0.06350   0.07258   0.07461
  Beta virt. eigenvalues --    0.07946   0.08295   0.08436   0.09476   0.09997
  Beta virt. eigenvalues --    0.10330   0.10447   0.10518   0.11374   0.11561

 Mulliken charges and spin densities:
               1          2
     1  C    0.598958  -1.230302
     2  C   -0.360368   0.176921
     3  C    0.004698  -0.195784
     4  C   -0.010881  -0.339972
     5  C    0.122413  -0.211052
     6  C   -0.192288  -0.226642
     7  N    0.029476  -0.001842
     8  C    0.043958   0.008257
     9  S   -0.771167  -0.215403
    10  N   -0.169901   0.235584
    11  C    0.968236  -1.473159
    12  C   -1.406197   1.329984
    13  C    0.371412  -0.995138
    14  O   -0.102122   0.034455
    15  C    0.981619  -1.247388
    16  H   -0.107838   0.251203
    17  H   -0.279088   0.418680
    18  H    0.005028   0.127991
    19  H    0.028569   0.091448
    20  H   -0.247921   0.402411
    21  H   -0.034574   0.141215
    22  H   -0.011635   0.165955
    23  H    0.141159   0.067966
    24  H    0.050668   0.117415
    25  H    0.059712   0.120316
    26  H   -0.220303   0.404075
    27  H    0.206323   0.020561
    28  H   -0.074373   0.259925
    29  H    0.269229   0.018706
    30  H    0.107951   0.187288
    31  H   -0.501057   0.685902
    32  H    0.092875   0.120605
    33  H    0.114392   0.117335
    34  H   -0.108626   0.282109
    35  H    0.023183   0.133697
    36  H    0.199739  -0.038808
    37  H   -0.340598   0.478385
    38  H   -0.378890   0.520140
    39  H   -0.101770   0.256961
 Sum of Mulliken charges =  -1.00000   1.00000

 Dipole moment (field-independent basis, Debye):
    X=             -1.3057    Y=              1.5194    Z=             -2.7512  Tot=              3.4033
 Quadrupole moment (field-independent basis, Debye-Ang):
   XX=           -209.9491   YY=           -162.5045   ZZ=           -138.7580
   XY=             -0.4362   XZ=            -11.2349   YZ=              2.6877

 Summary of Natural Population Analysis:

                                       Natural Population
                Natural  -----------------------------------------------
    Atom  No    Charge         Core      Valence    Rydberg      Total
 -----------------------------------------------------------------------
      C    1   -0.28608      0.99967     2.28175    0.00467     3.28608
      C    2   -0.19376      0.99964     2.18529    0.00883     3.19376
      C    3   -0.18856      0.99963     2.18162    0.00732     3.18856
      C    4   -0.19672      0.99962     2.18938    0.00772     3.19672
      C    5   -0.20237      0.99962     2.19388    0.00887     3.20237
      C    6   -0.09213      0.99960     2.08143    0.01110     3.09213
      N    7   -0.32092      0.99964     2.81010    0.01118     3.82092
      C    8    0.15866      0.99964     1.81760    0.02410     2.84134
      S    9   -0.15402      4.99958     3.14206    0.01238     8.15402
      N   10   -0.31950      0.99964     2.80537    0.01448     3.81950
      C   11   -0.10304      0.99958     2.09044    0.01302     3.10304
      C   12    0.05925      0.99955     1.92740    0.01380     2.94075
      C   13   -0.30743      0.99964     2.30232    0.00546     3.30743
      O   14   -0.30065      0.99989     3.29118    0.00958     4.30065
      C   15   -0.10156      0.99960     2.09231    0.00964     3.10156
      H   16    0.09688      0.00000     0.40199    0.00114     0.40312
      H   17    0.09982      0.00000     0.39892    0.00126     0.40018
      H   18    0.09456      0.00000     0.40424    0.00120     0.40544
      H   19    0.09279      0.00000     0.40590    0.00131     0.40721
      H   20    0.09609      0.00000     0.40277    0.00114     0.40391
      H   21    0.09198      0.00000     0.40669    0.00134     0.40802
      H   22    0.09729      0.00000     0.40166    0.00106     0.40271
      H   23    0.10617      0.00000     0.39259    0.00123     0.39383
      H   24    0.09835      0.00000     0.40057    0.00108     0.40165
      H   25    0.10477      0.00000     0.39378    0.00145     0.39523
      H   26    0.10183      0.00000     0.39692    0.00126     0.39817
      H   27    0.09902      0.00000     0.39952    0.00146     0.40098
      H   28    0.10056      0.00000     0.39834    0.00110     0.39944
      H   29    0.19918      0.00000     0.29859    0.00222     0.30082
      H   30    0.20130      0.00000     0.29655    0.00214     0.29870
      H   31    0.10624      0.00000     0.39122    0.00254     0.39376
      H   32    0.09987      0.00000     0.39834    0.00179     0.40013
      H   33    0.09260      0.00000     0.40478    0.00262     0.40740
      H   34    0.10069      0.00000     0.39817    0.00114     0.39931
      H   35    0.10357      0.00000     0.39571    0.00072     0.39643
      H   36    0.11192      0.00000     0.38730    0.00078     0.38808
      H   37    0.08052      0.00000     0.41800    0.00148     0.41948
      H   38    0.08177      0.00000     0.41592    0.00231     0.41823
      H   39    0.09101      0.00000     0.40796    0.00102     0.40899
 =======================================================================
   * Total *   -0.00000     18.99453    44.80854    0.19693    64.00000

 Normal termination of Gaussian 16 at Thu Dec 10 16:41:36 2020.
