 Gaussian 16, Revision A.03,

 -----------------------------------------------------------
 # opt freq B3LYP/6-31G(d) empiricaldispersion=gd3bj scf=xqc
 -----------------------------------------------------------

 ------------------------------
 CID_65929709_JID_7900_neutraal
 ------------------------------
 Symbolic Z-matrix:
 Charge =  0 Multiplicity = 1

 SCF Done:  E(RB3LYP) =  -787.029026285     A.U. after   14 cycles
 SCF Done:  E(RB3LYP) =  -787.042445250     A.U. after   12 cycles
 SCF Done:  E(RB3LYP) =  -787.038972730     A.U. after   12 cycles
 SCF Done:  E(RB3LYP) =  -787.044201943     A.U. after   12 cycles
 SCF Done:  E(RB3LYP) =  -787.044567185     A.U. after   12 cycles
 SCF Done:  E(RB3LYP) =  -787.046488131     A.U. after   12 cycles
 SCF Done:  E(RB3LYP) =  -787.046612092     A.U. after   12 cycles
 SCF Done:  E(RB3LYP) =  -787.047781944     A.U. after   12 cycles
 SCF Done:  E(RB3LYP) =  -787.047925337     A.U. after   12 cycles
 SCF Done:  E(RB3LYP) =  -787.048222337     A.U. after   11 cycles
 SCF Done:  E(RB3LYP) =  -787.062130053     A.U. after    9 cycles
 SCF Done:  E(RB3LYP) =  -787.062130117     A.U. after    8 cycles
 SCF Done:  E(RB3LYP) =  -787.062130165     A.U. after    7 cycles
 SCF Done:  E(RB3LYP) =  -787.062130198     A.U. after    7 cycles
 Optimization completed.
    -- Stationary point found.
 Normal termination of Gaussian 16 at Fri Dec 11 14:01:20 2020.

 --------------------------------------------------------------------
 #N Geom=AllCheck Guess=TCheck SCRF=Check GenChk RB3LYP/6-31G(d) Freq
 --------------------------------------------------------------------

 Structure from the checkpoint file:  "JID_7900.chk"
 ------------------------------
 CID_65929709_JID_7900_neutraal
 ------------------------------
 Charge =  0 Multiplicity = 1

 SCF Done:  E(RB3LYP) =  -787.062130198     A.U. after    1 cycles

  Exact polarizability: 173.617   0.518 152.657   0.153   4.001 130.993
 Approx polarizability: 210.276   4.115 212.424  -1.390  12.787 202.876

                      1                      2                      3
                      A                      A                      A
 Frequencies --     23.3127                34.9025                40.7962
 Red. masses --      3.7637                 3.8416                 3.9669
 Frc consts  --      0.0012                 0.0028                 0.0039
 IR Inten    --      0.1701                 0.2779                 0.2902

                      4                      5                      6
                      A                      A                      A
 Frequencies --     62.0962                68.2609                79.3659
 Red. masses --      3.7358                 3.6959                 3.9597
 Frc consts  --      0.0085                 0.0101                 0.0147
 IR Inten    --      0.8839                 0.4361                 2.3282

                      7                      8                      9
                      A                      A                      A
 Frequencies --     96.5436               101.5662               126.3023
 Red. masses --      4.0140                 2.6422                 1.6790
 Frc consts  --      0.0220                 0.0161                 0.0158
 IR Inten    --      0.4223                 6.9418                 0.0489

                     10                     11                     12
                      A                      A                      A
 Frequencies --    134.4057               184.7053               196.3938
 Red. masses --      2.9622                 2.1300                 1.2538
 Frc consts  --      0.0315                 0.0428                 0.0285
 IR Inten    --      0.3089                 1.8747                25.9283

                     13                     14                     15
                      A                      A                      A
 Frequencies --    212.1456               223.7658               230.6886
 Red. masses --      2.1117                 1.9284                 1.2716
 Frc consts  --      0.0560                 0.0569                 0.0399
 IR Inten    --      4.3292                 0.9777                 3.1889

                     16                     17                     18
                      A                      A                      A
 Frequencies --    241.8298               252.3749               256.4234
 Red. masses --      1.5616                 1.5596                 1.8248
 Frc consts  --      0.0538                 0.0585                 0.0707
 IR Inten    --      2.3379                 4.2595                 3.0061

                     19                     20                     21
                      A                      A                      A
 Frequencies --    311.7745               322.2350               328.9398
 Red. masses --      2.7940                 2.5996                 2.3276
 Frc consts  --      0.1600                 0.1590                 0.1484
 IR Inten    --      1.1465                 0.8559                 0.8489

                     22                     23                     24
                      A                      A                      A
 Frequencies --    359.3253               387.7194               399.2781
 Red. masses --      2.5237                 3.2782                 3.1350
 Frc consts  --      0.1920                 0.2903                 0.2945
 IR Inten    --      8.3730                 1.0045                 8.2328

                     25                     26                     27
                      A                      A                      A
 Frequencies --    426.3135               471.7049               479.0283
 Red. masses --      2.9869                 3.0158                 2.4748
 Frc consts  --      0.3198                 0.3954                 0.3346
 IR Inten    --      4.5932                 3.7096                 8.1611

                     28                     29                     30
                      A                      A                      A
 Frequencies --    492.4695               557.5979               612.3918
 Red. masses --      2.7506                 3.2658                 3.2922
 Frc consts  --      0.3930                 0.5983                 0.7274
 IR Inten    --      2.3984                 2.7975                19.0050

                     31                     32                     33
                      A                      A                      A
 Frequencies --    656.5601               686.5759               731.1371
 Red. masses --      3.7293                 1.6840                 2.1872
 Frc consts  --      0.9472                 0.4677                 0.6889
 IR Inten    --     11.9110                35.8371                24.3918

                     34                     35                     36
                      A                      A                      A
 Frequencies --    771.4919               784.5503               793.6805
 Red. masses --      1.6679                 2.6878                 1.2262
 Frc consts  --      0.5849                 0.9747                 0.4551
 IR Inten    --     26.1492                18.1560                 2.5232

                     37                     38                     39
                      A                      A                      A
 Frequencies --    829.0644               876.0628               894.1955
 Red. masses --      2.0445                 2.0350                 2.8567
 Frc consts  --      0.8280                 0.9202                 1.3458
 IR Inten    --      9.5527                 0.9431                 6.8291

                     40                     41                     42
                      A                      A                      A
 Frequencies --    924.9391               944.1645               948.9713
 Red. masses --      1.4674                 2.1512                 2.1489
 Frc consts  --      0.7396                 1.1299                 1.1402
 IR Inten    --    160.8502                11.2488                 5.1805

                     43                     44                     45
                      A                      A                      A
 Frequencies --    956.8122               973.4988              1002.7176
 Red. masses --      2.3049                 1.3696                 2.0666
 Frc consts  --      1.2432                 0.7648                 1.2242
 IR Inten    --     18.3602                 0.1749                34.2991

                     46                     47                     48
                      A                      A                      A
 Frequencies --   1019.3637              1032.3865              1066.4776
 Red. masses --      1.6725                 2.0850                 2.3599
 Frc consts  --      1.0240                 1.3093                 1.5814
 IR Inten    --      7.2862                 8.7823                 0.0335

                     49                     50                     51
                      A                      A                      A
 Frequencies --   1074.6775              1081.5258              1102.8572
 Red. masses --      2.5112                 2.4520                 1.9290
 Frc consts  --      1.7088                 1.6898                 1.3823
 IR Inten    --     53.4712                 9.0338                 8.8231

                     52                     53                     54
                      A                      A                      A
 Frequencies --   1123.2179              1137.3617              1147.0658
 Red. masses --      2.1109                 1.4505                 1.5222
 Frc consts  --      1.5691                 1.1056                 1.1800
 IR Inten    --      7.4560                 1.2962                 6.6904

                     55                     56                     57
                      A                      A                      A
 Frequencies --   1155.3018              1165.2093              1167.5575
 Red. masses --      1.6553                 2.4499                 4.2100
 Frc consts  --      1.3018                 1.9598                 3.3814
 IR Inten    --      9.5912                30.8421               118.9471

                     58                     59                     60
                      A                      A                      A
 Frequencies --   1171.9400              1195.1568              1213.3964
 Red. masses --      2.0499                 1.2948                 1.9566
 Frc consts  --      1.6588                 1.0897                 1.6973
 IR Inten    --     18.6685                 2.3544                 4.1100

                     61                     62                     63
                      A                      A                      A
 Frequencies --   1224.2623              1260.3289              1271.7444
 Red. masses --      1.5196                 2.3229                 1.2577
 Frc consts  --      1.3419                 2.1739                 1.1985
 IR Inten    --     30.9557                36.7639                18.4196

                     64                     65                     66
                      A                      A                      A
 Frequencies --   1281.6651              1286.6018              1292.8418
 Red. masses --      1.3664                 1.3450                 3.0967
 Frc consts  --      1.3224                 1.3118                 3.0495
 IR Inten    --     11.0209                 2.3352                61.9517

                     67                     68                     69
                      A                      A                      A
 Frequencies --   1299.9892              1332.9124              1350.0137
 Red. masses --      1.3437                 1.1712                 1.6646
 Frc consts  --      1.3379                 1.2260                 1.7875
 IR Inten    --      0.1699                33.1191                 8.5076

                     70                     71                     72
                      A                      A                      A
 Frequencies --   1357.9592              1372.7493              1383.1862
 Red. masses --      1.4319                 1.5196                 1.5283
 Frc consts  --      1.5557                 1.6871                 1.7228
 IR Inten    --      3.9151                12.9266                57.6591

                     73                     74                     75
                      A                      A                      A
 Frequencies --   1388.6836              1403.3980              1409.7161
 Red. masses --      1.4256                 1.4597                 1.5486
 Frc consts  --      1.6198                 1.6939                 1.8132
 IR Inten    --     18.7911                 5.3343                10.4352

                     76                     77                     78
                      A                      A                      A
 Frequencies --   1426.7489              1435.2158              1445.4470
 Red. masses --      1.4187                 1.3273                 1.2513
 Frc consts  --      1.7015                 1.6109                 1.5403
 IR Inten    --      4.1170                18.5097                 4.0727

                     79                     80                     81
                      A                      A                      A
 Frequencies --   1450.1981              1501.4968              1503.5744
 Red. masses --      1.4560                 1.1333                 1.1682
 Frc consts  --      1.8041                 1.5054                 1.5560
 IR Inten    --     51.6798                 7.1849                19.3798

                     82                     83                     84
                      A                      A                      A
 Frequencies --   1507.5805              1511.0303              1515.5687
 Red. masses --      1.0801                 1.4254                 1.0508
 Frc consts  --      1.4463                 1.9175                 1.4220
 IR Inten    --      1.8148                31.3056                 7.4859

                     85                     86                     87
                      A                      A                      A
 Frequencies --   1517.4450              1518.9272              1526.0101
 Red. masses --      1.0670                 1.1955                 1.0738
 Frc consts  --      1.4476                 1.6251                 1.4733
 IR Inten    --      2.4010                20.2907                18.1880

                     88                     89                     90
                      A                      A                      A
 Frequencies --   1529.6232              1530.8729              1533.7657
 Red. masses --      1.0597                 1.0934                 1.0619
 Frc consts  --      1.4609                 1.5097                 1.4718
 IR Inten    --      4.4860                 5.2407                 9.7261

                     91                     92                     93
                      A                      A                      A
 Frequencies --   1538.7864              1551.5413              1562.3629
 Red. masses --      1.0548                 1.1160                 1.0873
 Frc consts  --      1.4715                 1.5829                 1.5637
 IR Inten    --      4.2227                 7.2246                 2.8481

                     94                     95                     96
                      A                      A                      A
 Frequencies --   1691.2148              1773.1015              2974.2119
 Red. masses --      1.0948                 7.6769                 1.0828
 Frc consts  --      1.8450                14.2201                 5.6436
 IR Inten    --     20.8517               340.3895                37.5297

                     97                     98                     99
                      A                      A                      A
 Frequencies --   2982.4308              2996.3750              3010.5872
 Red. masses --      1.0507                 1.0416                 1.0595
 Frc consts  --      5.5063                 5.5100                 5.6579
 IR Inten    --     24.8896                85.9856                45.6401

                    100                    101                    102
                      A                      A                      A
 Frequencies --   3011.7634              3015.9096              3029.8927
 Red. masses --      1.1057                 1.0591                 1.0606
 Frc consts  --      5.9092                 5.6759                 5.7365
 IR Inten    --     67.6767                58.9743                26.7813

                    103                    104                    105
                      A                      A                      A
 Frequencies --   3038.7662              3043.7042              3054.2504
 Red. masses --      1.1052                 1.1032                 1.0721
 Frc consts  --      6.0129                 6.0215                 5.8926
 IR Inten    --     58.4116                26.4009                23.4216

                    106                    107                    108
                      A                      A                      A
 Frequencies --   3058.2347              3060.5050              3063.0854
 Red. masses --      1.0601                 1.0356                 1.0388
 Frc consts  --      5.8415                 5.7152                 5.7425
 IR Inten    --     31.5905                16.4288                24.6163

                    109                    110                    111
                      A                      A                      A
 Frequencies --   3078.4191              3085.1673              3101.7737
 Red. masses --      1.1036                 1.1052                 1.1028
 Frc consts  --      6.1621                 6.1980                 6.2510
 IR Inten    --     41.7921                50.2179                46.9284

                    112                    113                    114
                      A                      A                      A
 Frequencies --   3124.1172              3127.9122              3140.7978
 Red. masses --      1.1006                 1.1018                 1.0970
 Frc consts  --      6.3291                 6.3516                 6.3760
 IR Inten    --     39.4070                27.1330                29.5483

                    115                    116                    117
                      A                      A                      A
 Frequencies --   3142.6228              3143.3317              3175.1308
 Red. masses --      1.1031                 1.1006                 1.0941
 Frc consts  --      6.4187                 6.4072                 6.4986
 IR Inten    --     17.4545                33.4287                 3.2155

                    118                    119                    120
                      A                      A                      A
 Frequencies --   3433.4465              3517.5791              3576.5889
 Red. masses --      1.0492                 1.0915                 1.0746
 Frc consts  --      7.2876                 7.9576                 8.0988
 IR Inten    --      4.7782                 0.3407                23.9124

 - Thermochemistry -
 -------------------
 Temperature   298.150 Kelvin.  Pressure   1.00000 Atm.
 Atom     1 has atomic number  6 and mass  12.00000

 Molecular mass:   243.19468 amu.
 Principal axes and moments of inertia in atomic units:
                           1         2         3
     Eigenvalues --  2735.971626966.467508394.86418
           X            0.99998   0.00244  -0.00663
           Y           -0.00261   0.99966  -0.02603
           Z            0.00656   0.02604   0.99964
 This molecule is an asymmetric top.
 Rotational symmetry number  1.
 Warning -- assumption of classical behavior for rotation
           may cause significant error
 Rotational temperatures (Kelvin)      0.03166     0.01243     0.01032
 Rotational constants (GHZ):           0.65963     0.25906     0.21498
 Zero-point vibrational energy     991798.4 (Joules/Mol)
                                  237.04550 (Kcal/Mol)
 Warning -- explicit consideration of  30 degrees of freedom as
           vibrations may cause significant error
 Vibrational temperatures:     33.54    50.22    58.70    89.34    98.21
          (Kelvin)            114.19   138.90   146.13   181.72   193.38
                              265.75   282.57   305.23   321.95   331.91
                              347.94   363.11   368.94   448.57   463.62
                              473.27   516.99   557.84   574.47   613.37
                              678.68   689.21   708.55   802.26   881.10
                              944.64   987.83  1051.94  1110.00  1128.79
                             1141.93  1192.84  1260.46  1286.55  1330.78
                             1358.44  1365.36  1376.64  1400.65  1442.69
                             1466.64  1485.37  1534.42  1546.22  1556.07
                             1586.77  1616.06  1636.41  1650.37  1662.22
                             1676.48  1679.85  1686.16  1719.56  1745.81
                             1761.44  1813.33  1829.76  1844.03  1851.13
                             1860.11  1870.39  1917.76  1942.37  1953.80
                             1975.08  1990.10  1998.01  2019.18  2028.27
                             2052.77  2064.96  2079.68  2086.51  2160.32
                             2163.31  2169.07  2174.04  2180.57  2183.26
                             2185.40  2195.59  2200.79  2202.58  2206.75
                             2213.97  2232.32  2247.89  2433.28  2551.10
                             4279.23  4291.05  4311.12  4331.56  4333.26
                             4339.22  4359.34  4372.11  4379.21  4394.39
                             4400.12  4403.38  4407.10  4429.16  4438.87
                             4462.76  4494.91  4500.37  4518.91  4521.53
                             4522.55  4568.31  4939.96  5061.01  5145.91

 Zero-point correction=                           0.377756 (Hartree/Particle)
 Thermal correction to Energy=                    0.397749
 Thermal correction to Enthalpy=                  0.398693
 Thermal correction to Gibbs Free Energy=         0.327957
 Sum of electronic and zero-point Energies=           -786.684374
 Sum of electronic and thermal Energies=              -786.664382
 Sum of electronic and thermal Enthalpies=            -786.663437
 Sum of electronic and thermal Free Energies=         -786.734173

                     E (Thermal)             CV                S
                      KCal/Mol        Cal/Mol-Kelvin    Cal/Mol-Kelvin
 Total                  249.591             73.010            148.876
 Electronic               0.000              0.000              0.000
 Translational            0.889              2.981             42.367
 Rotational               0.889              2.981             33.436
 Vibrational            247.814             67.049             73.072
 Vibration     1          0.593              1.985              6.330
 Vibration     2          0.594              1.983              5.529
 Vibration     3          0.594              1.981              5.220
 Vibration     4          0.597              1.972              4.389
 Vibration     5          0.598              1.969              4.203
 Vibration     6          0.600              1.963              3.906
 Vibration     7          0.603              1.952              3.523
 Vibration     8          0.604              1.948              3.424
 Vibration     9          0.611              1.927              3.002
 Vibration    10          0.613              1.919              2.882
 Vibration    11          0.631              1.861              2.280
 Vibration    12          0.636              1.845              2.167
 Vibration    13          0.643              1.822              2.025
 Vibration    14          0.649              1.805              1.928
 Vibration    15          0.652              1.794              1.874
 Vibration    16          0.658              1.776              1.789
 Vibration    17          0.664              1.759              1.714
 Vibration    18          0.666              1.752              1.686
 Vibration    19          0.700              1.651              1.353
 Vibration    20          0.707              1.631              1.299
 Vibration    21          0.712              1.618              1.265
 Vibration    22          0.734              1.556              1.125
 Vibration    23          0.756              1.496              1.009
 Vibration    24          0.765              1.472              0.965
 Vibration    25          0.788              1.413              0.871
 Vibration    26          0.829              1.313              0.733
 Vibration    27          0.835              1.297              0.713
 Vibration    28          0.848              1.267              0.677
 Vibration    29          0.913              1.123              0.529
 Vibration    30          0.972              1.006              0.429

                           ! Non-Optimized Parameters !
 Normal termination of Gaussian 16 at Fri Dec 11 14:20:04 2020.

 ----------------------------------------------------------------------
 # B3LYP/6-311++G(d,p) empiricaldispersion=gd3bj scf=xqc pop=npa geom=c
 heck
 ----------------------------------------------------------------------

 --------------------------------------
 CID_65929709_JID_7900_Energie_neutraal
 --------------------------------------
 Structure from the checkpoint file:  "JID_7900.chk"
 Charge =  0 Multiplicity = 1

 SCF Done:  E(RB3LYP) =  -787.298616221     A.U. after   15 cycles
 Normal termination of Gaussian 16 at Fri Dec 11 14:27:59 2020.

 ----------------------------------------------------------------------
 # B3LYP/6-311++G(d,p) empiricaldispersion=gd3bj scf=xqc pop=npa geom=c
 heck
 ----------------------------------------------------------------------

 ------------------------------------
 CID_65929709_JID_7900_Energie_kation
 ------------------------------------
 Structure from the checkpoint file:  "JID_7900.chk"
 Charge =  1 Multiplicity = 2

 SCF Done:  E(UB3LYP) =  -787.004732532     A.U. after   33 cycles
 SCF Done:  E(UB3LYP) =  -787.004732533     a.u. after    2 cycles
 Normal termination of Gaussian 16 at Fri Dec 11 15:07:39 2020.
 Gaussian 16:  ES64L-G16RevA.03 25-Dec-2016

 ----------------------------------------------------------------------
 # B3LYP/6-311++G(d,p) empiricaldispersion=gd3bj scf=xqc pop=npa geom=c
 heck
 ----------------------------------------------------------------------

 -----------------------------------
 CID_65929709_JID_7900_Energie_anion
 -----------------------------------
 Structure from the checkpoint file:  "JID_7900.chk"
 Charge = -1 Multiplicity = 2

                         Standard orientation:
 ---------------------------------------------------------------------
 Center     Atomic      Atomic             Coordinates (Angstroms)
 Number     Number       Type             X           Y           Z
 ---------------------------------------------------------------------
      1          6           0        1.982728   -2.474794   -1.018072
      2          6           0        3.072267   -2.061079   -0.024736
      3          6           0        3.018163   -0.617022    0.499569
      4          6           0        2.842006    0.465656   -0.597400
      5          7           0        1.398366    0.537365   -0.276131
      6          6           0        1.630035   -0.153322    1.012768
      7          6           0        0.797997    1.862487   -0.227465
      8          6           0        0.758710    2.491744   -1.625865
      9          6           0       -0.606336    1.876590    0.395506
     10          8           0       -0.910489    2.781193    1.167865
     11          7           0       -1.511373    0.907030    0.066247
     12          6           0       -1.481448   -0.112427   -0.975372
     13          6           0       -1.885466   -1.493861   -0.436956
     14          6           0       -3.129635   -1.463748    0.443630
     15          8           0       -4.132582   -0.699569   -0.205862
     16          6           0       -5.331245   -0.633365    0.537738
     17          7           0        4.099436   -0.304386    1.435962
     18          1           0        0.985745   -2.403132   -0.574618
     19          1           0        2.133028   -3.512042   -1.337040
     20          1           0        1.989628   -1.844177   -1.912313
     21          1           0        3.043146   -2.733938    0.845274
     22          1           0        4.058486   -2.207517   -0.490199
     23          1           0        3.392508    1.378571   -0.327000
     24          1           0        3.068053    0.192928   -1.635016
     25          1           0        0.883752   -0.918006    1.256647
     26          1           0        1.738602    0.536769    1.861224
     27          1           0        1.378798    2.528057    0.434132
     28          1           0        0.169018    1.885240   -2.320101
     29          1           0        0.319580    3.492206   -1.571778
     30          1           0        1.772385    2.585281   -2.030237
     31          1           0       -2.429490    1.102983    0.449729
     32          1           0       -2.171368    0.174287   -1.777980
     33          1           0       -0.470469   -0.163996   -1.375022
     34          1           0       -2.049759   -2.160106   -1.292351
     35          1           0       -1.067007   -1.917884    0.156497
     36          1           0       -3.489504   -2.487470    0.637653
     37          1           0       -2.891094   -1.012004    1.420716
     38          1           0       -5.772721   -1.632055    0.682406
     39          1           0       -5.169856   -0.180106    1.528886
     40          1           0       -6.030020   -0.012833   -0.028634
     41          1           0        4.996102   -0.502820    0.988889
     42          1           0        4.045373   -0.942441    2.231592
 ---------------------------------------------------------------------

 SCF Done:  E(UB3LYP) =  -787.288929076     A.U. after   33 cycles
 SCF Done:  E(UB3LYP) =  -787.288929075     a.u. after    1 cycles

 The electronic state is 2-A.
 Alpha  occ. eigenvalues --  -19.04764 -18.99482 -14.24405 -14.21788 -14.20157
 Alpha  occ. eigenvalues --  -10.18030 -10.13198 -10.13101 -10.12098 -10.11720
 Alpha  occ. eigenvalues --  -10.11352 -10.10142 -10.09943 -10.08574 -10.08556
 Alpha  occ. eigenvalues --  -10.07294 -10.06493  -0.96020  -0.94655  -0.86564
 Alpha  occ. eigenvalues --   -0.83025  -0.79127  -0.70616  -0.69601  -0.66830
 Alpha  occ. eigenvalues --   -0.62438  -0.60556  -0.59083  -0.57757  -0.55252
 Alpha  occ. eigenvalues --   -0.52665  -0.50877  -0.48309  -0.44411  -0.42370
 Alpha  occ. eigenvalues --   -0.42129  -0.40396  -0.40146  -0.39823  -0.39317
 Alpha  occ. eigenvalues --   -0.38264  -0.36565  -0.35878  -0.35330  -0.34296
 Alpha  occ. eigenvalues --   -0.33205  -0.32791  -0.32379  -0.31474  -0.30589
 Alpha  occ. eigenvalues --   -0.30076  -0.29150  -0.28634  -0.28191  -0.27624
 Alpha  occ. eigenvalues --   -0.26946  -0.26882  -0.26465  -0.25535  -0.24296
 Alpha  occ. eigenvalues --   -0.23124  -0.21642  -0.18544  -0.16789  -0.16221
 Alpha  occ. eigenvalues --   -0.15841  -0.13532   0.03802
 Alpha virt. eigenvalues --    0.05178   0.06445   0.06793   0.07582   0.07999
 Alpha virt. eigenvalues --    0.08320   0.09090   0.09229   0.09548   0.10034
 Alpha virt. eigenvalues --    0.10179   0.10671   0.11159   0.11522   0.11853

  Beta  occ. eigenvalues --  -19.04756 -18.99472 -14.24405 -14.21780 -14.20120
  Beta  occ. eigenvalues --  -10.18021 -10.13174 -10.13068 -10.12096 -10.11721
  Beta  occ. eigenvalues --  -10.11350 -10.10123 -10.09931 -10.08567 -10.08544
  Beta  occ. eigenvalues --  -10.07257 -10.06475  -0.96008  -0.94638  -0.86544
  Beta  occ. eigenvalues --   -0.83017  -0.79074  -0.70591  -0.69576  -0.66787
  Beta  occ. eigenvalues --   -0.62404  -0.60527  -0.59052  -0.57702  -0.55211
  Beta  occ. eigenvalues --   -0.52607  -0.50831  -0.48293  -0.44355  -0.42339
  Beta  occ. eigenvalues --   -0.42093  -0.40361  -0.40109  -0.39793  -0.39285
  Beta  occ. eigenvalues --   -0.38238  -0.36542  -0.35848  -0.35304  -0.34272
  Beta  occ. eigenvalues --   -0.33189  -0.32759  -0.32358  -0.31446  -0.30571
  Beta  occ. eigenvalues --   -0.30053  -0.29118  -0.28605  -0.28161  -0.27592
  Beta  occ. eigenvalues --   -0.26926  -0.26853  -0.26441  -0.25509  -0.24243
  Beta  occ. eigenvalues --   -0.23079  -0.21613  -0.18523  -0.16778  -0.16199
  Beta  occ. eigenvalues --   -0.15811  -0.13507
  Beta virt. eigenvalues --    0.05798   0.06229   0.06773   0.07298   0.08017
  Beta virt. eigenvalues --    0.08431   0.08741   0.09340   0.09541   0.09755
  Beta virt. eigenvalues --    0.10255   0.10409   0.10955   0.11368   0.11659

 Mulliken charges and spin densities:
               1          2
     1  C   -0.084597  -0.278727
     2  C    0.762067  -1.047961
     3  C   -0.768484   0.930810
     4  C    0.180092  -0.806180
     5  N    0.080575   0.054493
     6  C    0.391275  -0.923456
     7  C   -0.272130   0.239692
     8  C   -0.371140  -0.115964
     9  C   -0.030028  -0.202739
    10  O   -0.284069   0.006426
    11  N   -0.142160   0.004602
    12  C   -0.561293   0.168262
    13  C    0.152962  -0.338595
    14  C   -0.066915  -0.414701
    15  O   -0.187957   0.054462
    16  C    0.509105  -0.757095
    17  N   -0.320443   0.076369
    18  H    0.336960  -0.201609
    19  H   -0.305930   0.471319
    20  H    0.035845   0.089433
    21  H   -0.313899   0.471524
    22  H   -0.339689   0.489373
    23  H    0.155494  -0.009477
    24  H   -0.145241   0.355985
    25  H    0.025008   0.134251
    26  H    0.205516  -0.023354
    27  H    0.171371   0.041729
    28  H    0.082131   0.071200
    29  H    0.131984   0.027659
    30  H    0.083899   0.070825
    31  H    0.457096  -0.078394
    32  H    0.129108   0.071224
    33  H    0.260311  -0.059619
    34  H    0.029946   0.159797
    35  H   -0.182878   0.277992
    36  H   -0.272792   0.422747
    37  H    0.162172   0.018223
    38  H   -0.325762   0.460935
    39  H   -0.105534   0.226639
    40  H   -0.081063   0.218780
    41  H   -0.138479   0.370524
    42  H   -0.042434   0.272599
 Sum of Mulliken charges =  -1.00000   1.00000

 Dipole moment (field-independent basis, Debye):
    X=             -1.7515    Y=              3.6366    Z=             -2.8944  Tot=              4.9669
 Quadrupole moment (field-independent basis, Debye-Ang):
   XX=           -210.4685   YY=           -165.6115   ZZ=           -141.4503
   XY=              3.5645   XZ=              0.7434   YZ=             -5.5483

 Summary of Natural Population Analysis:

                                       Natural Population
                Natural  -----------------------------------------------
    Atom  No    Charge         Core      Valence    Rydberg      Total
 -----------------------------------------------------------------------
      C    1   -0.28637      0.99966     2.28044    0.00627     3.28637
      C    2   -0.19197      0.99958     2.18229    0.01010     3.19197
      C    3    0.04646      0.99953     1.93875    0.01526     2.95354
      C    4   -0.07896      0.99959     2.06823    0.01114     3.07896
      N    5   -0.29403      0.99971     2.78181    0.01251     3.79403
      C    6   -0.07826      0.99959     2.06843    0.01024     3.07826
      C    7   -0.03743      0.99956     2.02588    0.01198     3.03743
      C    8   -0.28620      0.99964     2.28165    0.00490     3.28620
      C    9    0.34435      0.99963     1.63311    0.02291     2.65565
      O   10   -0.32682      0.99988     3.32127    0.00567     4.32682
      N   11   -0.31793      0.99966     2.80844    0.00983     3.81793
      C   12   -0.09637      0.99960     2.08617    0.01060     3.09637
      C   13   -0.20048      0.99962     2.19131    0.00956     3.20048
      C   14   -0.01212      0.99959     1.99978    0.01276     3.01212
      O   15   -0.30438      0.99988     3.29501    0.00948     4.30438
      C   16   -0.09715      0.99962     2.08848    0.00905     3.09715
      N   17   -0.42226      0.99976     2.91193    0.01058     3.92226
      H   18    0.09682      0.00000     0.40155    0.00163     0.40318
      H   19    0.09932      0.00000     0.39976    0.00092     0.40068
      H   20    0.09725      0.00000     0.40138    0.00137     0.40275
      H   21    0.09800      0.00000     0.40005    0.00195     0.40200
      H   22    0.09767      0.00000     0.40010    0.00223     0.40233
      H   23    0.09356      0.00000     0.40510    0.00134     0.40644
      H   24    0.09369      0.00000     0.40510    0.00121     0.40631
      H   25    0.09375      0.00000     0.40485    0.00140     0.40625
      H   26    0.09601      0.00000     0.40258    0.00141     0.40399
      H   27    0.09621      0.00000     0.40183    0.00195     0.40379
      H   28    0.10028      0.00000     0.39865    0.00107     0.39972
      H   29    0.10383      0.00000     0.39537    0.00081     0.39617
      H   30    0.10196      0.00000     0.39713    0.00091     0.39804
      H   31    0.19485      0.00000     0.30217    0.00298     0.30515
      H   32    0.09233      0.00000     0.40634    0.00134     0.40767
      H   33    0.11603      0.00000     0.38193    0.00204     0.38397
      H   34    0.09987      0.00000     0.39886    0.00127     0.40013
      H   35    0.10168      0.00000     0.39681    0.00151     0.39832
      H   36    0.08614      0.00000     0.41205    0.00181     0.41386
      H   37    0.07917      0.00000     0.41904    0.00178     0.42083
      H   38    0.08150      0.00000     0.41659    0.00191     0.41850
      H   39    0.07831      0.00000     0.42039    0.00130     0.42169
      H   40    0.08984      0.00000     0.40921    0.00095     0.41016
      H   41    0.17599      0.00000     0.32162    0.00239     0.32401
      H   42    0.17586      0.00000     0.32203    0.00211     0.32414
 =======================================================================
   * Total *    0.00000     16.99410    49.78345    0.22246    67.00000

 Normal termination of Gaussian 16 at Fri Dec 11 15:31:17 2020.
