 Gaussian 16, Revision A.03,

 -----------------------------------------------------------
 # opt freq B3LYP/6-31G(d) empiricaldispersion=gd3bj scf=xqc
 -----------------------------------------------------------

 -------------------------------
 CID_119120901_JID_8034_neutraal
 -------------------------------
 Symbolic Z-matrix:
 Charge =  0 Multiplicity = 1

 SCF Done:  E(RB3LYP) =  -795.482116602     A.U. after   14 cycles
 SCF Done:  E(RB3LYP) =  -795.488845085     A.U. after   13 cycles
 SCF Done:  E(RB3LYP) =  -795.486566062     A.U. after   14 cycles
 SCF Done:  E(RB3LYP) =  -795.488674846     A.U. after   13 cycles
 SCF Done:  E(RB3LYP) =  -795.490258413     A.U. after    9 cycles
 SCF Done:  E(RB3LYP) =  -795.491292472     A.U. after   13 cycles
 SCF Done:  E(RB3LYP) =  -795.491641144     A.U. after   12 cycles
 SCF Done:  E(RB3LYP) =  -795.491868699     A.U. after   12 cycles
 SCF Done:  E(RB3LYP) =  -795.492063184     A.U. after   11 cycles
 SCF Done:  E(RB3LYP) =  -795.492099003     A.U. after   10 cycles
 SCF Done:  E(RB3LYP) =  -795.492490981     A.U. after    8 cycles
 SCF Done:  E(RB3LYP) =  -795.492490995     A.U. after    8 cycles
 SCF Done:  E(RB3LYP) =  -795.492491068     A.U. after    7 cycles
 SCF Done:  E(RB3LYP) =  -795.492491118     A.U. after    6 cycles
 SCF Done:  E(RB3LYP) =  -795.492491135     A.U. after    6 cycles
 Optimization completed.
    -- Stationary point found.
 Normal termination of Gaussian 16 at Fri Dec 11 18:55:42 2020.

 --------------------------------------------------------------------
 #N Geom=AllCheck Guess=TCheck SCRF=Check GenChk RB3LYP/6-31G(d) Freq
 --------------------------------------------------------------------

 Structure from the checkpoint file:  "JID_8034.chk"
 -------------------------------
 CID_119120901_JID_8034_neutraal
 -------------------------------
 Charge =  0 Multiplicity = 1

 SCF Done:  E(RB3LYP) =  -795.492491135     A.U. after    1 cycles

  Exact polarizability: 209.322 -25.604 143.637 -27.952 -20.841 119.380
 Approx polarizability: 285.000 -41.341 249.268 -50.423 -53.976 204.296

                      1                      2                      3
                      A                      A                      A
 Frequencies --     18.5248                44.2934                48.9368
 Red. masses --      6.1260                 4.3798                 4.1137
 Frc consts  --      0.0012                 0.0051                 0.0058
 IR Inten    --      0.2202                 0.4637                 0.5717

                      4                      5                      6
                      A                      A                      A
 Frequencies --     84.7666                90.7627               124.3319
 Red. masses --      5.1764                 3.5300                 2.3527
 Frc consts  --      0.0219                 0.0171                 0.0214
 IR Inten    --      0.8104                 0.9678                 5.0579

                      7                      8                      9
                      A                      A                      A
 Frequencies --    138.8472               145.6225               180.6117
 Red. masses --      2.1854                 2.2268                 3.7162
 Frc consts  --      0.0248                 0.0278                 0.0714
 IR Inten    --      5.8636                 1.0759                 2.8583

                     10                     11                     12
                      A                      A                      A
 Frequencies --    234.5775               252.1237               272.2994
 Red. masses --      3.9208                 2.7558                 1.9112
 Frc consts  --      0.1271                 0.1032                 0.0835
 IR Inten    --      1.7491                 8.9791                 9.6682

                     13                     14                     15
                      A                      A                      A
 Frequencies --    292.0194               319.5469               345.3400
 Red. masses --      2.1790                 2.6155                 4.4203
 Frc consts  --      0.1095                 0.1574                 0.3106
 IR Inten    --     16.2941                17.0307                 5.4758

                     16                     17                     18
                      A                      A                      A
 Frequencies --    377.1557               393.8852               423.6669
 Red. masses --      4.1661                 3.4061                 3.6968
 Frc consts  --      0.3492                 0.3113                 0.3910
 IR Inten    --      4.0967                 1.4952                 1.5667

                     19                     20                     21
                      A                      A                      A
 Frequencies --    429.6109               517.6064               528.2568
 Red. masses --      2.4480                 2.7939                 2.5586
 Frc consts  --      0.2662                 0.4410                 0.4207
 IR Inten    --      1.3166                 3.7289                18.5408

                     22                     23                     24
                      A                      A                      A
 Frequencies --    595.7323               618.2736               635.7362
 Red. masses --      2.4746                 1.5100                 4.6861
 Frc consts  --      0.5174                 0.3401                 1.1159
 IR Inten    --     26.6892                59.6939                20.4113

                     25                     26                     27
                      A                      A                      A
 Frequencies --    643.8671               656.0687               658.6654
 Red. masses --      4.2792                 2.8074                 3.4243
 Frc consts  --      1.0452                 0.7120                 0.8753
 IR Inten    --      5.5320                15.4671                66.9908

                     28                     29                     30
                      A                      A                      A
 Frequencies --    691.7553               709.9795               726.9819
 Red. masses --      4.4083                 4.2837                 4.0149
 Frc consts  --      1.2429                 1.2722                 1.2502
 IR Inten    --     13.2372                12.5366                 3.5628

                     31                     32                     33
                      A                      A                      A
 Frequencies --    756.2187               761.5017               789.5994
 Red. masses --      1.2476                 2.7868                 1.6169
 Frc consts  --      0.4204                 0.9521                 0.5939
 IR Inten    --     48.2774                 0.3223                36.0539

                     34                     35                     36
                      A                      A                      A
 Frequencies --    807.8305               837.9887               843.6852
 Red. masses --      1.7541                 2.8409                 1.4550
 Frc consts  --      0.6744                 1.1754                 0.6102
 IR Inten    --    221.8850                16.6180                16.6675

                     37                     38                     39
                      A                      A                      A
 Frequencies --    900.0033               905.2365               937.3856
 Red. masses --      2.9891                 1.3356                 5.1319
 Frc consts  --      1.4265                 0.6448                 2.6569
 IR Inten    --      5.1931                 6.2249                 2.7927

                     40                     41                     42
                      A                      A                      A
 Frequencies --    961.6855               972.0358               974.2111
 Red. masses --      2.5033                 1.3823                 3.0717
 Frc consts  --      1.3641                 0.7695                 1.7176
 IR Inten    --      0.6236                 0.7368                 4.9580

                     43                     44                     45
                      A                      A                      A
 Frequencies --   1005.5349              1007.0446              1010.5301
 Red. masses --      1.7049                 1.6090                 2.8189
 Frc consts  --      1.0156                 0.9614                 1.6960
 IR Inten    --      3.3042                13.7834                 8.3083

                     46                     47                     48
                      A                      A                      A
 Frequencies --   1072.7946              1075.3813              1077.2098
 Red. masses --      2.0693                 1.5004                 2.1467
 Frc consts  --      1.4032                 1.0223                 1.4677
 IR Inten    --      2.0791                 2.3212                 4.4610

                     49                     50                     51
                      A                      A                      A
 Frequencies --   1111.3405              1115.8965              1142.2081
 Red. masses --      1.8414                 1.3340                 1.6465
 Frc consts  --      1.3400                 0.9787                 1.2656
 IR Inten    --      1.4891                 6.3641                 4.5968

                     52                     53                     54
                      A                      A                      A
 Frequencies --   1169.1762              1181.6173              1187.7441
 Red. masses --      2.0844                 1.1662                 2.1817
 Frc consts  --      1.6788                 0.9594                 1.8134
 IR Inten    --      2.6136                 2.2764                66.3649

                     55                     56                     57
                      A                      A                      A
 Frequencies --   1196.1337              1263.1339              1271.0356
 Red. masses --      2.4233                 1.6314                 1.7948
 Frc consts  --      2.0428                 1.5336                 1.7083
 IR Inten    --      3.8123                21.0080                11.4868

                     58                     59                     60
                      A                      A                      A
 Frequencies --   1296.4695              1317.3264              1333.3361
 Red. masses --      2.2194                 2.1217                 1.7409
 Frc consts  --      2.1979                 2.1693                 1.8235
 IR Inten    --      2.6341                28.1401                21.0569

                     61                     62                     63
                      A                      A                      A
 Frequencies --   1348.8635              1362.7089              1377.8355
 Red. masses --      3.0827                 2.2586                 1.4526
 Frc consts  --      3.3045                 2.4711                 1.6248
 IR Inten    --     13.4431               117.7908                23.4791

                     64                     65                     66
                      A                      A                      A
 Frequencies --   1397.2488              1414.2724              1435.4973
 Red. masses --      1.3981                 2.5228                 1.2747
 Frc consts  --      1.6082                 2.9730                 1.5476
 IR Inten    --     41.3790                 2.7929                 1.8351

                     67                     68                     69
                      A                      A                      A
 Frequencies --   1465.7222              1486.4765              1503.7628
 Red. masses --      2.6336                 2.3939                 2.2204
 Frc consts  --      3.3336                 3.1165                 2.9583
 IR Inten    --     57.1057               224.6662                36.7987

                     70                     71                     72
                      A                      A                      A
 Frequencies --   1507.6877              1511.5412              1516.1283
 Red. masses --      1.1154                 1.1345                 1.6157
 Frc consts  --      1.4939                 1.5272                 2.1882
 IR Inten    --      7.2060                 3.7829                 9.4131

                     73                     74                     75
                      A                      A                      A
 Frequencies --   1543.7221              1547.8456              1579.8460
 Red. masses --      1.1498                 2.0178                 2.9166
 Frc consts  --      1.6143                 2.8483                 4.2890
 IR Inten    --     26.5078                17.5218               579.8355

                     76                     77                     78
                      A                      A                      A
 Frequencies --   1580.4560              1635.8628              1654.7673
 Red. masses --      4.0842                 5.0322                 4.8617
 Frc consts  --      6.0107                 7.9342                 7.8435
 IR Inten    --     74.1294               112.5515               129.0104

                     79                     80                     81
                      A                      A                      A
 Frequencies --   1678.4490              1738.3064              2978.2877
 Red. masses --      1.2883                 4.1023                 1.0718
 Frc consts  --      2.1384                 7.3036                 5.6015
 IR Inten    --     44.6425               235.5181                86.4316

                     82                     83                     84
                      A                      A                      A
 Frequencies --   3038.0910              3069.7865              3084.2903
 Red. masses --      1.0423                 1.0844                 1.0952
 Frc consts  --      5.6682                 6.0211                 6.1385
 IR Inten    --     30.8049                20.0648                37.9072

                     85                     86                     87
                      A                      A                      A
 Frequencies --   3085.0600              3135.7909              3162.4211
 Red. masses --      1.0684                 1.1062                 1.0969
 Frc consts  --      5.9914                 6.4088                 6.4632
 IR Inten    --     43.5770                19.3312                 4.4258

                     88                     89                     90
                      A                      A                      A
 Frequencies --   3171.1223              3192.7170              3219.5223
 Red. masses --      1.0892                 1.0895                 1.0959
 Frc consts  --      6.4536                 6.5430                 6.6928
 IR Inten    --     30.4221                14.5532                21.8324

                     91                     92                     93
                      A                      A                      A
 Frequencies --   3259.8667              3270.8403              3293.7062
 Red. masses --      1.0927                 1.0925                 1.1033
 Frc consts  --      6.8413                 6.8864                 7.0522
 IR Inten    --      6.3757                 6.1081                 1.2658

                     94                     95                     96
                      A                      A                      A
 Frequencies --   3524.6268              3608.7764              3647.3676
 Red. masses --      1.0562                 1.0760                 1.0873
 Frc consts  --      7.7309                 8.2565                 8.5220
 IR Inten    --     29.2704                46.6727                 6.6173

 - Thermochemistry -
 -------------------
 Temperature   298.150 Kelvin.  Pressure   1.00000 Atm.
 Atom     1 has atomic number  6 and mass  12.00000

 Molecular mass:   244.14364 amu.
 Principal axes and moments of inertia in atomic units:
                           1         2         3
     Eigenvalues --  2028.642147137.253037423.76831
           X            0.99988  -0.01274  -0.00868
           Y            0.01184   0.99525  -0.09667
           Z            0.00987   0.09656   0.99528
 This molecule is an asymmetric top.
 Rotational symmetry number  1.
 Warning -- assumption of classical behavior for rotation
           may cause significant error
 Rotational temperatures (Kelvin)      0.04270     0.01214     0.01167
 Rotational constants (GHZ):           0.88963     0.25286     0.24310
 Zero-point vibrational energy     744737.7 (Joules/Mol)
                                  177.99657 (Kcal/Mol)
 Warning -- explicit consideration of  23 degrees of freedom as
           vibrations may cause significant error
 Vibrational temperatures:     26.65    63.73    70.41   121.96   130.59
          (Kelvin)            178.89   199.77   209.52   259.86   337.50
                              362.75   391.78   420.15   459.76   496.87
                              542.64   566.71   609.56   618.11   744.72
                              760.04   857.13   889.56   914.68   926.38
                              943.94   947.67   995.28  1021.50  1045.96
                             1088.03  1095.63  1136.06  1162.29  1205.68
                             1213.87  1294.90  1302.43  1348.69  1383.65
                             1398.54  1401.67  1446.74  1448.91  1453.93
                             1543.51  1547.23  1549.86  1598.97  1605.53
                             1643.38  1682.18  1700.08  1708.90  1720.97
                             1817.37  1828.74  1865.33  1895.34  1918.37
                             1940.71  1960.63  1982.40  2010.33  2034.82
                             2065.36  2108.85  2138.71  2163.58  2169.23
                             2174.77  2181.37  2221.07  2227.00  2273.05
                             2273.92  2353.64  2380.84  2414.91  2501.04
                             4285.09  4371.14  4416.74  4437.61  4438.71
                             4511.70  4550.02  4562.54  4593.61  4632.17
                             4690.22  4706.01  4738.91  5071.15  5192.22
                             5247.75

 Zero-point correction=                           0.283656 (Hartree/Particle)
 Thermal correction to Energy=                    0.299880
 Thermal correction to Enthalpy=                  0.300824
 Thermal correction to Gibbs Free Energy=         0.238597
 Sum of electronic and zero-point Energies=           -795.208836
 Sum of electronic and thermal Energies=              -795.192611
 Sum of electronic and thermal Enthalpies=            -795.191667
 Sum of electronic and thermal Free Energies=         -795.253894

                     E (Thermal)             CV                S
                      KCal/Mol        Cal/Mol-Kelvin    Cal/Mol-Kelvin
 Total                  188.178             62.562            130.968
 Electronic               0.000              0.000              0.000
 Translational            0.889              2.981             42.379
 Rotational               0.889              2.981             33.041
 Vibrational            186.400             56.600             55.549
 Vibration     1          0.593              1.986              6.786
 Vibration     2          0.595              1.980              5.057
 Vibration     3          0.595              1.978              4.860
 Vibration     4          0.601              1.960              3.777
 Vibration     5          0.602              1.956              3.644
 Vibration     6          0.610              1.929              3.032
 Vibration     7          0.614              1.914              2.820
 Vibration     8          0.617              1.907              2.729
 Vibration     9          0.630              1.866              2.322
 Vibration    10          0.654              1.788              1.844
 Vibration    11          0.664              1.759              1.716
 Vibration    12          0.675              1.724              1.582
 Vibration    13          0.687              1.689              1.462
 Vibration    14          0.705              1.636              1.312
 Vibration    15          0.724              1.585              1.187
 Vibration    16          0.748              1.519              1.051
 Vibration    17          0.761              1.483              0.985
 Vibration    18          0.786              1.419              0.880
 Vibration    19          0.791              1.406              0.860
 Vibration    20          0.873              1.211              0.616
 Vibration    21          0.883              1.187              0.591
 Vibration    22          0.954              1.041              0.457
 Vibration    23          0.978              0.993              0.419

                           ! Non-Optimized Parameters !
 Normal termination of Gaussian 16 at Fri Dec 11 19:09:27 2020.

 ----------------------------------------------------------------------
 # B3LYP/6-311++G(d,p) empiricaldispersion=gd3bj scf=xqc pop=npa geom=c
 heck
 ----------------------------------------------------------------------

 ---------------------------------------
 CID_119120901_JID_8034_Energie_neutraal
 ---------------------------------------
 Structure from the checkpoint file:  "JID_8034.chk"
 Charge =  0 Multiplicity = 1

 SCF Done:  E(RB3LYP) =  -795.712929384     A.U. after   15 cycles
 Normal termination of Gaussian 16 at Fri Dec 11 19:14:42 2020.

 ----------------------------------------------------------------------
 # B3LYP/6-311++G(d,p) empiricaldispersion=gd3bj scf=xqc pop=npa geom=c
 heck
 ----------------------------------------------------------------------

 -------------------------------------
 CID_119120901_JID_8034_Energie_kation
 -------------------------------------
 Structure from the checkpoint file:  "JID_8034.chk"
 Charge =  1 Multiplicity = 2

 SCF Done:  E(UB3LYP) =  -795.431340521     A.U. after   23 cycles
 Normal termination of Gaussian 16 at Fri Dec 11 19:25:32 2020.
 Gaussian 16:  ES64L-G16RevA.03 25-Dec-2016

 ----------------------------------------------------------------------
 # B3LYP/6-311++G(d,p) empiricaldispersion=gd3bj scf=xqc pop=npa geom=c
 heck
 ----------------------------------------------------------------------

 ------------------------------------
 CID_119120901_JID_8034_Energie_anion
 ------------------------------------
 Structure from the checkpoint file:  "JID_8034.chk"
 Charge = -1 Multiplicity = 2

                         Standard orientation:
 ---------------------------------------------------------------------
 Center     Atomic      Atomic             Coordinates (Angstroms)
 Number     Number       Type             X           Y           Z
 ---------------------------------------------------------------------
      1          6           0       -4.432544   -0.089855    0.023463
      2          6           0       -3.125751   -0.695389   -0.372618
      3          7           0       -2.798152   -1.966569   -0.217997
      4          6           0       -1.519716   -2.088516   -0.727553
      5          6           0       -1.073132   -0.878837   -1.194008
      6          7           0       -2.108408    0.012980   -0.971963
      7          6           0       -2.010797    1.460547   -1.083931
      8          6           0       -1.508302    2.105848    0.225188
      9          7           0       -0.188319    1.625166    0.550917
     10          6           0       -0.045671    0.569259    1.271401
     11          7           0       -0.998228   -0.083337    2.067595
     12          7           0        1.185064   -0.052149    1.391613
     13          6           0        2.296514   -0.013659    0.553239
     14          6           0        2.446023    0.877519   -0.523663
     15          6           0        3.599056    0.768471   -1.292644
     16          6           0        4.565789   -0.186423   -0.972544
     17          6           0        4.324217   -1.001654    0.131000
     18          7           0        3.220706   -0.931869    0.880180
     19          1           0       -4.325519    0.687489    0.791435
     20          1           0       -5.066095   -0.883001    0.424611
     21          1           0       -4.948932    0.366785   -0.830126
     22          1           0       -1.008215   -3.041202   -0.743241
     23          1           0       -0.139065   -0.558800   -1.629673
     24          1           0       -1.311585    1.688744   -1.892258
     25          1           0       -2.991199    1.863040   -1.357238
     26          1           0       -1.458219    3.189614    0.065717
     27          1           0       -2.270584    1.952777    1.007510
     28          1           0       -1.081179   -1.072806    1.845576
     29          1           0       -1.914825    0.340930    2.023479
     30          1           0        1.273881   -0.742264    2.126157
     31          1           0        1.684732    1.621734   -0.706084
     32          1           0        3.745780    1.439325   -2.134995
     33          1           0        5.478338   -0.290742   -1.549880
     34          1           0        5.049935   -1.755050    0.432623
 ---------------------------------------------------------------------

 SCF Done:  E(UB3LYP) =  -795.705010929     A.U. after   33 cycles
 SCF Done:  E(UB3LYP) =  -795.705010934     a.u. after    2 cycles

 The electronic state is 2-A.
 Alpha  occ. eigenvalues --  -14.26970 -14.24550 -14.22716 -14.19974 -14.19485
 Alpha  occ. eigenvalues --  -14.18125 -10.17659 -10.14512 -10.13052 -10.11686
 Alpha  occ. eigenvalues --  -10.10664 -10.10159 -10.09845 -10.08584 -10.08103
 Alpha  occ. eigenvalues --  -10.07515 -10.07501 -10.06864  -0.92195  -0.90142
 Alpha  occ. eigenvalues --   -0.85175  -0.79918  -0.78790  -0.77031  -0.70080
 Alpha  occ. eigenvalues --   -0.68149  -0.65979  -0.64746  -0.59637  -0.57200
 Alpha  occ. eigenvalues --   -0.54018  -0.53476  -0.50479  -0.48267  -0.45603
 Alpha  occ. eigenvalues --   -0.44021  -0.43612  -0.42034  -0.41164  -0.38998
 Alpha  occ. eigenvalues --   -0.38418  -0.37439  -0.36466  -0.34879  -0.33949
 Alpha  occ. eigenvalues --   -0.33738  -0.33141  -0.32241  -0.30606  -0.30080
 Alpha  occ. eigenvalues --   -0.29823  -0.29143  -0.28868  -0.28373  -0.27727
 Alpha  occ. eigenvalues --   -0.27257  -0.21668  -0.18869  -0.18115  -0.17616
 Alpha  occ. eigenvalues --   -0.16874  -0.16171  -0.15321  -0.13040  -0.12162
 Alpha  occ. eigenvalues --    0.04286
 Alpha virt. eigenvalues --    0.05755   0.06580   0.07505   0.08165   0.08431
 Alpha virt. eigenvalues --    0.08478   0.08697   0.09897   0.10252   0.10461
 Alpha virt. eigenvalues --    0.10879   0.11471   0.11750   0.12304   0.12709

  Beta  occ. eigenvalues --  -14.26969 -14.24566 -14.22690 -14.19792 -14.19481
  Beta  occ. eigenvalues --  -14.18126 -10.17606 -10.14470 -10.13047 -10.11649
  Beta  occ. eigenvalues --  -10.10635 -10.10126 -10.09840 -10.08583 -10.07941
  Beta  occ. eigenvalues --  -10.07505 -10.07454 -10.06868  -0.92185  -0.90079
  Beta  occ. eigenvalues --   -0.84998  -0.79878  -0.78730  -0.77010  -0.69843
  Beta  occ. eigenvalues --   -0.68111  -0.65887  -0.64676  -0.59576  -0.57137
  Beta  occ. eigenvalues --   -0.53915  -0.53282  -0.50469  -0.48185  -0.45531
  Beta  occ. eigenvalues --   -0.43961  -0.43551  -0.41975  -0.41105  -0.38943
  Beta  occ. eigenvalues --   -0.38349  -0.37375  -0.36399  -0.34831  -0.33910
  Beta  occ. eigenvalues --   -0.33696  -0.33014  -0.32031  -0.30562  -0.29979
  Beta  occ. eigenvalues --   -0.29721  -0.29061  -0.28823  -0.28298  -0.27585
  Beta  occ. eigenvalues --   -0.27134  -0.21455  -0.18174  -0.18068  -0.17587
  Beta  occ. eigenvalues --   -0.16673  -0.16059  -0.15257  -0.12985  -0.12021
  Beta virt. eigenvalues --    0.06477   0.07186   0.07294   0.07841   0.08285
  Beta virt. eigenvalues --    0.08642   0.09007   0.09095   0.09983   0.10567
  Beta virt. eigenvalues --    0.10654   0.11269   0.11672   0.11861   0.12586

 Mulliken charges and spin densities:
               1          2
     1  C    2.658245  -3.293054
     2  C   -2.067503   1.799336
     3  N   -0.104130   0.040897
     4  C   -0.199271  -0.281903
     5  C   -0.079546   0.430419
     6  N    0.061006   0.021344
     7  C    0.168754  -0.395433
     8  C    0.908186  -1.117057
     9  N   -0.157862   0.088275
    10  C   -0.272515  -0.071553
    11  N   -0.174819  -0.014321
    12  N   -0.149349  -0.019297
    13  C   -0.945246  -0.103657
    14  C    0.978931  -0.131396
    15  C   -0.799117   0.313279
    16  C    0.114012  -0.113965
    17  C   -0.256901   0.104423
    18  N   -0.059782   0.084692
    19  H   -0.539356   0.677614
    20  H    0.070898   0.096781
    21  H   -0.400567   0.589476
    22  H    0.132007   0.008286
    23  H    0.083602   0.082320
    24  H   -0.166126   0.352637
    25  H   -0.656645   0.828527
    26  H   -0.459491   0.656767
    27  H   -0.058801   0.167846
    28  H    0.226160   0.029703
    29  H    0.224107   0.039905
    30  H    0.312438  -0.002009
    31  H    0.331750  -0.034695
    32  H    0.004921   0.145964
    33  H    0.123963   0.008632
    34  H    0.148048   0.011217
 Sum of Mulliken charges =  -1.00000   1.00000

 Dipole moment (field-independent basis, Debye):
    X=              7.0243    Y=             -4.0078    Z=              0.1997  Tot=              8.0897
 Quadrupole moment (field-independent basis, Debye-Ang):
   XX=           -192.6195   YY=           -151.4688   ZZ=           -133.3636
   XY=             11.4940   XZ=             -6.9854   YZ=              1.5955

 Summary of Natural Population Analysis:

                                       Natural Population
                Natural  -----------------------------------------------
    Atom  No    Charge         Core      Valence    Rydberg      Total
 -----------------------------------------------------------------------
      C    1   -0.30958      0.99962     2.30401    0.00595     3.30958
      C    2    0.19348      0.99960     1.78872    0.01819     2.80652
      N    3   -0.26819      0.99970     2.75880    0.00969     3.76819
      C    4   -0.04795      0.99957     2.03514    0.01324     3.04795
      C    5   -0.03398      0.99954     2.02291    0.01152     3.03398
      N    6   -0.21409      0.99962     2.70210    0.01236     3.71409
      C    7   -0.08642      0.99960     2.07405    0.01277     3.08642
      C    8   -0.09762      0.99960     2.08508    0.01294     3.09762
      N    9   -0.30526      0.99964     2.79552    0.01011     3.80526
      C   10    0.31917      0.99960     1.66488    0.01634     2.68083
      N   11   -0.41847      0.99971     2.91061    0.00814     3.91847
      N   12   -0.30708      0.99962     2.79621    0.01125     3.80708
      C   13    0.20599      0.99953     1.77959    0.01488     2.79401
      C   14   -0.14648      0.99952     2.13808    0.00887     3.14648
      C   15   -0.05262      0.99958     2.04385    0.00919     3.05262
      C   16   -0.14907      0.99956     2.13975    0.00976     3.14907
      C   17    0.03285      0.99961     1.95384    0.01370     2.96715
      N   18   -0.23523      0.99968     2.72587    0.00969     3.73523
      H   19    0.10765      0.00000     0.38961    0.00275     0.39235
      H   20    0.11368      0.00000     0.38509    0.00123     0.38632
      H   21    0.11090      0.00000     0.38742    0.00168     0.38910
      H   22    0.09648      0.00000     0.40269    0.00083     0.40352
      H   23    0.11035      0.00000     0.38841    0.00123     0.38965
      H   24    0.10209      0.00000     0.39641    0.00150     0.39791
      H   25    0.11015      0.00000     0.38542    0.00444     0.38985
      H   26    0.10188      0.00000     0.39635    0.00178     0.39812
      H   27    0.08073      0.00000     0.41714    0.00213     0.41927
      H   28    0.19399      0.00000     0.30411    0.00190     0.30601
      H   29    0.18968      0.00000     0.30855    0.00177     0.31032
      H   30    0.19832      0.00000     0.29876    0.00293     0.30168
      H   31    0.12524      0.00000     0.37327    0.00149     0.37476
      H   32    0.09645      0.00000     0.40273    0.00082     0.40355
      H   33    0.09864      0.00000     0.40050    0.00086     0.40136
      H   34    0.08431      0.00000     0.41457    0.00112     0.41569
 =======================================================================
   * Total *    0.00000     17.99291    46.77006    0.23703    65.00000

 Normal termination of Gaussian 16 at Fri Dec 11 19:55:52 2020.
