 Gaussian 16, Revision A.03,

 -----------------------------------------------------------
 # opt freq B3LYP/6-31G(d) empiricaldispersion=gd3bj scf=xqc
 -----------------------------------------------------------

 --------------------------------
 CID_102810591_JID_10605_neutraal
 --------------------------------
 Symbolic Z-matrix:
 Charge =  0 Multiplicity = 1

 SCF Done:  E(RB3LYP) =  -859.462031151     A.U. after   16 cycles
 SCF Done:  E(RB3LYP) =  -859.466875041     A.U. after   13 cycles
 SCF Done:  E(RB3LYP) =  -859.467899284     A.U. after   13 cycles
 SCF Done:  E(RB3LYP) =  -859.468592598     A.U. after   13 cycles
 SCF Done:  E(RB3LYP) =  -859.469837583     A.U. after   13 cycles
 SCF Done:  E(RB3LYP) =  -859.471141412     A.U. after   13 cycles
 SCF Done:  E(RB3LYP) =  -859.471927374     A.U. after   15 cycles
 SCF Done:  E(RB3LYP) =  -859.472345422     A.U. after   13 cycles
 SCF Done:  E(RB3LYP) =  -859.472728693     A.U. after   13 cycles
 SCF Done:  E(RB3LYP) =  -859.472869062     A.U. after   12 cycles
 SCF Done:  E(RB3LYP) =  -859.473044120     A.U. after    9 cycles
 SCF Done:  E(RB3LYP) =  -859.473044158     A.U. after    7 cycles
 SCF Done:  E(RB3LYP) =  -859.473044189     A.U. after    7 cycles
 SCF Done:  E(RB3LYP) =  -859.473044233     A.U. after    7 cycles
 Optimization completed.
    -- Stationary point found.
 Normal termination of Gaussian 16 at Mon Dec 14 14:24:02 2020.

 --------------------------------------------------------------------
 #N Geom=AllCheck Guess=TCheck SCRF=Check GenChk RB3LYP/6-31G(d) Freq
 --------------------------------------------------------------------

 Structure from the checkpoint file:  "JID_10605.chk"
 --------------------------------
 CID_102810591_JID_10605_neutraal
 --------------------------------
 Charge =  0 Multiplicity = 1

 SCF Done:  E(RB3LYP) =  -859.473044233     A.U. after    1 cycles

  Exact polarizability: 238.802 -26.942 161.561  -3.316   2.395 150.015
 Approx polarizability: 320.378 -55.164 257.394 -10.641   5.937 252.015

                      1                      2                      3
                      A                      A                      A
 Frequencies --     11.2423                19.5940                31.7266
 Red. masses --      3.7541                 5.3330                 1.0534
 Frc consts  --      0.0003                 0.0012                 0.0006
 IR Inten    --      0.3401                 1.7196                 0.4455

                      4                      5                      6
                      A                      A                      A
 Frequencies --     33.8101                57.3820                69.8256
 Red. masses --      4.2355                 4.4034                 1.1447
 Frc consts  --      0.0029                 0.0085                 0.0033
 IR Inten    --      0.8432                 0.5461                 0.0078

                      7                      8                      9
                      A                      A                      A
 Frequencies --     76.2017               108.7952               116.7182
 Red. masses --      2.4672                 7.2569                 5.1843
 Frc consts  --      0.0084                 0.0506                 0.0416
 IR Inten    --      0.3724                 2.9850                 1.7966

                     10                     11                     12
                      A                      A                      A
 Frequencies --    141.4895               148.7685               163.3644
 Red. masses --      5.4768                 3.1154                 3.5835
 Frc consts  --      0.0646                 0.0406                 0.0563
 IR Inten    --      7.4830                 2.3120                 0.0352

                     13                     14                     15
                      A                      A                      A
 Frequencies --    184.0707               209.0877               232.5704
 Red. masses --      2.6595                 3.0950                 3.8044
 Frc consts  --      0.0531                 0.0797                 0.1212
 IR Inten    --      6.2457                 1.6526                 1.7934

                     16                     17                     18
                      A                      A                      A
 Frequencies --    236.1432               263.8063               287.3753
 Red. masses --      1.5385                 4.7818                 4.6558
 Frc consts  --      0.0505                 0.1961                 0.2265
 IR Inten    --      1.7891                 0.4380                 1.4316

                     19                     20                     21
                      A                      A                      A
 Frequencies --    321.7222               359.0644               391.4225
 Red. masses --      2.6626                 3.1872                 3.5334
 Frc consts  --      0.1624                 0.2421                 0.3190
 IR Inten    --      0.7142                 7.2572                 0.6532

                     22                     23                     24
                      A                      A                      A
 Frequencies --    411.4334               437.6685               455.6304
 Red. masses --      8.1228                 4.2761                 3.9638
 Frc consts  --      0.8101                 0.4826                 0.4848
 IR Inten    --      4.1161                 2.9676                 1.9828

                     25                     26                     27
                      A                      A                      A
 Frequencies --    475.7741               527.9596               548.0077
 Red. masses --      8.3731                 5.0030                 4.7332
 Frc consts  --      1.1167                 0.8216                 0.8375
 IR Inten    --      0.2524                 2.6143                 1.6751

                     28                     29                     30
                      A                      A                      A
 Frequencies --    566.5930               618.9653               627.2376
 Red. masses --      4.6865                 4.5109                 3.5143
 Frc consts  --      0.8864                 1.0182                 0.8146
 IR Inten    --      6.4884                 1.4040                 5.0773

                     31                     32                     33
                      A                      A                      A
 Frequencies --    644.2370               670.4519               692.8380
 Red. masses --      5.6826                 6.2184                 3.2815
 Frc consts  --      1.3896                 1.6469                 0.9281
 IR Inten    --      3.2000                18.1675                 2.5821

                     34                     35                     36
                      A                      A                      A
 Frequencies --    713.7559               765.4080               791.0263
 Red. masses --      2.3388                 3.8732                 3.1846
 Frc consts  --      0.7020                 1.3369                 1.1741
 IR Inten    --     10.8877                52.0485                 1.7875

                     37                     38                     39
                      A                      A                      A
 Frequencies --    798.2224               805.2041               820.4547
 Red. masses --      1.9902                 1.3329                 1.5919
 Frc consts  --      0.7471                 0.5092                 0.6313
 IR Inten    --     15.5669                13.5509                 5.2712

                     40                     41                     42
                      A                      A                      A
 Frequencies --    860.6022               894.1300               906.9223
 Red. masses --      3.6568                 1.3915                 3.1020
 Frc consts  --      1.5957                 0.6555                 1.5032
 IR Inten    --      0.0769                 1.8497                15.6356

                     43                     44                     45
                      A                      A                      A
 Frequencies --    923.0191               973.7187               978.8413
 Red. masses --      1.6857                 2.6868                 1.3948
 Frc consts  --      0.8462                 1.5009                 0.7874
 IR Inten    --     12.3351                76.1384                10.4750

                     46                     47                     48
                      A                      A                      A
 Frequencies --   1009.3501              1016.6176              1020.9553
 Red. masses --      2.3496                 2.2407                 5.2392
 Frc consts  --      1.4103                 1.3644                 3.2176
 IR Inten    --     16.3716                12.0261                 0.6892

                     49                     50                     51
                      A                      A                      A
 Frequencies --   1024.1228              1045.9808              1076.2103
 Red. masses --      5.0052                 2.1560                 1.5232
 Frc consts  --      3.0930                 1.3898                 1.0395
 IR Inten    --      0.8164                 1.0823                 8.2218

                     52                     53                     54
                      A                      A                      A
 Frequencies --   1088.6246              1106.0989              1122.0723
 Red. masses --      1.8857                 1.7640                 1.5514
 Frc consts  --      1.3167                 1.2715                 1.1509
 IR Inten    --      2.0675                47.6434                 0.0501

                     55                     56                     57
                      A                      A                      A
 Frequencies --   1134.8330              1163.1185              1192.9673
 Red. masses --      1.6006                 1.3114                 1.5475
 Frc consts  --      1.2145                 1.0453                 1.2976
 IR Inten    --      5.3535                 0.0802                 8.9302

                     58                     59                     60
                      A                      A                      A
 Frequencies --   1197.9427              1212.8700              1220.6569
 Red. masses --      1.6908                 1.1279                 1.8253
 Frc consts  --      1.4296                 0.9776                 1.6024
 IR Inten    --     41.8348                 0.1732                11.1323

                     61                     62                     63
                      A                      A                      A
 Frequencies --   1252.5217              1272.7383              1300.3899
 Red. masses --      2.5070                 2.4280                 1.1511
 Frc consts  --      2.3172                 2.3172                 1.1469
 IR Inten    --     36.6515                 0.9076                 0.0235

                     64                     65                     66
                      A                      A                      A
 Frequencies --   1308.3542              1334.2624              1354.9992
 Red. masses --      2.2273                 2.9847                 2.6635
 Frc consts  --      2.2464                 3.1307                 2.8813
 IR Inten    --      1.1971                21.4171               104.0535

                     67                     68                     69
                      A                      A                      A
 Frequencies --   1361.4681              1368.1442              1428.3189
 Red. masses --      1.4727                 3.3009                 2.2778
 Frc consts  --      1.6084                 3.6403                 2.7379
 IR Inten    --      8.1814                 1.6155                 4.7840

                     70                     71                     72
                      A                      A                      A
 Frequencies --   1443.1248              1445.8849              1471.9673
 Red. masses --      1.2452                 1.4151                 1.4317
 Frc consts  --      1.5279                 1.7430                 1.8276
 IR Inten    --      0.1161                 3.5403                46.1180

                     73                     74                     75
                      A                      A                      A
 Frequencies --   1486.6734              1489.9224              1501.9629
 Red. masses --      2.1533                 1.2924                 1.0444
 Frc consts  --      2.8040                 1.6904                 1.3882
 IR Inten    --      2.3119                 1.2410                 7.2982

                     76                     77                     78
                      A                      A                      A
 Frequencies --   1504.6547              1518.1342              1522.7690
 Red. masses --      2.4972                 1.0494                 2.0434
 Frc consts  --      3.3310                 1.4250                 2.7917
 IR Inten    --     49.9506                 5.4882                45.8693

                     79                     80                     81
                      A                      A                      A
 Frequencies --   1524.6419              1527.1785              1534.9115
 Red. masses --      1.0412                 1.3099                 1.2113
 Frc consts  --      1.4260                 1.7999                 1.6814
 IR Inten    --      5.3575                11.4767                20.7308

                     82                     83                     84
                      A                      A                      A
 Frequencies --   1546.2453              1554.8733              1593.7621
 Red. masses --      2.1441                 1.4955                 4.8759
 Frc consts  --      3.0203                 2.1302                 7.2971
 IR Inten    --     10.6505                 2.0996               145.4014

                     85                     86                     87
                      A                      A                      A
 Frequencies --   1654.2085              1672.9223              1777.9029
 Red. masses --      5.4372                 5.8162                12.1607
 Frc consts  --      8.7662                 9.5905                22.6476
 IR Inten    --      2.3312                11.3838               211.2193

                     88                     89                     90
                      A                      A                      A
 Frequencies --   2356.9363              3043.7722              3047.9238
 Red. masses --     12.6532                 1.0399                 1.0817
 Frc consts  --     41.4138                 5.6766                 5.9206
 IR Inten    --     13.5321                30.7109                 8.2733

                     91                     92                     93
                      A                      A                      A
 Frequencies --   3056.8547              3062.6854              3077.9242
 Red. masses --      1.0623                 1.0352                 1.0319
 Frc consts  --      5.8483                 5.7209                 5.7597
 IR Inten    --     10.4074                30.0209                40.0464

                     94                     95                     96
                      A                      A                      A
 Frequencies --   3078.2803              3101.2761              3126.8462
 Red. masses --      1.1003                 1.0963                 1.1028
 Frc consts  --      6.1427                 6.2125                 6.3528
 IR Inten    --      5.3280                20.4005                15.7467

                     97                     98                     99
                      A                      A                      A
 Frequencies --   3131.3793              3135.6458              3148.8610
 Red. masses --      1.1030                 1.1025                 1.1064
 Frc consts  --      6.3725                 6.3870                 6.4634
 IR Inten    --     29.7013                27.2367                 9.9361

                    100                    101                    102
                      A                      A                      A
 Frequencies --   3168.2825              3173.3075              3181.4084
 Red. masses --      1.0899                 1.1054                 1.0874
 Frc consts  --      6.4461                 6.5585                 6.4848
 IR Inten    --     16.9387                 7.0090                 8.7085

                    103                    104                    105
                      A                      A                      A
 Frequencies --   3197.9539              3212.6345              3284.0464
 Red. masses --      1.0902                 1.0961                 1.0980
 Frc consts  --      6.5689                 6.6655                 6.9770
 IR Inten    --     20.2653                12.4885                 0.4193

 - Thermochemistry -
 -------------------
 Temperature   298.150 Kelvin.  Pressure   1.00000 Atm.
 Atom     1 has atomic number  6 and mass  12.00000

 Molecular mass:   267.13716 amu.
 Principal axes and moments of inertia in atomic units:
                           1         2         3
     Eigenvalues --  2849.62438********************
           X            0.99998  -0.00055   0.00620
           Y            0.00035   0.99949   0.03179
           Z           -0.00621  -0.03179   0.99948
 This molecule is an asymmetric top.
 Rotational symmetry number  1.
 Warning -- assumption of classical behavior for rotation
           may cause significant error
 Rotational temperatures (Kelvin)      0.03039     0.00825     0.00743
 Rotational constants (GHZ):           0.63333     0.17199     0.15477
 Zero-point vibrational energy     791590.9 (Joules/Mol)
                                  189.19476 (Kcal/Mol)
 Warning -- explicit consideration of  29 degrees of freedom as
           vibrations may cause significant error
 Vibrational temperatures:     16.18    28.19    45.65    48.65    82.56
          (Kelvin)            100.46   109.64   156.53   167.93   203.57
                              214.04   235.04   264.84   300.83   334.62
                              339.76   379.56   413.47   462.89   516.61
                              563.17   591.96   629.71   655.55   684.53
                              759.62   788.46   815.20   890.55   902.46
                              926.91   964.63   996.84  1026.94  1101.25
                             1138.11  1148.46  1158.51  1180.45  1238.21
                             1286.45  1304.86  1328.02  1400.96  1408.33
                             1452.23  1462.69  1468.93  1473.48  1504.93
                             1548.43  1566.29  1591.43  1614.41  1632.77
                             1673.47  1716.41  1723.57  1745.05  1756.25
                             1802.10  1831.19  1870.97  1882.43  1919.71
                             1949.54  1958.85  1968.45  2055.03  2076.33
                             2080.31  2117.83  2138.99  2143.67  2160.99
                             2164.86  2184.26  2190.92  2193.62  2197.27
                             2208.40  2224.70  2237.12  2293.07  2380.04
                             2406.96  2558.01  3391.11  4379.31  4385.28
                             4398.13  4406.52  4428.45  4428.96  4462.04
                             4498.83  4505.36  4511.49  4530.51  4558.45
                             4565.68  4577.34  4601.14  4622.26  4725.01

 Zero-point correction=                           0.301501 (Hartree/Particle)
 Thermal correction to Energy=                    0.321425
 Thermal correction to Enthalpy=                  0.322370
 Thermal correction to Gibbs Free Energy=         0.248937
 Sum of electronic and zero-point Energies=           -859.171543
 Sum of electronic and thermal Energies=              -859.151619
 Sum of electronic and thermal Enthalpies=            -859.150675
 Sum of electronic and thermal Free Energies=         -859.224107

                     E (Thermal)             CV                S
                      KCal/Mol        Cal/Mol-Kelvin    Cal/Mol-Kelvin
 Total                  201.697             71.847            154.551
 Electronic               0.000              0.000              0.000
 Translational            0.889              2.981             42.647
 Rotational               0.889              2.981             34.210
 Vibrational            199.920             65.885             77.694
 Vibration     1          0.593              1.987              7.778
 Vibration     2          0.593              1.986              6.675
 Vibration     3          0.594              1.983              5.718
 Vibration     4          0.594              1.983              5.592
 Vibration     5          0.596              1.975              4.545
 Vibration     6          0.598              1.969              4.158
 Vibration     7          0.599              1.965              3.986
 Vibration     8          0.606              1.942              3.290
 Vibration     9          0.608              1.935              3.154
 Vibration    10          0.615              1.912              2.784
 Vibration    11          0.618              1.904              2.688
 Vibration    12          0.623              1.887              2.510
 Vibration    13          0.631              1.862              2.287
 Vibration    14          0.642              1.827              2.052
 Vibration    15          0.653              1.791              1.859
 Vibration    16          0.655              1.785              1.832
 Vibration    17          0.670              1.739              1.636
 Vibration    18          0.685              1.697              1.489
 Vibration    19          0.707              1.632              1.301
 Vibration    20          0.734              1.557              1.126
 Vibration    21          0.759              1.489              0.995
 Vibration    22          0.775              1.445              0.922
 Vibration    23          0.798              1.388              0.834
 Vibration    24          0.814              1.348              0.779
 Vibration    25          0.832              1.304              0.722
 Vibration    26          0.883              1.188              0.592
 Vibration    27          0.903              1.144              0.548
 Vibration    28          0.923              1.104              0.511
 Vibration    29          0.979              0.992              0.418

 Optimization completed.
    -- Stationary point found.
 Normal termination of Gaussian 16 at Mon Dec 14 14:40:27 2020.

 ----------------------------------------------------------------------
 # B3LYP/6-311++G(d,p) empiricaldispersion=gd3bj scf=xqc pop=npa geom=c
 heck
 ----------------------------------------------------------------------

 ----------------------------------------
 CID_102810591_JID_10605_Energie_neutraal
 ----------------------------------------
 Structure from the checkpoint file:  "JID_10605.chk"
 Charge =  0 Multiplicity = 1

 SCF Done:  E(RB3LYP) =  -859.698921761     A.U. after   16 cycles
 Normal termination of Gaussian 16 at Mon Dec 14 14:47:13 2020.

 ----------------------------------------------------------------------
 # B3LYP/6-311++G(d,p) empiricaldispersion=gd3bj scf=xqc pop=npa geom=c
 heck
 ----------------------------------------------------------------------

 --------------------------------------
 CID_102810591_JID_10605_Energie_kation
 --------------------------------------
 Structure from the checkpoint file:  "JID_10605.chk"
 Charge =  1 Multiplicity = 2

 SCF Done:  E(UB3LYP) =  -859.389022696     A.U. after   33 cycles
 SCF Done:  E(UB3LYP) =  -859.389022696     a.u. after    1 cycles
 Normal termination of Gaussian 16 at Mon Dec 14 15:06:56 2020.
 Gaussian 16:  ES64L-G16RevA.03 25-Dec-2016

 ----------------------------------------------------------------------
 # B3LYP/6-311++G(d,p) empiricaldispersion=gd3bj scf=xqc pop=npa geom=c
 heck
 ----------------------------------------------------------------------

 -------------------------------------
 CID_102810591_JID_10605_Energie_anion
 -------------------------------------
 Structure from the checkpoint file:  "JID_10605.chk"
 Charge = -1 Multiplicity = 2

                         Standard orientation:
 ---------------------------------------------------------------------
 Center     Atomic      Atomic             Coordinates (Angstroms)
 Number     Number       Type             X           Y           Z
 ---------------------------------------------------------------------
      1          6           0        4.148814    2.968278    0.297668
      2          6           0        2.775149    2.298495    0.357407
      3          6           0        2.795784    0.842489   -0.000532
      4          7           0        3.924685    0.218437   -0.315655
      5          7           0        3.567525   -1.072341   -0.577515
      6          6           0        2.247220   -1.281558   -0.441651
      7          6           0        1.683454   -0.061851   -0.064420
      8          6           0        0.291737    0.261444    0.206874
      9          8           0       -0.079101    1.359438    0.582329
     10          6           0       -0.771902   -0.869967   -0.055554
     11          6           0       -0.483606   -2.037836    0.782489
     12          7           0       -0.233121   -2.954680    1.449893
     13          6           0       -2.193897   -0.376571    0.126572
     14          6           0       -2.712601   -0.151815    1.403613
     15          6           0       -4.013526    0.323941    1.543726
     16          6           0       -4.794650    0.580452    0.416883
     17          6           0       -4.288096    0.367905   -0.869748
     18          6           0       -2.981876   -0.117650   -0.994843
     19          6           0       -5.117809    0.675235   -2.092439
     20          6           0        4.597634   -2.031037   -0.925187
     21          1           0        4.852665    2.488258    0.984369
     22          1           0        4.065156    4.025201    0.570472
     23          1           0        4.577647    2.903032   -0.707106
     24          1           0        2.336276    2.401115    1.357527
     25          1           0        2.064815    2.808482   -0.305181
     26          1           0        1.812624   -2.259977   -0.583781
     27          1           0       -0.631217   -1.182830   -1.098843
     28          1           0       -2.103482   -0.353991    2.279247
     29          1           0       -4.422116    0.493508    2.535705
     30          1           0       -5.810998    0.947741    0.536305
     31          1           0       -2.574019   -0.295051   -1.988126
     32          1           0       -6.182177    0.495475   -1.908686
     33          1           0       -5.011173    1.727287   -2.387617
     34          1           0       -4.812911    0.063925   -2.948067
     35          1           0        5.125141   -1.696479   -1.822141
     36          1           0        5.312195   -2.121650   -0.102881
     37          1           0        4.129788   -2.999191   -1.112034
 ---------------------------------------------------------------------

 SCF Done:  E(UB3LYP) =  -859.705988233     A.U. after   33 cycles
 SCF Done:  E(UB3LYP) =  -859.705988233     a.u. after    1 cycles

 The electronic state is 2-A.
 Alpha  occ. eigenvalues --  -18.93781 -14.26162 -14.20320 -14.18893 -10.11132
 Alpha  occ. eigenvalues --  -10.09554 -10.09124 -10.08953 -10.08728 -10.08383
 Alpha  occ. eigenvalues --  -10.08357 -10.07628 -10.07517 -10.07271 -10.07131
 Alpha  occ. eigenvalues --  -10.07074 -10.06936 -10.05484 -10.05307 -10.03514
 Alpha  occ. eigenvalues --   -0.92552  -0.88355  -0.78952  -0.76379  -0.73519
 Alpha  occ. eigenvalues --   -0.69729  -0.67261  -0.66375  -0.65496  -0.61994
 Alpha  occ. eigenvalues --   -0.59488  -0.58769  -0.52679  -0.50665  -0.49827
 Alpha  occ. eigenvalues --   -0.48500  -0.43903  -0.42325  -0.41405  -0.39703
 Alpha  occ. eigenvalues --   -0.38603  -0.36942  -0.36353  -0.35053  -0.33779
 Alpha  occ. eigenvalues --   -0.33614  -0.33466  -0.32371  -0.31840  -0.31406
 Alpha  occ. eigenvalues --   -0.30917  -0.30261  -0.29705  -0.28345  -0.27658
 Alpha  occ. eigenvalues --   -0.25926  -0.25349  -0.25186  -0.24785  -0.24579
 Alpha  occ. eigenvalues --   -0.24080  -0.23777  -0.23253  -0.21411  -0.21040
 Alpha  occ. eigenvalues --   -0.17467  -0.15409  -0.14338  -0.13472  -0.11997
 Alpha  occ. eigenvalues --   -0.10605   0.04275
 Alpha virt. eigenvalues --    0.06297   0.07018   0.07906   0.08127   0.08276
 Alpha virt. eigenvalues --    0.08339   0.08766   0.10035   0.10230   0.10567
 Alpha virt. eigenvalues --    0.10725   0.11462   0.11659   0.12262   0.12739

  Beta  occ. eigenvalues --  -18.93196 -14.26018 -14.20398 -14.18863 -10.11135
  Beta  occ. eigenvalues --  -10.09588 -10.09090 -10.08726 -10.08535 -10.08371
  Beta  occ. eigenvalues --  -10.08350 -10.07612 -10.07513 -10.07203 -10.07052
  Beta  occ. eigenvalues --  -10.06940 -10.06849 -10.05489 -10.05306 -10.03564
  Beta  occ. eigenvalues --   -0.92386  -0.87302  -0.78887  -0.76352  -0.73420
  Beta  occ. eigenvalues --   -0.69622  -0.67129  -0.66190  -0.65470  -0.61846
  Beta  occ. eigenvalues --   -0.59441  -0.58690  -0.52486  -0.50579  -0.49564
  Beta  occ. eigenvalues --   -0.48387  -0.43528  -0.42087  -0.41342  -0.39467
  Beta  occ. eigenvalues --   -0.38383  -0.36648  -0.36225  -0.34914  -0.33669
  Beta  occ. eigenvalues --   -0.33570  -0.33419  -0.32268  -0.31689  -0.31376
  Beta  occ. eigenvalues --   -0.30819  -0.30194  -0.29637  -0.28017  -0.27211
  Beta  occ. eigenvalues --   -0.25857  -0.25290  -0.24970  -0.24700  -0.24433
  Beta  occ. eigenvalues --   -0.23884  -0.23699  -0.21588  -0.21184  -0.20408
  Beta  occ. eigenvalues --   -0.17504  -0.15293  -0.14278  -0.12807  -0.10912
  Beta  occ. eigenvalues --   -0.10144
  Beta virt. eigenvalues --    0.06242   0.06998   0.07864   0.08147   0.08249
  Beta virt. eigenvalues --    0.08341   0.08959   0.09848   0.10172   0.10479
  Beta virt. eigenvalues --    0.10735   0.11298   0.11490   0.11607   0.12290

 Mulliken charges and spin densities:
               1          2
     1  C   -0.713957  -0.017376
     2  C   -0.281620  -0.039288
     3  C    0.035222  -0.009937
     4  N   -0.274358  -0.006769
     5  N    0.296900  -0.001706
     6  C   -0.969536   0.308228
     7  C    1.016676  -0.253699
     8  C   -0.899908   0.165449
     9  O   -0.295603   0.204818
    10  C    0.987307  -0.468693
    11  C   -0.277559  -0.252878
    12  N   -0.357704   0.028445
    13  C    0.688738   0.530132
    14  C   -0.248982   0.314964
    15  C   -0.037203  -0.125440
    16  C   -1.049032   0.082844
    17  C    0.514242  -0.101976
    18  C   -0.351241  -0.095745
    19  C   -0.128710  -0.286032
    20  C   -0.183341  -0.125192
    21  H    0.148497   0.000532
    22  H    0.116090   0.000067
    23  H    0.144635   0.004964
    24  H    0.176954   0.000913
    25  H    0.174857  -0.000016
    26  H    0.080185   0.104414
    27  H   -0.238800   0.509678
    28  H    0.187480   0.007585
    29  H    0.140179  -0.000149
    30  H    0.072568   0.042518
    31  H    0.010373   0.123017
    32  H    0.079511   0.045822
    33  H    0.153347   0.011824
    34  H    0.010583   0.135314
    35  H    0.071159   0.086223
    36  H    0.144504   0.008773
    37  H    0.057545   0.068371
 Sum of Mulliken charges =  -1.00000   1.00000

 Dipole moment (field-independent basis, Debye):
    X=             -1.5283    Y=              1.5084    Z=             -0.8507  Tot=              2.3096
 Quadrupole moment (field-independent basis, Debye-Ang):
   XX=           -160.4514   YY=           -150.2789   ZZ=           -136.2236
   XY=             -8.4716   XZ=              0.5088   YZ=              3.2888

 Summary of Natural Population Analysis:

                                       Natural Population
                Natural  -----------------------------------------------
    Atom  No    Charge         Core      Valence    Rydberg      Total
 -----------------------------------------------------------------------
      C    1   -0.28374      0.99968     2.27981    0.00426     3.28374
      C    2   -0.20595      0.99960     2.19974    0.00661     3.20595
      C    3    0.11653      0.99957     1.87009    0.01381     2.88347
      N    4   -0.19301      0.99969     2.68227    0.01105     3.69301
      N    5   -0.09416      0.99966     2.58339    0.01112     3.59416
      C    6    0.06822      0.99954     1.92168    0.01057     2.93178
      C    7   -0.13124      0.99945     2.12149    0.01030     3.13124
      C    8    0.32601      0.99960     1.65169    0.02271     2.67399
      O    9   -0.23594      0.99988     3.23107    0.00500     4.23594
      C   10   -0.20923      0.99946     2.19837    0.01140     3.20923
      C   11    0.17352      0.99964     1.80713    0.01970     2.82648
      N   12   -0.19830      0.99978     2.68770    0.01081     3.69830
      C   13    0.01185      0.99950     1.97675    0.01190     2.98815
      C   14   -0.09358      0.99950     2.08397    0.01011     3.09358
      C   15   -0.09363      0.99957     2.08593    0.00813     3.09363
      C   16   -0.10994      0.99952     2.10174    0.00868     3.10994
      C   17   -0.01960      0.99952     2.01067    0.00941     3.01960
      C   18   -0.09452      0.99946     2.08615    0.00891     3.09452
      C   19   -0.29074      0.99964     2.28632    0.00478     3.29074
      C   20   -0.17081      0.99965     2.16370    0.00745     3.17081
      H   21    0.09800      0.00000     0.40107    0.00094     0.40200
      H   22    0.09014      0.00000     0.40905    0.00081     0.40986
      H   23    0.09795      0.00000     0.40111    0.00094     0.40205
      H   24    0.10881      0.00000     0.38998    0.00122     0.39119
      H   25    0.10846      0.00000     0.39033    0.00121     0.39154
      H   26    0.10307      0.00000     0.39575    0.00118     0.39693
      H   27    0.13054      0.00000     0.36583    0.00364     0.36946
      H   28    0.10657      0.00000     0.39245    0.00098     0.39343
      H   29    0.09623      0.00000     0.40298    0.00079     0.40377
      H   30    0.09438      0.00000     0.40470    0.00092     0.40562
      H   31    0.09892      0.00000     0.39961    0.00147     0.40108
      H   32    0.09890      0.00000     0.40018    0.00091     0.40110
      H   33    0.10238      0.00000     0.39649    0.00113     0.39762
      H   34    0.10247      0.00000     0.39663    0.00090     0.39753
      H   35    0.09762      0.00000     0.40118    0.00120     0.40238
      H   36    0.09530      0.00000     0.40381    0.00088     0.40470
      H   37    0.09854      0.00000     0.40087    0.00059     0.40146
 =======================================================================
   * Total *    0.00000     19.99191    50.78168    0.22641    71.00000

 Normal termination of Gaussian 16 at Mon Dec 14 15:26:08 2020.
