 Gaussian 16, Revision A.03,

 -----------------------------------------------------------
 # opt freq B3LYP/6-31G(d) empiricaldispersion=gd3bj scf=xqc
 -----------------------------------------------------------

 -------------------------------
 CID_104170754_JID_2904_neutraal
 -------------------------------
 Symbolic Z-matrix:
 Charge =  0 Multiplicity = 1

 SCF Done:  E(RB3LYP) =  -544.782826873     A.U. after   13 cycles
 SCF Done:  E(RB3LYP) =  -544.784449058     A.U. after   11 cycles
 SCF Done:  E(RB3LYP) =  -544.783344983     A.U. after   11 cycles
 SCF Done:  E(RB3LYP) =  -544.784122142     A.U. after   11 cycles
 SCF Done:  E(RB3LYP) =  -544.785757180     A.U. after    8 cycles
 SCF Done:  E(RB3LYP) =  -544.786110576     A.U. after   11 cycles
 SCF Done:  E(RB3LYP) =  -544.786416438     A.U. after   10 cycles
 SCF Done:  E(RB3LYP) =  -544.786329770     A.U. after   10 cycles
 SCF Done:  E(RB3LYP) =  -544.786445173     A.U. after   10 cycles
 SCF Done:  E(RB3LYP) =  -544.786485857     A.U. after    9 cycles
 SCF Done:  E(RB3LYP) =  -544.786483749     A.U. after    8 cycles
 SCF Done:  E(RB3LYP) =  -544.786487316     A.U. after    8 cycles
 SCF Done:  E(RB3LYP) =  -544.786488682     A.U. after    7 cycles
 SCF Done:  E(RB3LYP) =  -544.786489040     A.U. after    7 cycles
 SCF Done:  E(RB3LYP) =  -544.786489133     A.U. after    7 cycles
 Optimization completed.
    -- Stationary point found.
 Normal termination of Gaussian 16 at Wed Dec  9 18:04:47 2020.

 --------------------------------------------------------------------
 #N Geom=AllCheck Guess=TCheck SCRF=Check GenChk RB3LYP/6-31G(d) Freq
 --------------------------------------------------------------------

 Structure from the checkpoint file:  "JID_2904.chk"
 -------------------------------
 CID_104170754_JID_2904_neutraal
 -------------------------------
 Charge =  0 Multiplicity = 1

 SCF Done:  E(RB3LYP) =  -544.786489133     A.U. after    1 cycles

  Exact polarizability: 124.910   0.293 107.861   1.005   0.287 103.680
 Approx polarizability: 154.068  -1.828 152.713   2.081   0.295 151.914

                      1                      2                      3
                      A                      A                      A
 Frequencies --     51.5923                91.7381               105.0569
 Red. masses --      3.1497                 2.5844                 3.0570
 Frc consts  --      0.0049                 0.0128                 0.0199
 IR Inten    --      0.4442                 0.3847                 0.5610

                      4                      5                      6
                      A                      A                      A
 Frequencies --    113.5170               154.9684               185.9973
 Red. masses --      2.0146                 4.4164                 1.7311
 Frc consts  --      0.0153                 0.0625                 0.0353
 IR Inten    --      1.0040                 4.0783                 1.8141

                      7                      8                      9
                      A                      A                      A
 Frequencies --    203.6365               222.6438               240.4065
 Red. masses --      2.8406                 2.2181                 1.2967
 Frc consts  --      0.0694                 0.0648                 0.0442
 IR Inten    --      0.9650                 1.5397                 0.7221

                     10                     11                     12
                      A                      A                      A
 Frequencies --    254.2263               263.9254               275.1112
 Red. masses --      1.2702                 1.0600                 1.1139
 Frc consts  --      0.0484                 0.0435                 0.0497
 IR Inten    --     44.0808                20.1075                45.6185

                     13                     14                     15
                      A                      A                      A
 Frequencies --    278.1259               293.9323               311.7923
 Red. masses --      1.9143                 2.0097                 2.0675
 Frc consts  --      0.0872                 0.1023                 0.1184
 IR Inten    --      1.5655                 2.1736                 6.0417

                     16                     17                     18
                      A                      A                      A
 Frequencies --    330.7365               347.6081               360.6692
 Red. masses --      1.3601                 2.4197                 2.3688
 Frc consts  --      0.0877                 0.1723                 0.1816
 IR Inten    --      0.9687                 0.5525                 0.6301

                     19                     20                     21
                      A                      A                      A
 Frequencies --    392.6125               416.1429               426.6950
 Red. masses --      2.3671                 2.4907                 1.9510
 Frc consts  --      0.2150                 0.2541                 0.2093
 IR Inten    --      1.9194                 7.0055                 0.7773

                     22                     23                     24
                      A                      A                      A
 Frequencies --    450.0201               493.4137               561.1008
 Red. masses --      2.5307                 2.7033                 3.6142
 Frc consts  --      0.3020                 0.3878                 0.6704
 IR Inten    --      6.2638                 1.0983                 3.5191

                     25                     26                     27
                      A                      A                      A
 Frequencies --    603.1715               712.3090               838.8348
 Red. masses --      2.6041                 2.5653                 2.5856
 Frc consts  --      0.5582                 0.7669                 1.0719
 IR Inten    --      6.1242                 5.5730                 6.0895

                     28                     29                     30
                      A                      A                      A
 Frequencies --    860.2365               888.5668               916.3911
 Red. masses --      2.4167                 1.7246                 2.1146
 Frc consts  --      1.0537                 0.8023                 1.0463
 IR Inten    --     10.2927                 0.9683                10.2228

                     31                     32                     33
                      A                      A                      A
 Frequencies --    937.1025               951.3472               978.4132
 Red. masses --      1.6026                 1.3582                 1.6153
 Frc consts  --      0.8292                 0.7243                 0.9110
 IR Inten    --      1.1659                 1.4531                 1.6934

                     34                     35                     36
                      A                      A                      A
 Frequencies --    984.1560              1020.0272              1035.8273
 Red. masses --      1.6621                 1.5153                 2.3396
 Frc consts  --      0.9485                 0.9289                 1.4790
 IR Inten    --      2.9051                 8.1440                11.0005

                     37                     38                     39
                      A                      A                      A
 Frequencies --   1065.6174              1091.6054              1093.7989
 Red. masses --      2.1967                 1.9913                 2.9502
 Frc consts  --      1.4697                 1.3980                 2.0796
 IR Inten    --      7.7186                37.2764                28.1357

                     40                     41                     42
                      A                      A                      A
 Frequencies --   1121.0998              1129.1126              1167.9171
 Red. masses --      1.8678                 2.7628                 2.3228
 Frc consts  --      1.3831                 2.0752                 1.8667
 IR Inten    --      7.8210                31.5782                88.9721

                     43                     44                     45
                      A                      A                      A
 Frequencies --   1174.6031              1192.3553              1207.7088
 Red. masses --      2.4362                 1.2959                 1.8917
 Frc consts  --      1.9804                 1.0855                 1.6257
 IR Inten    --     39.8090                 3.1553                 2.7201

                     46                     47                     48
                      A                      A                      A
 Frequencies --   1225.9983              1230.6291              1241.3943
 Red. masses --      1.7068                 1.9085                 1.6287
 Frc consts  --      1.5115                 1.7029                 1.4788
 IR Inten    --     16.0244                28.5956                12.9421

                     49                     50                     51
                      A                      A                      A
 Frequencies --   1272.6758              1311.9766              1349.8348
 Red. masses --      1.2565                 1.3470                 1.4132
 Frc consts  --      1.1991                 1.3661                 1.5171
 IR Inten    --     32.0977                 8.0257                 3.2972

                     52                     53                     54
                      A                      A                      A
 Frequencies --   1358.0126              1370.1554              1396.7101
 Red. masses --      1.3117                 1.4256                 1.2925
 Frc consts  --      1.4252                 1.5768                 1.4856
 IR Inten    --      4.9019                 1.2768                 6.4220

                     55                     56                     57
                      A                      A                      A
 Frequencies --   1405.6139              1423.2738              1426.6828
 Red. masses --      1.2106                 1.3368                 1.2549
 Frc consts  --      1.4092                 1.5955                 1.5049
 IR Inten    --      0.6764                 4.0257                 3.7267

                     58                     59                     60
                      A                      A                      A
 Frequencies --   1432.5130              1439.9809              1450.9163
 Red. masses --      1.2708                 1.2254                 1.2326
 Frc consts  --      1.5364                 1.4971                 1.5288
 IR Inten    --     15.4493                 3.4046                 7.1345

                     61                     62                     63
                      A                      A                      A
 Frequencies --   1483.7269              1500.7779              1510.3002
 Red. masses --      1.3417                 1.1297                 1.0800
 Frc consts  --      1.7403                 1.4991                 1.4515
 IR Inten    --      1.5336                 0.7267                 2.3511

                     64                     65                     66
                      A                      A                      A
 Frequencies --   1520.8941              1523.6955              1526.8296
 Red. masses --      1.0619                 1.0477                 1.0667
 Frc consts  --      1.4473                 1.4331                 1.4651
 IR Inten    --      1.1096                 1.3257                 0.8343

                     67                     68                     69
                      A                      A                      A
 Frequencies --   1529.2336              1531.9133              1534.0729
 Red. masses --      1.0491                 1.0541                 1.0586
 Frc consts  --      1.4454                 1.4575                 1.4679
 IR Inten    --      2.2489                 4.9552                 1.5860

                     70                     71                     72
                      A                      A                      A
 Frequencies --   1539.2719              1543.5858              1548.7884
 Red. masses --      1.0512                 1.0533                 1.0514
 Frc consts  --      1.4674                 1.4786                 1.4859
 IR Inten    --      4.1867                12.6321                 4.5759

                     73                     74                     75
                      A                      A                      A
 Frequencies --   1553.6576              1561.7136              2993.4518
 Red. masses --      1.0652                 1.0598                 1.0632
 Frc consts  --      1.5150                 1.5229                 5.6129
 IR Inten    --      9.4185                 4.7708                49.6814

                     76                     77                     78
                      A                      A                      A
 Frequencies --   3000.3118              3004.9875              3025.0915
 Red. masses --      1.0812                 1.0369                 1.0634
 Frc consts  --      5.7346                 5.5167                 5.7334
 IR Inten    --     25.8734                38.0456                37.6762

                     79                     80                     81
                      A                      A                      A
 Frequencies --   3031.5161              3047.2640              3049.5870
 Red. masses --      1.1002                 1.0393                 1.0797
 Frc consts  --      5.9574                 5.6858                 5.9159
 IR Inten    --     53.0880                22.2978                27.6185

                     82                     83                     84
                      A                      A                      A
 Frequencies --   3050.8547              3056.1677              3057.7009
 Red. masses --      1.0415                 1.0412                 1.0540
 Frc consts  --      5.7115                 5.7297                 5.8063
 IR Inten    --     53.1597                45.6688                46.0430

                     85                     86                     87
                      A                      A                      A
 Frequencies --   3074.0415              3109.9055              3112.1645
 Red. masses --      1.0978                 1.1008                 1.1009
 Frc consts  --      6.1119                 6.2726                 6.2825
 IR Inten    --     20.9159                51.3855                10.9063

                     88                     89                     90
                      A                      A                      A
 Frequencies --   3117.7457              3118.8795              3123.0361
 Red. masses --      1.0994                 1.0962                 1.1016
 Frc consts  --      6.2962                 6.2823                 6.3306
 IR Inten    --     16.0287                40.3735                34.1314

                     91                     92                     93
                      A                      A                      A
 Frequencies --   3126.8665              3129.6385              3144.0641
 Red. masses --      1.0977                 1.1006                 1.0992
 Frc consts  --      6.3236                 6.3512                 6.4019
 IR Inten    --     46.3726                38.8976                25.2268

                     94                     95                     96
                      A                      A                      A
 Frequencies --   3152.2238              3184.7837              3753.5465
 Red. masses --      1.1031                 1.0863                 1.0665
 Frc consts  --      6.4583                 6.4920                 8.8534
 IR Inten    --     17.0725                11.7113                17.6635

 - Thermochemistry -
 -------------------
 Temperature   298.150 Kelvin.  Pressure   1.00000 Atm.
 Atom     1 has atomic number  6 and mass  12.00000

 Molecular mass:   174.16198 amu.
 Principal axes and moments of inertia in atomic units:
                           1         2         3
     Eigenvalues --  1400.600243066.390473230.23547
           X            0.99986   0.01467   0.00768
           Y           -0.01501   0.99886   0.04539
           Z           -0.00700  -0.04550   0.99894
 This molecule is an asymmetric top.
 Rotational symmetry number  1.
 Warning -- assumption of classical behavior for rotation
           may cause significant error
 Rotational temperatures (Kelvin)      0.06184     0.02825     0.02681
 Rotational constants (GHZ):           1.28855     0.58856     0.55870
 Zero-point vibrational energy     825450.4 (Joules/Mol)
                                  197.28738 (Kcal/Mol)
 Warning -- explicit consideration of  25 degrees of freedom as
           vibrations may cause significant error
 Vibrational temperatures:     74.23   131.99   151.15   163.33   222.96
          (Kelvin)            267.61   292.99   320.33   345.89   365.77
                              379.73   395.82   400.16   422.90   448.60
                              475.86   500.13   518.92   564.88   598.74
                              613.92   647.48   709.91   807.30   867.83
                             1024.85  1206.90  1237.69  1278.45  1318.48
                             1348.28  1368.78  1407.72  1415.98  1467.59
                             1490.32  1533.19  1570.58  1573.73  1613.01
                             1624.54  1680.37  1689.99  1715.53  1737.62
                             1763.94  1770.60  1786.09  1831.10  1887.64
                             1942.11  1953.88  1971.35  2009.55  2022.36
                             2047.77  2052.68  2061.07  2071.81  2087.54
                             2134.75  2159.28  2172.99  2188.23  2192.26
                             2196.77  2200.23  2204.08  2207.19  2214.67
                             2220.88  2228.36  2235.37  2246.96  4306.91
                             4316.78  4323.51  4352.43  4361.68  4384.33
                             4387.68  4389.50  4397.14  4399.35  4422.86
                             4474.46  4477.71  4485.74  4487.37  4493.35
                             4498.86  4502.85  4523.61  4535.35  4582.19
                             5400.52

 Zero-point correction=                           0.314397 (Hartree/Particle)
 Thermal correction to Energy=                    0.329532
 Thermal correction to Enthalpy=                  0.330477
 Thermal correction to Gibbs Free Energy=         0.274158
 Sum of electronic and zero-point Energies=           -544.472092
 Sum of electronic and thermal Energies=              -544.456957
 Sum of electronic and thermal Enthalpies=            -544.456013
 Sum of electronic and thermal Free Energies=         -544.512331

                     E (Thermal)             CV                S
                      KCal/Mol        Cal/Mol-Kelvin    Cal/Mol-Kelvin
 Total                  206.785             57.502            118.532
 Electronic               0.000              0.000              0.000
 Translational            0.889              2.981             41.372
 Rotational               0.889              2.981             31.007
 Vibrational            205.007             51.540             46.154
 Vibration     1          0.596              1.977              4.755
 Vibration     2          0.602              1.955              3.623
 Vibration     3          0.605              1.945              3.358
 Vibration     4          0.607              1.938              3.208
 Vibration     5          0.620              1.897              2.610
 Vibration     6          0.632              1.859              2.267
 Vibration     7          0.639              1.835              2.100
 Vibration     8          0.648              1.807              1.937
 Vibration     9          0.657              1.779              1.800
 Vibration    10          0.665              1.756              1.701
 Vibration    11          0.670              1.739              1.636
 Vibration    12          0.677              1.719              1.564
 Vibration    13          0.679              1.714              1.545
 Vibration    14          0.689              1.685              1.451
 Vibration    15          0.700              1.651              1.353
 Vibration    16          0.713              1.614              1.256
 Vibration    17          0.725              1.580              1.177
 Vibration    18          0.735              1.553              1.119
 Vibration    19          0.760              1.486              0.990
 Vibration    20          0.779              1.435              0.905
 Vibration    21          0.788              1.412              0.870
 Vibration    22          0.809              1.361              0.796
 Vibration    23          0.849              1.265              0.675
 Vibration    24          0.917              1.115              0.522
 Vibration    25          0.962              1.025              0.444

                           ! Non-Optimized Parameters !
 Normal termination of Gaussian 16 at Wed Dec  9 18:15:19 2020.

 ----------------------------------------------------------------------
 # B3LYP/6-311++G(d,p) empiricaldispersion=gd3bj scf=xqc pop=npa geom=c
 heck
 ----------------------------------------------------------------------

 ---------------------------------------
 CID_104170754_JID_2904_Energie_neutraal
 ---------------------------------------
 Structure from the checkpoint file:  "JID_2904.chk"
 Charge =  0 Multiplicity = 1

 SCF Done:  E(RB3LYP) =  -544.954724299     A.U. after   13 cycles
 Normal termination of Gaussian 16 at Wed Dec  9 18:20:11 2020.

 ----------------------------------------------------------------------
 # B3LYP/6-311++G(d,p) empiricaldispersion=gd3bj scf=xqc pop=npa geom=c
 heck
 ----------------------------------------------------------------------

 -------------------------------------
 CID_104170754_JID_2904_Energie_kation
 -------------------------------------
 Structure from the checkpoint file:  "JID_2904.chk"
 Charge =  1 Multiplicity = 2

 SCF Done:  E(UB3LYP) =  -544.629146505     A.U. after   24 cycles
 Normal termination of Gaussian 16 at Wed Dec  9 18:32:20 2020.
 Gaussian 16:  ES64L-G16RevA.03 25-Dec-2016

 ----------------------------------------------------------------------
 # B3LYP/6-311++G(d,p) empiricaldispersion=gd3bj scf=xqc pop=npa geom=c
 heck
 ----------------------------------------------------------------------

 ------------------------------------
 CID_104170754_JID_2904_Energie_anion
 ------------------------------------
 Structure from the checkpoint file:  "JID_2904.chk"
 Charge = -1 Multiplicity = 2

                         Standard orientation:
 ---------------------------------------------------------------------
 Center     Atomic      Atomic             Coordinates (Angstroms)
 Number     Number       Type             X           Y           Z
 ---------------------------------------------------------------------
      1          6           0       -3.114896   -0.761852   -0.348928
      2          6           0       -1.648894   -1.058643    0.006089
      3          6           0       -0.951610   -1.655324   -1.227583
      4          6           0       -0.926885    0.155037    0.691297
      5          6           0       -1.461281    0.265089    2.138528
      6          6           0        0.603411   -0.087580    0.822141
      7          6           0        1.524669    0.168702   -0.395924
      8          6           0        2.147142    1.566404   -0.392548
      9          8           0        2.519332   -0.861269   -0.513435
     10          6           0        3.468704   -0.930832    0.529407
     11          6           0       -1.254374    1.500348    0.027796
     12          8           0       -0.971792    1.472839   -1.371015
     13          1           0       -3.172758   -0.047530   -1.177065
     14          1           0       -3.685660   -0.357994    0.493990
     15          1           0       -3.615306   -1.682130   -0.670341
     16          1           0       -1.650483   -1.848779    0.772694
     17          1           0       -0.926844   -0.938467   -2.052314
     18          1           0        0.071625   -1.977598   -1.016515
     19          1           0       -1.510071   -2.537312   -1.564402
     20          1           0       -1.150632   -0.606322    2.725064
     21          1           0       -1.066952    1.158368    2.637848
     22          1           0       -2.553847    0.319241    2.171861
     23          1           0        0.965718    0.513216    1.667724
     24          1           0        0.733238   -1.135286    1.119472
     25          1           0        0.957034    0.067029   -1.317089
     26          1           0        2.656669    1.794582    0.550688
     27          1           0        2.870825    1.656193   -1.209623
     28          1           0        1.366980    2.316587   -0.546462
     29          1           0        4.105488   -0.035515    0.580003
     30          1           0        3.004736   -1.080513    1.515924
     31          1           0        4.103759   -1.794374    0.313067
     32          1           0       -2.316547    1.731924    0.192515
     33          1           0       -0.668617    2.288880    0.526739
     34          1           0       -1.214594    2.335136   -1.739812
 ---------------------------------------------------------------------

 SCF Done:  E(UB3LYP) =  -544.941221024     A.U. after   29 cycles

 The electronic state is 2-A.
 Alpha  occ. eigenvalues --  -19.01478 -19.01199 -10.10712 -10.10638 -10.10334
 Alpha  occ. eigenvalues --  -10.08125 -10.07035 -10.05824 -10.05696 -10.05177
 Alpha  occ. eigenvalues --  -10.04858 -10.04609  -0.92483  -0.91324  -0.72902
 Alpha  occ. eigenvalues --   -0.66886  -0.64786  -0.58770  -0.58422  -0.56953
 Alpha  occ. eigenvalues --   -0.56643  -0.50416  -0.46790  -0.42789  -0.40802
 Alpha  occ. eigenvalues --   -0.38716  -0.37201  -0.37048  -0.34702  -0.34372
 Alpha  occ. eigenvalues --   -0.32578  -0.31614  -0.30675  -0.30195  -0.29581
 Alpha  occ. eigenvalues --   -0.28355  -0.27741  -0.26896  -0.26451  -0.26154
 Alpha  occ. eigenvalues --   -0.25106  -0.24830  -0.23595  -0.21782  -0.20764
 Alpha  occ. eigenvalues --   -0.19639  -0.19322  -0.16700  -0.15199   0.04537
 Alpha virt. eigenvalues --    0.06602   0.07178   0.07903   0.09024   0.09105
 Alpha virt. eigenvalues --    0.09890   0.10099   0.10726   0.11387   0.11694
 Alpha virt. eigenvalues --    0.12321   0.12765   0.13109   0.13902   0.13946

  Beta  occ. eigenvalues --  -19.01476 -19.01151 -10.10685 -10.10635 -10.10297
  Beta  occ. eigenvalues --  -10.08125 -10.07026 -10.05812 -10.05673 -10.05156
  Beta  occ. eigenvalues --  -10.04831 -10.04604  -0.92475  -0.91224  -0.72876
  Beta  occ. eigenvalues --   -0.66866  -0.64755  -0.58731  -0.58376  -0.56864
  Beta  occ. eigenvalues --   -0.56602  -0.50368  -0.46747  -0.42743  -0.40663
  Beta  occ. eigenvalues --   -0.38694  -0.37176  -0.37019  -0.34674  -0.34343
  Beta  occ. eigenvalues --   -0.32544  -0.31585  -0.30652  -0.30167  -0.29560
  Beta  occ. eigenvalues --   -0.28323  -0.27720  -0.26872  -0.26409  -0.26120
  Beta  occ. eigenvalues --   -0.25081  -0.24804  -0.23570  -0.21747  -0.20742
  Beta  occ. eigenvalues --   -0.19610  -0.19294  -0.16653  -0.15187
  Beta virt. eigenvalues --    0.06728   0.07457   0.08206   0.08270   0.09474
  Beta virt. eigenvalues --    0.09646   0.10163   0.10511   0.11016   0.11807
  Beta virt. eigenvalues --    0.12038   0.12697   0.13141   0.13285   0.14163

 Mulliken charges and spin densities:
               1          2
     1  C    0.483260  -1.106957
     2  C   -0.944644   1.090798
     3  C   -0.505234  -0.158510
     4  C   -0.589497   1.512665
     5  C    1.421309  -1.811824
     6  C   -0.628160  -0.160477
     7  C   -1.741673   1.419107
     8  C    0.832795  -1.440621
     9  O   -0.075301   0.018079
    10  C    0.468409  -0.726200
    11  C    2.082968  -2.733141
    12  O   -0.430496   0.157262
    13  H   -0.056789   0.226783
    14  H   -0.069419   0.179976
    15  H    0.000487   0.132125
    16  H   -0.096603   0.245900
    17  H    0.142270   0.009597
    18  H    0.073800   0.105635
    19  H    0.028704   0.105913
    20  H   -0.131091   0.282587
    21  H   -0.104436   0.249199
    22  H    0.038455   0.092131
    23  H   -0.053155   0.229244
    24  H    0.346823  -0.130220
    25  H    0.294133  -0.054262
    26  H   -0.081267   0.226819
    27  H   -0.106067   0.258419
    28  H   -0.154978   0.304215
    29  H   -0.120593   0.249825
    30  H   -0.304087   0.431447
    31  H   -0.041345   0.184893
    32  H   -0.465242   0.643069
    33  H   -0.298107   0.469844
    34  H   -0.215232   0.496682
 Sum of Mulliken charges =  -1.00000   1.00000

 Dipole moment (field-independent basis, Debye):
    X=              0.6355    Y=             -4.5133    Z=              0.2621  Tot=              4.5654
 Quadrupole moment (field-independent basis, Debye-Ang):
   XX=           -134.8596   YY=           -126.9682   ZZ=           -115.2401
   XY=              7.2489   XZ=             -3.1018   YZ=              4.2788

 Summary of Natural Population Analysis:

                                       Natural Population
                Natural  -----------------------------------------------
    Atom  No    Charge         Core      Valence    Rydberg      Total
 -----------------------------------------------------------------------
      C    1   -0.28887      0.99964     2.28277    0.00646     3.28887
      C    2   -0.10501      0.99957     2.09434    0.01110     3.10501
      C    3   -0.29009      0.99964     2.28526    0.00519     3.29009
      C    4   -0.04632      0.99954     2.03098    0.01580     3.04632
      C    5   -0.28124      0.99962     2.27445    0.00717     3.28124
      C    6   -0.20510      0.99957     2.19488    0.01066     3.20510
      C    7    0.05923      0.99954     1.92697    0.01426     2.94077
      C    8   -0.29814      0.99964     2.29294    0.00556     3.29814
      O    9   -0.30412      0.99989     3.29483    0.00941     4.30412
      C   10   -0.10213      0.99960     2.09277    0.00975     3.10213
      C   11   -0.01127      0.99950     1.99714    0.01463     3.01127
      O   12   -0.37798      0.99989     3.37031    0.00778     4.37798
      H   13    0.10433      0.00000     0.39449    0.00118     0.39567
      H   14    0.09763      0.00000     0.40144    0.00094     0.40237
      H   15    0.09592      0.00000     0.40333    0.00075     0.40408
      H   16    0.09031      0.00000     0.40796    0.00172     0.40969
      H   17    0.10685      0.00000     0.39189    0.00126     0.39315
      H   18    0.10359      0.00000     0.39505    0.00135     0.39641
      H   19    0.09298      0.00000     0.40620    0.00082     0.40702
      H   20    0.09921      0.00000     0.39970    0.00109     0.40079
      H   21    0.10080      0.00000     0.39813    0.00107     0.39920
      H   22    0.10042      0.00000     0.39857    0.00101     0.39958
      H   23    0.09814      0.00000     0.40006    0.00179     0.40186
      H   24    0.10477      0.00000     0.39393    0.00130     0.39523
      H   25    0.10396      0.00000     0.39337    0.00267     0.39604
      H   26    0.09397      0.00000     0.40481    0.00122     0.40603
      H   27    0.10016      0.00000     0.39894    0.00089     0.39984
      H   28    0.10991      0.00000     0.38874    0.00135     0.39009
      H   29    0.07877      0.00000     0.41999    0.00124     0.42123
      H   30    0.07891      0.00000     0.41980    0.00128     0.42109
      H   31    0.08695      0.00000     0.41215    0.00090     0.41305
      H   32    0.08446      0.00000     0.41322    0.00232     0.41554
      H   33    0.08197      0.00000     0.41566    0.00237     0.41803
      H   34    0.23703      0.00000     0.25326    0.00971     0.26297
 =======================================================================
   * Total *    0.00000     11.99564    36.84835    0.15601    49.00000

 Normal termination of Gaussian 16 at Wed Dec  9 18:46:17 2020.
