 Gaussian 16, Revision A.03,

 -----------------------------------------------------------
 # opt freq B3LYP/6-31G(d) empiricaldispersion=gd3bj scf=xqc
 -----------------------------------------------------------

 ----------------------------
 CID_322916_JID_7169_neutraal
 ----------------------------
 Symbolic Z-matrix:
 Charge =  0 Multiplicity = 1

 SCF Done:  E(RB3LYP) =  -797.323460011     A.U. after   15 cycles
 SCF Done:  E(RB3LYP) =  -797.330196625     A.U. after   13 cycles
 SCF Done:  E(RB3LYP) =  -797.329358662     A.U. after   13 cycles
 SCF Done:  E(RB3LYP) =  -797.331986322     A.U. after   11 cycles
 SCF Done:  E(RB3LYP) =  -797.332370101     A.U. after   11 cycles
 SCF Done:  E(RB3LYP) =  -797.332376606     A.U. after   11 cycles
 SCF Done:  E(RB3LYP) =  -797.332461488     A.U. after   11 cycles
 SCF Done:  E(RB3LYP) =  -797.332794697     A.U. after   13 cycles
 SCF Done:  E(RB3LYP) =  -797.293785997     A.U. after   14 cycles
 SCF Done:  E(RB3LYP) =  -797.331307009     A.U. after   14 cycles
 SCF Done:  E(RB3LYP) =  -797.341371523     A.U. after   11 cycles
 SCF Done:  E(RB3LYP) =  -797.341426034     A.U. after   11 cycles
 SCF Done:  E(RB3LYP) =  -797.341431451     A.U. after   10 cycles
 SCF Done:  E(RB3LYP) =  -797.341433410     A.U. after    9 cycles
 SCF Done:  E(RB3LYP) =  -797.341434513     A.U. after    8 cycles
 SCF Done:  E(RB3LYP) =  -797.341434614     A.U. after    8 cycles
 Optimization completed.
    -- Stationary point found.
 Normal termination of Gaussian 16 at Fri Dec 11 12:03:01 2020.

 --------------------------------------------------------------------
 #N Geom=AllCheck Guess=TCheck SCRF=Check GenChk RB3LYP/6-31G(d) Freq
 --------------------------------------------------------------------

 Structure from the checkpoint file:  "JID_7169.chk"
 ----------------------------
 CID_322916_JID_7169_neutraal
 ----------------------------
 Charge =  0 Multiplicity = 1

 SCF Done:  E(RB3LYP) =  -797.341434614     A.U. after    1 cycles

  Exact polarizability: 211.665   1.317 129.850   2.345  -0.395  75.870
 Approx polarizability: 294.435   1.565 237.900   6.082  -1.642 131.353

                      1                      2                      3
                      A                      A                      A
 Frequencies --     30.2635                43.9394                80.0741
 Red. masses --      4.7271                 6.5783                 5.7981
 Frc consts  --      0.0026                 0.0075                 0.0219
 IR Inten    --      0.0370                 2.7972                 3.0677

                      4                      5                      6
                      A                      A                      A
 Frequencies --     94.0456               133.1545               162.1838
 Red. masses --      6.9731                 8.6605                 5.5315
 Frc consts  --      0.0363                 0.0905                 0.0857
 IR Inten    --      0.1447                 0.2795                 0.6149

                      7                      8                      9
                      A                      A                      A
 Frequencies --    267.4550               269.7522               282.6416
 Red. masses --      5.9388                 7.1664                 6.2567
 Frc consts  --      0.2503                 0.3072                 0.2945
 IR Inten    --      0.9321                 6.0947                10.9323

                     10                     11                     12
                      A                      A                      A
 Frequencies --    343.4112               401.0089               420.7350
 Red. masses --      7.2349                10.6841                 4.1671
 Frc consts  --      0.5027                 1.0123                 0.4346
 IR Inten    --      0.0022                 8.3260                 0.0787

                     13                     14                     15
                      A                      A                      A
 Frequencies --    454.7626               469.9762               536.0024
 Red. masses --      9.4944                 4.6455                 3.6153
 Frc consts  --      1.1569                 0.6046                 0.6120
 IR Inten    --      7.9719                 0.2229                 0.2700

                     16                     17                     18
                      A                      A                      A
 Frequencies --    561.1293               567.4055               607.4006
 Red. masses --      8.5374                 1.1662                 6.0687
 Frc consts  --      1.5838                 0.2212                 1.3192
 IR Inten    --      5.8386                89.6479                20.3803

                     19                     20                     21
                      A                      A                      A
 Frequencies --    614.4064               648.6338               689.1027
 Red. masses --      3.4770                 6.8880                 6.7076
 Frc consts  --      0.7733                 1.7074                 1.8766
 IR Inten    --     10.3093                 4.5099                12.4744

                     22                     23                     24
                      A                      A                      A
 Frequencies --    697.5338               701.4728               740.9800
 Red. masses --      4.6339                 4.7228                 1.5162
 Frc consts  --      1.3284                 1.3692                 0.4905
 IR Inten    --      5.8857                 1.7668                40.6435

                     25                     26                     27
                      A                      A                      A
 Frequencies --    744.0983               765.8724               790.3299
 Red. masses --      6.2169                 1.9788                 2.3033
 Frc consts  --      2.0281                 0.6839                 0.8476
 IR Inten    --     35.7849                38.1701                10.0055

                     28                     29                     30
                      A                      A                      A
 Frequencies --    816.2583               852.7116               869.4380
 Red. masses --      1.2904                 5.6068                 1.3599
 Frc consts  --      0.5065                 2.4020                 0.6057
 IR Inten    --     13.2490                40.1872                 1.4566

                     31                     32                     33
                      A                      A                      A
 Frequencies --    871.6079               909.7995               919.4849
 Red. masses --      1.4409                 6.2068                 5.1398
 Frc consts  --      0.6450                 3.0270                 2.5603
 IR Inten    --      0.7529                 4.8364                 3.1853

                     34                     35                     36
                      A                      A                      A
 Frequencies --    961.9973               969.1336               994.9483
 Red. masses --      4.1309                 1.3373                 1.2815
 Frc consts  --      2.2524                 0.7400                 0.7474
 IR Inten    --     14.8991                 0.9561                 0.0391

                     37                     38                     39
                      A                      A                      A
 Frequencies --   1037.5024              1058.4368              1082.4390
 Red. masses --      1.5240                 2.3986                 2.2589
 Frc consts  --      0.9665                 1.5832                 1.5594
 IR Inten    --     25.0598                 1.9896                 7.6882

                     40                     41                     42
                      A                      A                      A
 Frequencies --   1119.0481              1147.0738              1165.9306
 Red. masses --      3.3921                 1.9168                 5.2807
 Frc consts  --      2.5027                 1.4860                 4.2295
 IR Inten    --     12.1157                 2.0245                62.8630

                     43                     44                     45
                      A                      A                      A
 Frequencies --   1192.3651              1199.5961              1247.8495
 Red. masses --      1.1780                 1.9253                 3.3833
 Frc consts  --      0.9868                 1.6324                 3.1040
 IR Inten    --      3.0690                26.2061                10.9288

                     46                     47                     48
                      A                      A                      A
 Frequencies --   1257.6904              1270.9909              1294.4832
 Red. masses --      2.1919                 2.0969                 2.3318
 Frc consts  --      2.0428                 1.9958                 2.3022
 IR Inten    --     27.3198                34.8185                26.4133

                     49                     50                     51
                      A                      A                      A
 Frequencies --   1312.5528              1383.4753              1415.2441
 Red. masses --      2.4118                 6.8540                 4.7706
 Frc consts  --      2.4481                 7.7293                 5.6297
 IR Inten    --      9.1624                 6.7471               415.4837

                     52                     53                     54
                      A                      A                      A
 Frequencies --   1434.0693              1459.0031              1542.5928
 Red. masses --      2.7571                 1.7862                 2.9813
 Frc consts  --      3.3408                 2.2402                 4.1798
 IR Inten    --      7.4753                12.9714                49.2777

                     55                     56                     57
                      A                      A                      A
 Frequencies --   1543.1914              1548.1290              1652.6708
 Red. masses --      3.4168                 3.8459                 6.5994
 Frc consts  --      4.7942                 5.4308                10.6200
 IR Inten    --    120.2371                38.0659                16.3524

                     58                     59                     60
                      A                      A                      A
 Frequencies --   1669.3279              1676.9476              1791.7784
 Red. masses --      6.9799                 6.2307                12.1372
 Frc consts  --     11.4599                10.3236                22.9581
 IR Inten    --     62.8353               107.9221               458.4855

                     61                     62                     63
                      A                      A                      A
 Frequencies --   1840.2514              3189.7513              3204.3501
 Red. masses --     10.0451                 1.0876                 1.0910
 Frc consts  --     20.0429                 6.5195                 6.6000
 IR Inten    --    466.1985                 4.8784                11.7137

                     64                     65                     66
                      A                      A                      A
 Frequencies --   3217.4083              3232.7768              3270.9053
 Red. masses --      1.0931                 1.0946                 1.0911
 Frc consts  --      6.6668                 6.7398                 6.8780
 IR Inten    --     12.3636                 6.6403                 4.5061

                     67                     68                     69
                      A                      A                      A
 Frequencies --   3286.7657              3306.4898              3624.1910
 Red. masses --      1.0988                 1.1047                 1.0774
 Frc consts  --      6.9936                 7.1157                 8.3375
 IR Inten    --      0.6016                 1.1193                59.4172

 - Thermochemistry -
 -------------------
 Temperature   298.150 Kelvin.  Pressure   1.00000 Atm.
 Atom     1 has atomic number  6 and mass  12.00000

 Molecular mass:   228.05349 amu.
 Principal axes and moments of inertia in atomic units:
                           1         2         3
     Eigenvalues --  1463.458955774.666426843.36765
           X            0.99999  -0.00352   0.00286
           Y            0.00353   0.99999  -0.00116
           Z           -0.00286   0.00117   1.00000
 This molecule is an asymmetric top.
 Rotational symmetry number  1.
 Warning -- assumption of classical behavior for rotation
           may cause significant error
 Rotational temperatures (Kelvin)      0.05918     0.01500     0.01266
 Rotational constants (GHZ):           1.23320     0.31253     0.26372
 Zero-point vibrational energy     484238.9 (Joules/Mol)
                                  115.73588 (Kcal/Mol)
 Warning -- explicit consideration of  19 degrees of freedom as
           vibrations may cause significant error
 Vibrational temperatures:     43.54    63.22   115.21   135.31   191.58
          (Kelvin)            233.35   384.81   388.11   406.66   494.09
                              576.96   605.34   654.30   676.19   771.19
                              807.34   816.37   873.91   883.99   933.24
                              991.47  1003.60  1009.26  1066.10  1070.59
                             1101.92  1137.11  1174.41  1226.86  1250.93
                             1254.05  1309.00  1322.93  1384.10  1394.37
                             1431.51  1492.73  1522.85  1557.39  1610.06
                             1650.38  1677.51  1715.55  1725.95  1795.38
                             1809.54  1828.67  1862.47  1888.47  1990.51
                             2036.22  2063.31  2099.18  2219.45  2220.31
                             2227.41  2377.82  2401.79  2412.75  2577.97
                             2647.71  4589.34  4610.35  4629.13  4651.24
                             4706.10  4728.92  4757.30  5214.40

 Zero-point correction=                           0.184437 (Hartree/Particle)
 Thermal correction to Energy=                    0.197136
 Thermal correction to Enthalpy=                  0.198080
 Thermal correction to Gibbs Free Energy=         0.143729
 Sum of electronic and zero-point Energies=           -797.156998
 Sum of electronic and thermal Energies=              -797.144299
 Sum of electronic and thermal Enthalpies=            -797.143355
 Sum of electronic and thermal Free Energies=         -797.197706

                     E (Thermal)             CV                S
                      KCal/Mol        Cal/Mol-Kelvin    Cal/Mol-Kelvin
 Total                  123.705             49.799            114.392
 Electronic               0.000              0.000              0.000
 Translational            0.889              2.981             42.175
 Rotational               0.889              2.981             32.425
 Vibrational            121.927             43.838             39.791
 Vibration     1          0.594              1.984              5.812
 Vibration     2          0.595              1.980              5.073
 Vibration     3          0.600              1.963              3.889
 Vibration     4          0.603              1.953              3.574
 Vibration     5          0.613              1.920              2.900
 Vibration     6          0.622              1.889              2.524
 Vibration     7          0.673              1.733              1.613
 Vibration     8          0.674              1.729              1.598
 Vibration     9          0.682              1.706              1.518
 Vibration    10          0.722              1.589              1.196
 Vibration    11          0.767              1.468              0.959
 Vibration    12          0.783              1.425              0.889
 Vibration    13          0.813              1.350              0.782
 Vibration    14          0.827              1.317              0.738
 Vibration    15          0.891              1.170              0.574
 Vibration    16          0.917              1.115              0.522
 Vibration    17          0.923              1.102              0.509
 Vibration    18          0.966              1.016              0.437
 Vibration    19          0.974              1.001              0.426

                           ! Non-Optimized Parameters !
 Normal termination of Gaussian 16 at Fri Dec 11 12:11:53 2020.

 ----------------------------------------------------------------------
 # B3LYP/6-311++G(d,p) empiricaldispersion=gd3bj scf=xqc pop=npa geom=c
 heck
 ----------------------------------------------------------------------

 ------------------------------------
 CID_322916_JID_7169_Energie_neutraal
 ------------------------------------
 Structure from the checkpoint file:  "JID_7169.chk"
 Charge =  0 Multiplicity = 1

 SCF Done:  E(RB3LYP) =  -797.559631129     A.U. after   15 cycles
 Normal termination of Gaussian 16 at Fri Dec 11 12:15:24 2020.

 ----------------------------------------------------------------------
 # B3LYP/6-311++G(d,p) empiricaldispersion=gd3bj scf=xqc pop=npa geom=c
 heck
 ----------------------------------------------------------------------

 ----------------------------------
 CID_322916_JID_7169_Energie_kation
 ----------------------------------
 Structure from the checkpoint file:  "JID_7169.chk"
 Charge =  1 Multiplicity = 2

 SCF Done:  E(UB3LYP) =  -797.255796418     A.U. after   23 cycles
 Normal termination of Gaussian 16 at Fri Dec 11 12:23:00 2020.
 Gaussian 16:  ES64L-G16RevA.03 25-Dec-2016

 ----------------------------------------------------------------------
 # B3LYP/6-311++G(d,p) empiricaldispersion=gd3bj scf=xqc pop=npa geom=c
 heck
 ----------------------------------------------------------------------

 ---------------------------------
 CID_322916_JID_7169_Energie_anion
 ---------------------------------
 Structure from the checkpoint file:  "JID_7169.chk"
 Charge = -1 Multiplicity = 2

                         Standard orientation:
 ---------------------------------------------------------------------
 Center     Atomic      Atomic             Coordinates (Angstroms)
 Number     Number       Type             X           Y           Z
 ---------------------------------------------------------------------
      1          6           0       -3.915964   -1.295562   -0.033589
      2          6           0       -4.313745    0.048380   -0.063699
      3          6           0       -3.374520    1.072371   -0.050480
      4          6           0       -2.010752    0.754371   -0.005896
      5          6           0       -1.603715   -0.588242    0.024543
      6          6           0       -2.564288   -1.606942    0.009628
      7          6           0       -0.172884   -0.930356    0.068160
      8          8           0        0.260029   -2.066620    0.086329
      9          7           0        0.711712    0.183871    0.094801
     10          6           0        0.324488    1.541409    0.045474
     11          8           0        1.119194    2.459373    0.042899
     12          7           0       -1.040683    1.744561    0.007954
     13          6           0        2.093315   -0.079452    0.120786
     14          6           0        2.978446   -0.244993    1.137530
     15          6           0        4.244435   -0.503345    0.516934
     16          6           0        4.021649   -0.474192   -0.826594
     17          8           0        2.709332   -0.216397   -1.088463
     18          1           0       -4.660152   -2.085047   -0.044721
     19          1           0       -5.369842    0.299520   -0.098219
     20          1           0       -3.686659    2.112768   -0.074527
     21          1           0       -2.212906   -2.632773    0.032473
     22          1           0       -1.309887    2.718660   -0.027908
     23          1           0        2.754450   -0.189554    2.192470
     24          1           0        5.188658   -0.685359    1.009897
     25          1           0        4.651907   -0.608772   -1.691642
 ---------------------------------------------------------------------

 SCF Done:  E(UB3LYP) =  -797.571992493     A.U. after   25 cycles

 The electronic state is 2-A.
 Alpha  occ. eigenvalues --  -19.08396 -18.97575 -18.92991 -14.23268 -14.23171
 Alpha  occ. eigenvalues --  -10.18994 -10.14673 -10.12143 -10.10826 -10.08099
 Alpha  occ. eigenvalues --  -10.07513 -10.06646 -10.02818 -10.02645 -10.02011
 Alpha  occ. eigenvalues --  -10.01754 -10.01362  -1.01301  -0.94774  -0.89157
 Alpha  occ. eigenvalues --   -0.83555  -0.80281  -0.70592  -0.70140  -0.64272
 Alpha  occ. eigenvalues --   -0.61259  -0.60655  -0.53360  -0.51767  -0.50477
 Alpha  occ. eigenvalues --   -0.48684  -0.46072  -0.44458  -0.42969  -0.40212
 Alpha  occ. eigenvalues --   -0.37985  -0.35643  -0.34511  -0.34250  -0.32063
 Alpha  occ. eigenvalues --   -0.31923  -0.31247  -0.30331  -0.29993  -0.28667
 Alpha  occ. eigenvalues --   -0.28032  -0.27011  -0.26267  -0.24478  -0.22567
 Alpha  occ. eigenvalues --   -0.20827  -0.18631  -0.18045  -0.16936  -0.15400
 Alpha  occ. eigenvalues --   -0.12697  -0.11856  -0.11364  -0.09187   0.04884
 Alpha virt. eigenvalues --    0.07592   0.08700   0.09379   0.09872   0.10270
 Alpha virt. eigenvalues --    0.10762   0.11496   0.12114   0.12947   0.14056
 Alpha virt. eigenvalues --    0.14373   0.14576   0.15040   0.15251   0.16030

  Beta  occ. eigenvalues --  -19.08382 -18.97579 -18.92623 -14.23239 -14.23099
  Beta  occ. eigenvalues --  -10.19000 -10.14674 -10.12143 -10.10504 -10.08012
  Beta  occ. eigenvalues --  -10.07512 -10.06644 -10.02783 -10.02767 -10.01888
  Beta  occ. eigenvalues --  -10.01320 -10.01026  -1.01271  -0.94736  -0.88580
  Beta  occ. eigenvalues --   -0.83418  -0.80039  -0.70181  -0.70126  -0.64114
  Beta  occ. eigenvalues --   -0.60769  -0.60258  -0.53157  -0.51226  -0.50440
  Beta  occ. eigenvalues --   -0.48601  -0.45861  -0.44308  -0.42663  -0.40087
  Beta  occ. eigenvalues --   -0.37737  -0.35467  -0.34472  -0.34027  -0.31986
  Beta  occ. eigenvalues --   -0.31810  -0.31017  -0.30278  -0.29757  -0.28492
  Beta  occ. eigenvalues --   -0.27985  -0.26614  -0.24845  -0.23616  -0.22389
  Beta  occ. eigenvalues --   -0.20620  -0.18181  -0.17670  -0.16877  -0.14352
  Beta  occ. eigenvalues --   -0.12674  -0.11019  -0.09888  -0.08285
  Beta virt. eigenvalues --    0.07586   0.08668   0.09370   0.09840   0.10276
  Beta virt. eigenvalues --    0.10749   0.11370   0.11472   0.12355   0.12922
  Beta virt. eigenvalues --    0.14089   0.14524   0.14602   0.15095   0.15706

 Mulliken charges and spin densities:
               1          2
     1  C   -0.631307  -0.104803
     2  C   -0.298171   0.351794
     3  C   -0.437975   0.011044
     4  C    0.478992   0.089175
     5  C    1.056409   0.060444
     6  C   -0.624277   0.309096
     7  C   -0.525836   0.157224
     8  O   -0.362024   0.138980
     9  N    0.195791   0.016908
    10  C    0.323912  -0.000078
    11  O   -0.329683  -0.000863
    12  N   -0.353443   0.014188
    13  C   -1.298001  -0.002156
    14  C    1.014142   0.008384
    15  C   -0.564478  -0.002613
    16  C    0.205326   0.001546
    17  O   -0.036877  -0.004748
    18  H    0.100078   0.007494
    19  H    0.102733  -0.027878
    20  H    0.063269  -0.005151
    21  H    0.166333  -0.020027
    22  H    0.322215  -0.000155
    23  H    0.149395   0.000013
    24  H    0.124739   0.001913
    25  H    0.158737   0.000269
 Sum of Mulliken charges =  -1.00000   1.00000

 Dipole moment (field-independent basis, Debye):
    X=              3.5271    Y=              2.4288    Z=              0.4704  Tot=              4.3082
 Quadrupole moment (field-independent basis, Debye-Ang):
   XX=           -128.5896   YY=           -120.3471   ZZ=           -102.6731
   XY=             -9.3534   XZ=              0.5259   YZ=              0.1704

 Summary of Natural Population Analysis:

                                       Natural Population
                Natural  -----------------------------------------------
    Atom  No    Charge         Core      Valence    Rydberg      Total
 -----------------------------------------------------------------------
      C    1   -0.15202      0.99958     2.14280    0.00964     3.15202
      C    2   -0.01167      0.99959     2.00238    0.00971     3.01167
      C    3   -0.13432      0.99955     2.12548    0.00929     3.13432
      C    4    0.10903      0.99947     1.88176    0.00974     2.89097
      C    5   -0.07222      0.99945     2.06482    0.00795     3.07222
      C    6   -0.00773      0.99955     1.99889    0.00928     3.00773
      C    7    0.38720      0.99962     1.59239    0.02079     2.61280
      O    8   -0.28074      0.99988     3.27519    0.00568     4.28074
      N    9   -0.27432      0.99957     2.76392    0.01083     3.77432
      C   10    0.41739      0.99971     1.56128    0.02163     2.58261
      O   11   -0.33543      0.99987     3.32955    0.00601     4.33543
      N   12   -0.29780      0.99963     2.79059    0.00758     3.79780
      C   13    0.26077      0.99945     1.72271    0.01707     2.73923
      C   14   -0.14456      0.99947     2.13762    0.00747     3.14456
      C   15   -0.15285      0.99958     2.14538    0.00788     3.15285
      C   16    0.05197      0.99953     1.93463    0.01388     2.94803
      O   17   -0.22675      0.99985     3.21844    0.00846     4.22675
      H   18    0.09064      0.00000     0.40831    0.00105     0.40936
      H   19    0.08362      0.00000     0.41528    0.00110     0.41638
      H   20    0.09051      0.00000     0.40857    0.00092     0.40949
      H   21    0.10174      0.00000     0.39709    0.00117     0.39826
      H   22    0.19478      0.00000     0.30286    0.00236     0.30522
      H   23    0.10928      0.00000     0.38992    0.00080     0.39072
      H   24    0.10257      0.00000     0.39654    0.00089     0.39743
      H   25    0.09092      0.00000     0.40808    0.00100     0.40908
 =======================================================================
   * Total *    0.00001     16.99336    41.81449    0.19214    58.99999

 Normal termination of Gaussian 16 at Fri Dec 11 12:31:09 2020.
