 Gaussian 16, Revision A.03,

 -----------------------------------------------------------
 # opt freq B3LYP/6-31G(d) empiricaldispersion=gd3bj scf=xqc
 -----------------------------------------------------------

 -------------------------------
 CID_116770973_JID_6151_neutraal
 -------------------------------
 Symbolic Z-matrix:
 Charge =  0 Multiplicity = 1

 SCF Done:  E(RB3LYP) =  -678.478487533     A.U. after   14 cycles
 SCF Done:  E(RB3LYP) =  -678.500181299     A.U. after   12 cycles
 SCF Done:  E(RB3LYP) =  -678.500884867     A.U. after   12 cycles
 SCF Done:  E(RB3LYP) =  -678.499455833     A.U. after   13 cycles
 SCF Done:  E(RB3LYP) =  -678.501309701     A.U. after   12 cycles
 SCF Done:  E(RB3LYP) =  -678.501584133     A.U. after   12 cycles
 SCF Done:  E(RB3LYP) =  -678.501820082     A.U. after   12 cycles
 SCF Done:  E(RB3LYP) =  -678.501874053     A.U. after   10 cycles
 SCF Done:  E(RB3LYP) =  -678.501872689     A.U. after   10 cycles
 SCF Done:  E(RB3LYP) =  -678.501881382     A.U. after   10 cycles
 SCF Done:  E(RB3LYP) =  -678.501891555     A.U. after    9 cycles
 SCF Done:  E(RB3LYP) =  -678.501892001     A.U. after    8 cycles
 SCF Done:  E(RB3LYP) =  -678.501892146     A.U. after    7 cycles
 SCF Done:  E(RB3LYP) =  -678.501892184     A.U. after    6 cycles
 Optimization completed.
    -- Stationary point found.
 Normal termination of Gaussian 16 at Thu Dec 10 21:17:36 2020.

 --------------------------------------------------------------------
 #N Geom=AllCheck Guess=TCheck SCRF=Check GenChk RB3LYP/6-31G(d) Freq
 --------------------------------------------------------------------

 Structure from the checkpoint file:  "JID_6151.chk"
 -------------------------------
 CID_116770973_JID_6151_neutraal
 -------------------------------
 Charge =  0 Multiplicity = 1

 SCF Done:  E(RB3LYP) =  -678.501892184     A.U. after    1 cycles

  Exact polarizability: 162.085  -3.508 159.996  -6.027   8.377 134.775
 Approx polarizability: 205.131  -8.113 221.045 -10.465  19.695 205.258

                      1                      2                      3
                      A                      A                      A
 Frequencies --     42.3798                65.8473                78.3510
 Red. masses --      3.7128                 3.3173                 2.7741
 Frc consts  --      0.0039                 0.0085                 0.0100
 IR Inten    --      0.1972                 0.1943                 0.2019

                      4                      5                      6
                      A                      A                      A
 Frequencies --     84.2777                93.7690               105.9486
 Red. masses --      1.8987                 3.3488                 2.9045
 Frc consts  --      0.0079                 0.0173                 0.0192
 IR Inten    --      1.6064                 1.4963                 0.1928

                      7                      8                      9
                      A                      A                      A
 Frequencies --    121.3930               151.2985               167.6930
 Red. masses --      3.1502                 2.5049                 2.6355
 Frc consts  --      0.0274                 0.0338                 0.0437
 IR Inten    --      0.0856                 0.8027                 0.3098

                     10                     11                     12
                      A                      A                      A
 Frequencies --    216.7032               233.4835               246.3805
 Red. masses --      2.3085                 2.4786                 1.9262
 Frc consts  --      0.0639                 0.0796                 0.0689
 IR Inten    --      0.2758                 1.0155                 1.1407

                     13                     14                     15
                      A                      A                      A
 Frequencies --    257.0504               269.7985               283.7701
 Red. masses --      2.2279                 1.5265                 1.8715
 Frc consts  --      0.0867                 0.0655                 0.0888
 IR Inten    --      0.1289                 0.9544                 0.4652

                     16                     17                     18
                      A                      A                      A
 Frequencies --    303.1643               306.0377               334.8126
 Red. masses --      2.0176                 3.3922                 3.0696
 Frc consts  --      0.1093                 0.1872                 0.2027
 IR Inten    --      0.3196                 0.7593                 2.8062

                     19                     20                     21
                      A                      A                      A
 Frequencies --    340.8441               371.6646               401.0490
 Red. masses --      2.8112                 2.2420                 3.1939
 Frc consts  --      0.1924                 0.1825                 0.3027
 IR Inten    --      0.5028                 0.8173                 0.5441

                     22                     23                     24
                      A                      A                      A
 Frequencies --    420.2961               453.9708               470.3143
 Red. masses --      3.0209                 3.1994                 3.3853
 Frc consts  --      0.3144                 0.3885                 0.4412
 IR Inten    --      4.1633                 1.8028                 5.5366

                     25                     26                     27
                      A                      A                      A
 Frequencies --    496.8588               509.6560               601.1385
 Red. masses --      1.7371                 2.1114                 1.5516
 Frc consts  --      0.2527                 0.3231                 0.3304
 IR Inten    --      0.6760                 2.7622                22.3005

                     28                     29                     30
                      A                      A                      A
 Frequencies --    608.3217               618.5705               634.7683
 Red. masses --      1.2806                 2.2995                 2.4896
 Frc consts  --      0.2792                 0.5184                 0.5910
 IR Inten    --     41.7569                23.2189                 6.5773

                     31                     32                     33
                      A                      A                      A
 Frequencies --    720.5754               785.0302               807.2439
 Red. masses --      2.5711                 1.9628                 2.0336
 Frc consts  --      0.7865                 0.7127                 0.7808
 IR Inten    --      3.2300                16.8552                35.0969

                     34                     35                     36
                      A                      A                      A
 Frequencies --    815.6408               820.4565               833.6658
 Red. masses --      1.3657                 1.3053                 1.3529
 Frc consts  --      0.5353                 0.5177                 0.5540
 IR Inten    --      0.4741                27.6233                 8.0000

                     37                     38                     39
                      A                      A                      A
 Frequencies --    867.6690               873.0407               883.0123
 Red. masses --      1.9189                 2.0678                 1.8534
 Frc consts  --      0.8511                 0.9286                 0.8514
 IR Inten    --      4.8523                 5.5314                 2.1478

                     40                     41                     42
                      A                      A                      A
 Frequencies --    914.2597               937.2343               958.0778
 Red. masses --      2.4338                 2.1832                 1.6656
 Frc consts  --      1.1986                 1.1299                 0.9008
 IR Inten    --      0.5353                 4.3577                 0.2291

                     43                     44                     45
                      A                      A                      A
 Frequencies --    978.5271               990.2511              1024.0960
 Red. masses --      2.1318                 2.4807                 2.2334
 Frc consts  --      1.2027                 1.4332                 1.3800
 IR Inten    --     26.9532                30.3357                 2.5640

                     46                     47                     48
                      A                      A                      A
 Frequencies --   1038.1613              1066.9281              1076.1524
 Red. masses --      2.1319                 2.3425                 2.1997
 Frc consts  --      1.3538                 1.5711                 1.5009
 IR Inten    --      4.3594                 3.9330                 5.8848

                     49                     50                     51
                      A                      A                      A
 Frequencies --   1089.4993              1095.7861              1120.4684
 Red. masses --      2.0847                 2.3052                 2.0652
 Frc consts  --      1.4580                 1.6308                 1.5276
 IR Inten    --      4.5399                28.5218                 0.1633

                     52                     53                     54
                      A                      A                      A
 Frequencies --   1131.4158              1139.0478              1152.9129
 Red. masses --      2.9198                 1.9535                 2.5450
 Frc consts  --      2.2021                 1.4933                 1.9931
 IR Inten    --     20.7106                 5.8292               167.3482

                     55                     56                     57
                      A                      A                      A
 Frequencies --   1163.4373              1184.3956              1207.4463
 Red. masses --      2.1872                 2.4172                 1.7972
 Frc consts  --      1.7443                 1.9978                 1.5438
 IR Inten    --      8.5378                69.1231                19.8040

                     58                     59                     60
                      A                      A                      A
 Frequencies --   1214.2068              1231.6570              1248.5591
 Red. masses --      2.0166                 1.8536                 1.3763
 Frc consts  --      1.7517                 1.6567                 1.2641
 IR Inten    --      7.7930                21.2622                 3.2334

                     61                     62                     63
                      A                      A                      A
 Frequencies --   1270.9726              1284.8663              1303.6440
 Red. masses --      1.3007                 1.2255                 1.1931
 Frc consts  --      1.2379                 1.1920                 1.1946
 IR Inten    --      1.9356                11.2345                 2.6631

                     64                     65                     66
                      A                      A                      A
 Frequencies --   1328.6245              1333.6599              1349.9559
 Red. masses --      1.2037                 1.1415                 1.1617
 Frc consts  --      1.2519                 1.1963                 1.2473
 IR Inten    --      7.2361                 0.3308                 8.2870

                     67                     68                     69
                      A                      A                      A
 Frequencies --   1352.2228              1362.4450              1388.4498
 Red. masses --      1.1913                 1.2948                 1.4242
 Frc consts  --      1.2834                 1.4161                 1.6177
 IR Inten    --     17.7666                 2.2448                 2.8822

                     70                     71                     72
                      A                      A                      A
 Frequencies --   1403.6180              1405.2344              1410.8689
 Red. masses --      1.3890                 1.3746                 1.3251
 Frc consts  --      1.6123                 1.5992                 1.5541
 IR Inten    --      7.6119                 6.7953                11.2060

                     73                     74                     75
                      A                      A                      A
 Frequencies --   1415.4578              1416.7348              1420.2946
 Red. masses --      1.4785                 1.4120                 1.4298
 Frc consts  --      1.7453                 1.6698                 1.6993
 IR Inten    --      7.2349                 2.2019                 2.8890

                     76                     77                     78
                      A                      A                      A
 Frequencies --   1420.4830              1441.4301              1443.9241
 Red. masses --      1.2283                 1.2772                 1.3227
 Frc consts  --      1.4603                 1.5635                 1.6248
 IR Inten    --      3.6647                23.9126                11.5613

                     79                     80                     81
                      A                      A                      A
 Frequencies --   1507.6438              1511.5096              1513.4303
 Red. masses --      1.1264                 1.0789                 1.0784
 Frc consts  --      1.5085                 1.4524                 1.4553
 IR Inten    --     19.9956                 2.6907                 1.1662

                     82                     83                     84
                      A                      A                      A
 Frequencies --   1518.5893              1520.3984              1521.4047
 Red. masses --      1.0740                 1.0875                 1.0895
 Frc consts  --      1.4592                 1.4811                 1.4858
 IR Inten    --      2.3934                 4.8967                 1.9032

                     85                     86                     87
                      A                      A                      A
 Frequencies --   1526.3433              1527.8192              1532.3190
 Red. masses --      1.0554                 1.0576                 1.0840
 Frc consts  --      1.4487                 1.4544                 1.4997
 IR Inten    --      0.9641                18.4912                 6.9140

                     88                     89                     90
                      A                      A                      A
 Frequencies --   1536.0648              1539.0457              1544.7329
 Red. masses --      1.0783                 1.0811                 1.0779
 Frc consts  --      1.4991                 1.5087                 1.5154
 IR Inten    --      7.7993                 5.1410                 3.3723

                     91                     92                     93
                      A                      A                      A
 Frequencies --   1552.0734              2225.0048              2983.0480
 Red. masses --      1.0899                 5.9851                 1.0707
 Frc consts  --      1.5469                17.4574                 5.6136
 IR Inten    --      1.8054                 0.2614                55.9806

                     94                     95                     96
                      A                      A                      A
 Frequencies --   3015.1861              3021.1313              3037.3071
 Red. masses --      1.0652                 1.0632                 1.0677
 Frc consts  --      5.7059                 5.7176                 5.8032
 IR Inten    --     23.5743                18.9273                12.5646

                     97                     98                     99
                      A                      A                      A
 Frequencies --   3040.0469              3043.8436              3047.0833
 Red. masses --      1.0700                 1.0612                 1.0406
 Frc consts  --      5.8262                 5.7927                 5.6924
 IR Inten    --     32.1250                 5.6259                18.8662

                    100                    101                    102
                      A                      A                      A
 Frequencies --   3049.8915              3053.0418              3053.8624
 Red. masses --      1.0691                 1.0442                 1.0707
 Frc consts  --      5.8592                 5.7346                 5.8831
 IR Inten    --     28.8483                17.5068                50.5244

                    103                    104                    105
                      A                      A                      A
 Frequencies --   3059.5847              3061.6493              3063.7235
 Red. masses --      1.0890                 1.0877                 1.0998
 Frc consts  --      6.0065                 6.0074                 6.0824
 IR Inten    --     72.5367                32.4545                64.7642

                    106                    107                    108
                      A                      A                      A
 Frequencies --   3068.1163              3080.5059              3083.5598
 Red. masses --      1.0690                 1.1038                 1.1008
 Frc consts  --      5.9288                 6.1715                 6.1671
 IR Inten    --     15.4287                41.8542                22.4960

                    109                    110                    111
                      A                      A                      A
 Frequencies --   3095.4307              3099.7667              3112.7235
 Red. masses --      1.0970                 1.0967                 1.0996
 Frc consts  --      6.1928                 6.2085                 6.2772
 IR Inten    --     14.1770                23.2885                43.3227

                    112                    113                    114
                      A                      A                      A
 Frequencies --   3115.3161              3123.9794              3131.5009
 Red. masses --      1.0982                 1.0948                 1.1033
 Frc consts  --      6.2799                 6.2951                 6.3747
 IR Inten    --     76.8767                16.3721                30.2208

                    115                    116                    117
                      A                      A                      A
 Frequencies --   3139.0249              3485.3153              3495.9449
 Red. masses --      1.1025                 1.0734                 1.1587
 Frc consts  --      6.4008                 7.6826                 8.3433
 IR Inten    --     36.3363                 0.1786                55.9096

 - Thermochemistry -
 -------------------
 Temperature   298.150 Kelvin.  Pressure   1.00000 Atm.
 Atom     1 has atomic number  6 and mass  12.00000

 Molecular mass:   223.19361 amu.
 Principal axes and moments of inertia in atomic units:
                           1         2         3
     Eigenvalues --  2903.504724385.725595887.94839
           X            0.99955   0.02989   0.00390
           Y           -0.02987   0.99955  -0.00303
           Z           -0.00399   0.00291   0.99999
 This molecule is an asymmetric top.
 Rotational symmetry number  1.
 Warning -- assumption of classical behavior for rotation
           may cause significant error
 Rotational temperatures (Kelvin)      0.02983     0.01975     0.01471
 Rotational constants (GHZ):           0.62157     0.41150     0.30651
 Zero-point vibrational energy     981226.8 (Joules/Mol)
                                  234.51884 (Kcal/Mol)
 Warning -- explicit consideration of  29 degrees of freedom as
           vibrations may cause significant error
 Vibrational temperatures:     60.98    94.74   112.73   121.26   134.91
          (Kelvin)            152.44   174.66   217.68   241.27   311.79
                              335.93   354.49   369.84   388.18   408.28
                              436.19   440.32   481.72   490.40   534.74
                              577.02   604.71   653.16   676.68   714.87
                              733.28   864.90   875.24   889.98   913.29
                             1036.75  1129.48  1161.44  1173.53  1180.45
                             1199.46  1248.38  1256.11  1270.46  1315.42
                             1348.47  1378.46  1407.88  1424.75  1473.45
                             1493.68  1535.07  1548.34  1567.55  1576.59
                             1612.10  1627.85  1638.84  1658.78  1673.93
                             1704.08  1737.25  1746.97  1772.08  1796.40
                             1828.65  1848.64  1875.65  1911.59  1918.84
                             1942.29  1945.55  1960.25  1997.67  2019.49
                             2021.82  2029.93  2036.53  2038.37  2043.49
                             2043.76  2073.90  2077.48  2169.16  2174.73
                             2177.49  2184.91  2187.51  2188.96  2196.07
                             2198.19  2204.67  2210.05  2214.34  2222.53
                             2233.09  3201.29  4291.94  4338.18  4346.73
                             4370.01  4373.95  4379.41  4384.07  4388.11
                             4392.65  4393.83  4402.06  4405.03  4408.01
                             4414.34  4432.16  4436.55  4453.63  4459.87
                             4478.51  4482.25  4494.71  4505.53  4516.36
                             5014.59  5029.88

 Zero-point correction=                           0.373730 (Hartree/Particle)
 Thermal correction to Energy=                    0.391606
 Thermal correction to Enthalpy=                  0.392550
 Thermal correction to Gibbs Free Energy=         0.328980
 Sum of electronic and zero-point Energies=           -678.128163
 Sum of electronic and thermal Energies=              -678.110286
 Sum of electronic and thermal Enthalpies=            -678.109342
 Sum of electronic and thermal Free Energies=         -678.172913

                     E (Thermal)             CV                S
                      KCal/Mol        Cal/Mol-Kelvin    Cal/Mol-Kelvin
 Total                  245.736             68.883            133.795
 Electronic               0.000              0.000              0.000
 Translational            0.889              2.981             42.111
 Rotational               0.889              2.981             32.683
 Vibrational            243.959             62.921             59.001
 Vibration     1          0.595              1.980              5.145
 Vibration     2          0.597              1.971              4.274
 Vibration     3          0.600              1.964              3.932
 Vibration     4          0.601              1.960              3.789
 Vibration     5          0.603              1.954              3.580
 Vibration     6          0.605              1.944              3.342
 Vibration     7          0.609              1.931              3.078
 Vibration     8          0.619              1.901              2.656
 Vibration     9          0.624              1.882              2.461
 Vibration    10          0.646              1.816              1.986
 Vibration    11          0.654              1.790              1.852
 Vibration    12          0.661              1.769              1.756
 Vibration    13          0.667              1.751              1.682
 Vibration    14          0.674              1.729              1.597
 Vibration    15          0.682              1.704              1.511
 Vibration    16          0.695              1.668              1.399
 Vibration    17          0.696              1.662              1.384
 Vibration    18          0.716              1.606              1.237
 Vibration    19          0.720              1.594              1.208
 Vibration    20          0.743              1.530              1.073
 Vibration    21          0.767              1.468              0.959
 Vibration    22          0.783              1.426              0.891
 Vibration    23          0.812              1.352              0.784
 Vibration    24          0.827              1.316              0.737
 Vibration    25          0.852              1.257              0.666
 Vibration    26          0.865              1.229              0.634
 Vibration    27          0.959              1.029              0.448
 Vibration    28          0.967              1.014              0.436
 Vibration    29          0.978              0.993              0.419

 Optimization completed.
    -- Stationary point found.
 Normal termination of Gaussian 16 at Thu Dec 10 21:34:31 2020.

 ----------------------------------------------------------------------
 # B3LYP/6-311++G(d,p) empiricaldispersion=gd3bj scf=xqc pop=npa geom=c
 heck
 ----------------------------------------------------------------------

 ---------------------------------------
 CID_116770973_JID_6151_Energie_neutraal
 ---------------------------------------
 Structure from the checkpoint file:  "JID_6151.chk"
 Charge =  0 Multiplicity = 1

 SCF Done:  E(RB3LYP) =  -678.694994039     A.U. after   15 cycles
 Normal termination of Gaussian 16 at Thu Dec 10 21:42:21 2020.

 ----------------------------------------------------------------------
 # B3LYP/6-311++G(d,p) empiricaldispersion=gd3bj scf=xqc pop=npa geom=c
 heck
 ----------------------------------------------------------------------

 -------------------------------------
 CID_116770973_JID_6151_Energie_kation
 -------------------------------------
 Structure from the checkpoint file:  "JID_6151.chk"
 Charge =  1 Multiplicity = 2

 SCF Done:  E(UB3LYP) =  -678.394590284     A.U. after   26 cycles
 Normal termination of Gaussian 16 at Thu Dec 10 22:00:49 2020.
 Gaussian 16:  ES64L-G16RevA.03 25-Dec-2016

 ----------------------------------------------------------------------
 # B3LYP/6-311++G(d,p) empiricaldispersion=gd3bj scf=xqc pop=npa geom=c
 heck
 ----------------------------------------------------------------------

 ------------------------------------
 CID_116770973_JID_6151_Energie_anion
 ------------------------------------
 Structure from the checkpoint file:  "JID_6151.chk"
 Charge = -1 Multiplicity = 2

                         Standard orientation:
 ---------------------------------------------------------------------
 Center     Atomic      Atomic             Coordinates (Angstroms)
 Number     Number       Type             X           Y           Z
 ---------------------------------------------------------------------
      1          6           0       -4.283884   -1.335563   -0.386083
      2          6           0       -3.403472   -0.131162   -0.700341
      3          7           0       -2.061030   -0.324051   -0.143694
      4          6           0       -1.169375    0.825064   -0.354673
      5          6           0       -1.553286    1.968496    0.489980
      6          6           0       -1.964790    2.833898    1.226080
      7          6           0        0.343991    0.448047   -0.187184
      8          6           0        0.647264   -0.032920    1.249974
      9          6           0        0.381194   -1.513549    1.587156
     10          6           0        1.535042   -2.456417    1.217263
     11          6           0        1.715548   -2.704060   -0.283554
     12          6           0        1.937494   -1.443529   -1.131030
     13          6           0        0.683579   -0.565284   -1.294531
     14          8           0        0.957203    1.736742   -0.391464
     15          6           0        2.283623    1.878115   -0.875391
     16          6           0        3.371705    1.800472    0.195856
     17          1           0       -3.828549   -2.255210   -0.767691
     18          1           0       -5.275591   -1.220848   -0.836317
     19          1           0       -4.422009   -1.449798    0.696508
     20          1           0       -3.296234   -0.020604   -1.786874
     21          1           0       -3.879433    0.792756   -0.329916
     22          1           0       -2.154573   -0.470989    0.860404
     23          1           0       -1.275446    1.122181   -1.405573
     24          1           0       -2.292518    3.625194    1.860684
     25          1           0        1.699087    0.177500    1.460762
     26          1           0        0.081577    0.617237    1.927556
     27          1           0       -0.539251   -1.864469    1.108617
     28          1           0        0.217167   -1.585674    2.670101
     29          1           0        1.377824   -3.424137    1.711999
     30          1           0        2.469633   -2.049484    1.631725
     31          1           0        0.832954   -3.234001   -0.670206
     32          1           0        2.567880   -3.382030   -0.424900
     33          1           0        2.255466   -1.758465   -2.133333
     34          1           0        2.776677   -0.871869   -0.717014
     35          1           0       -0.185937   -1.224419   -1.392385
     36          1           0        0.741875   -0.000033   -2.233105
     37          1           0        2.492982    1.169993   -1.686965
     38          1           0        2.299440    2.880091   -1.319320
     39          1           0        3.522455    0.783279    0.569321
     40          1           0        4.325640    2.146102   -0.220788
     41          1           0        3.110666    2.442472    1.043152
 ---------------------------------------------------------------------

 SCF Done:  E(UB3LYP) =  -678.679308874     A.U. after   33 cycles
 SCF Done:  E(UB3LYP) =  -678.679308875     a.u. after    1 cycles

 The electronic state is 2-A.
 Alpha  occ. eigenvalues --  -19.02197 -14.21244 -10.13876 -10.12853 -10.12233
 Alpha  occ. eigenvalues --  -10.10112 -10.08127 -10.07011 -10.06892 -10.06879
 Alpha  occ. eigenvalues --  -10.06816 -10.06653 -10.06612 -10.06601 -10.06600
 Alpha  occ. eigenvalues --  -10.06508  -0.93539  -0.82796  -0.73018  -0.69819
 Alpha  occ. eigenvalues --   -0.66625  -0.66472  -0.64925  -0.63985  -0.59181
 Alpha  occ. eigenvalues --   -0.56350  -0.54279  -0.52103  -0.51153  -0.47042
 Alpha  occ. eigenvalues --   -0.45044  -0.44539  -0.40833  -0.40602  -0.39234
 Alpha  occ. eigenvalues --   -0.37801  -0.37236  -0.35637  -0.34963  -0.33828
 Alpha  occ. eigenvalues --   -0.33478  -0.32335  -0.31965  -0.30822  -0.30140
 Alpha  occ. eigenvalues --   -0.29187  -0.28696  -0.27998  -0.27516  -0.27090
 Alpha  occ. eigenvalues --   -0.26169  -0.25765  -0.24528  -0.22991  -0.22675
 Alpha  occ. eigenvalues --   -0.22337  -0.21432  -0.20012  -0.18905  -0.18285
 Alpha  occ. eigenvalues --   -0.15949  -0.14393   0.04275
 Alpha virt. eigenvalues --    0.05904   0.06612   0.06775   0.07400   0.08151
 Alpha virt. eigenvalues --    0.08349   0.08827   0.09147   0.09830   0.10185
 Alpha virt. eigenvalues --    0.10435   0.11122   0.11273   0.11518   0.12072

  Beta  occ. eigenvalues --  -19.02195 -14.21235 -10.13877 -10.12848 -10.12220
  Beta  occ. eigenvalues --  -10.10098 -10.08128 -10.06998 -10.06870 -10.06847
  Beta  occ. eigenvalues --  -10.06797 -10.06642 -10.06598 -10.06592 -10.06590
  Beta  occ. eigenvalues --  -10.06492  -0.93532  -0.82781  -0.72997  -0.69797
  Beta  occ. eigenvalues --   -0.66600  -0.66451  -0.64901  -0.63954  -0.59151
  Beta  occ. eigenvalues --   -0.56317  -0.54240  -0.52042  -0.51106  -0.46995
  Beta  occ. eigenvalues --   -0.45013  -0.44515  -0.40814  -0.40577  -0.39213
  Beta  occ. eigenvalues --   -0.37766  -0.37218  -0.35612  -0.34931  -0.33807
  Beta  occ. eigenvalues --   -0.33449  -0.32306  -0.31934  -0.30792  -0.30112
  Beta  occ. eigenvalues --   -0.29164  -0.28664  -0.27963  -0.27484  -0.27061
  Beta  occ. eigenvalues --   -0.26130  -0.25742  -0.24507  -0.22964  -0.22651
  Beta  occ. eigenvalues --   -0.22306  -0.21401  -0.19995  -0.18888  -0.18273
  Beta  occ. eigenvalues --   -0.15934  -0.14374
  Beta virt. eigenvalues --    0.06152   0.06707   0.07099   0.07279   0.07862
  Beta virt. eigenvalues --    0.08575   0.08722   0.09236   0.09370   0.10069
  Beta virt. eigenvalues --    0.10502   0.10768   0.11310   0.11407   0.11781

 Mulliken charges and spin densities:
               1          2
     1  C    0.755960  -1.342182
     2  C   -0.190283   0.004295
     3  N    0.175744  -0.077579
     4  C   -1.091318   0.553141
     5  C    2.402571  -2.241583
     6  C   -1.438748   0.924829
     7  C   -0.717660   0.879162
     8  C   -0.248283  -0.288128
     9  C   -0.378609   0.158541
    10  C    0.080367  -0.542163
    11  C    0.570713  -1.076577
    12  C   -0.757276   0.709484
    13  C    0.461973  -0.835157
    14  O    0.093266   0.006102
    15  C   -0.140328   0.115968
    16  C    0.379962  -0.880282
    17  H   -0.140870   0.300049
    18  H   -0.253989   0.385159
    19  H   -0.263731   0.396215
    20  H   -0.124514   0.267518
    21  H    0.035269   0.111592
    22  H    0.249439  -0.051589
    23  H    0.058899   0.152194
    24  H   -0.259705   0.433321
    25  H    0.309739  -0.186470
    26  H    0.223718  -0.023743
    27  H    0.249937  -0.123970
    28  H   -0.274090   0.447958
    29  H   -0.090940   0.257382
    30  H   -0.033807   0.172228
    31  H   -0.062949   0.196886
    32  H   -0.239006   0.404950
    33  H   -0.455464   0.641969
    34  H    0.175961  -0.049073
    35  H    0.377674  -0.176099
    36  H    0.041264   0.154051
    37  H   -0.014741   0.154150
    38  H   -0.166727   0.336159
    39  H   -0.104702   0.235974
    40  H   -0.328410   0.466072
    41  H    0.133697   0.029247
 Sum of Mulliken charges =  -1.00000   1.00000

 Dipole moment (field-independent basis, Debye):
    X=              0.1862    Y=              2.2717    Z=              1.1824  Tot=              2.5677
 Quadrupole moment (field-independent basis, Debye-Ang):
   XX=           -182.4152   YY=           -158.4663   ZZ=           -141.0447
   XY=             -2.3198   XZ=              3.0923   YZ=              0.6151

 Summary of Natural Population Analysis:

                                       Natural Population
                Natural  -----------------------------------------------
    Atom  No    Charge         Core      Valence    Rydberg      Total
 -----------------------------------------------------------------------
      C    1   -0.28612      0.99967     2.28202    0.00443     3.28612
      C    2   -0.08619      0.99964     2.07613    0.01042     3.08619
      N    3   -0.33388      0.99974     2.82382    0.01032     3.83388
      C    4   -0.05236      0.99946     2.03812    0.01478     3.05236
      C    5    0.00580      0.99936     1.98564    0.00919     2.99420
      C    6   -0.12603      0.99926     2.12249    0.00428     3.12603
      C    7    0.16258      0.99948     1.82125    0.01669     2.83742
      C    8   -0.21255      0.99956     2.20225    0.01075     3.21255
      C    9   -0.19778      0.99962     2.18967    0.00849     3.19778
      C   10   -0.18536      0.99962     2.17763    0.00811     3.18536
      C   11   -0.18573      0.99962     2.17790    0.00821     3.18573
      C   12   -0.19510      0.99962     2.18623    0.00925     3.19510
      C   13   -0.21630      0.99956     2.20687    0.00987     3.21630
      O   14   -0.31544      0.99986     3.30327    0.01231     4.31544
      C   15   -0.00798      0.99957     1.99614    0.01227     3.00798
      C   16   -0.30028      0.99966     2.29581    0.00480     3.30028
      H   17    0.10078      0.00000     0.39778    0.00143     0.39922
      H   18    0.10027      0.00000     0.39846    0.00127     0.39973
      H   19    0.09564      0.00000     0.40291    0.00145     0.40436
      H   20    0.08921      0.00000     0.40930    0.00149     0.41079
      H   21    0.08440      0.00000     0.41407    0.00152     0.41560
      H   22    0.17301      0.00000     0.32320    0.00379     0.32699
      H   23    0.11136      0.00000     0.38600    0.00264     0.38864
      H   24    0.10970      0.00000     0.38906    0.00124     0.39030
      H   25    0.10299      0.00000     0.39513    0.00188     0.39701
      H   26    0.10683      0.00000     0.39185    0.00132     0.39317
      H   27    0.10152      0.00000     0.39624    0.00224     0.39848
      H   28    0.09831      0.00000     0.40070    0.00099     0.40169
      H   29    0.09776      0.00000     0.40118    0.00106     0.40224
      H   30    0.09016      0.00000     0.40840    0.00144     0.40984
      H   31    0.09273      0.00000     0.40583    0.00145     0.40727
      H   32    0.09813      0.00000     0.40066    0.00121     0.40187
      H   33    0.10156      0.00000     0.39719    0.00125     0.39844
      H   34    0.09409      0.00000     0.40398    0.00193     0.40591
      H   35    0.11589      0.00000     0.38214    0.00196     0.38411
      H   36    0.10349      0.00000     0.39513    0.00138     0.39651
      H   37    0.08149      0.00000     0.41697    0.00154     0.41851
      H   38    0.08680      0.00000     0.41199    0.00121     0.41320
      H   39    0.09589      0.00000     0.40282    0.00128     0.40411
      H   40    0.10004      0.00000     0.39885    0.00111     0.39996
      H   41    0.10066      0.00000     0.39834    0.00099     0.39934
 =======================================================================
   * Total *    0.00000     15.99330    45.81346    0.19323    62.00000

 Normal termination of Gaussian 16 at Thu Dec 10 22:24:06 2020.
