 Gaussian 16, Revision A.03,

 -----------------------------------------------------------
 # opt freq B3LYP/6-31G(d) empiricaldispersion=gd3bj scf=xqc
 -----------------------------------------------------------

 -------------------------------
 CID_79005848_JID_10058_neutraal
 -------------------------------
 Symbolic Z-matrix:
 Charge =  0 Multiplicity = 1

 SCF Done:  E(RB3LYP) =  -1638.97714429     A.U. after   15 cycles
 SCF Done:  E(RB3LYP) =  -1638.96983238     A.U. after   14 cycles
 SCF Done:  E(RB3LYP) =  -1638.98830284     A.U. after   12 cycles
 SCF Done:  E(RB3LYP) =  -1638.99005773     A.U. after   13 cycles
 SCF Done:  E(RB3LYP) =  -1638.99030504     A.U. after   12 cycles
 SCF Done:  E(RB3LYP) =  -1638.99142746     A.U. after   12 cycles
 SCF Done:  E(RB3LYP) =  -1638.99117908     A.U. after   13 cycles
 SCF Done:  E(RB3LYP) =  -1638.99256854     A.U. after   12 cycles
 SCF Done:  E(RB3LYP) =  -1638.99360432     A.U. after   13 cycles
 SCF Done:  E(RB3LYP) =  -1638.99482914     A.U. after   13 cycles
 SCF Done:  E(RB3LYP) =  -1638.99754576     A.U. after    8 cycles
 SCF Done:  E(RB3LYP) =  -1638.99754686     A.U. after    8 cycles
 SCF Done:  E(RB3LYP) =  -1638.99754828     A.U. after    8 cycles
 SCF Done:  E(RB3LYP) =  -1638.99754905     A.U. after    8 cycles
 SCF Done:  E(RB3LYP) =  -1638.99754924     A.U. after    8 cycles
 Optimization completed.
    -- Stationary point found.
 Normal termination of Gaussian 16 at Sun Dec 13 17:10:31 2020.

 --------------------------------------------------------------------
 #N Geom=AllCheck Guess=TCheck SCRF=Check GenChk RB3LYP/6-31G(d) Freq
 --------------------------------------------------------------------

 Structure from the checkpoint file:  "JID_10058.chk"
 -------------------------------
 CID_79005848_JID_10058_neutraal
 -------------------------------
 Charge =  0 Multiplicity = 1

 SCF Done:  E(RB3LYP) =  -1638.99754924     A.U. after    1 cycles

  Exact polarizability: 209.238  10.756 164.093  -5.853   8.311 171.877
 Approx polarizability: 286.133  22.490 249.083 -11.659  16.861 316.252

                      1                      2                      3
                      A                      A                      A
 Frequencies --     21.0917                28.7713                34.2185
 Red. masses --      6.5907                 4.4510                 6.6122
 Frc consts  --      0.0017                 0.0022                 0.0046
 IR Inten    --      2.8363                 0.5693                 0.6755

                      4                      5                      6
                      A                      A                      A
 Frequencies --     43.0533                49.0329                77.8597
 Red. masses --      6.0534                 4.8403                 3.9539
 Frc consts  --      0.0066                 0.0069                 0.0141
 IR Inten    --      2.2653                 0.3361                 0.4571

                      7                      8                      9
                      A                      A                      A
 Frequencies --     97.1018               110.3931               168.8140
 Red. masses --      7.0545                 8.5118                 2.4943
 Frc consts  --      0.0392                 0.0611                 0.0419
 IR Inten    --      3.7747                 0.7118                 3.1958

                     10                     11                     12
                      A                      A                      A
 Frequencies --    176.3701               191.7081               209.2510
 Red. masses --      2.4837                 7.2588                 3.0855
 Frc consts  --      0.0455                 0.1572                 0.0796
 IR Inten    --     15.0999                 2.6025                 0.0958

                     13                     14                     15
                      A                      A                      A
 Frequencies --    228.9247               248.8714               257.2670
 Red. masses --      2.7896                 1.1003                 2.0427
 Frc consts  --      0.0861                 0.0402                 0.0797
 IR Inten    --      7.7537                 0.4092                 8.7013

                     16                     17                     18
                      A                      A                      A
 Frequencies --    285.5360               309.1387               323.2766
 Red. masses --      6.2391                 2.4743                 2.7622
 Frc consts  --      0.2997                 0.1393                 0.1701
 IR Inten    --      7.4886                 0.6314                 5.0678

                     19                     20                     21
                      A                      A                      A
 Frequencies --    327.3363               344.9885               378.5932
 Red. masses --      3.4596                 2.9422                 2.6881
 Frc consts  --      0.2184                 0.2063                 0.2270
 IR Inten    --      2.4136                11.9481                 1.3120

                     22                     23                     24
                      A                      A                      A
 Frequencies --    400.2983               416.9967               426.7009
 Red. masses --      5.1827                 2.1023                 5.1761
 Frc consts  --      0.4893                 0.2154                 0.5553
 IR Inten    --      4.8064                 0.1497                 3.8353

                     25                     26                     27
                      A                      A                      A
 Frequencies --    437.5581               460.5942               479.8214
 Red. masses --      2.9008                 2.7066                 7.8114
 Frc consts  --      0.3272                 0.3383                 1.0596
 IR Inten    --      0.2397                 0.6382                 5.8679

                     28                     29                     30
                      A                      A                      A
 Frequencies --    519.7087               528.7583               552.4124
 Red. masses --      5.5442                 3.9853                 3.0183
 Frc consts  --      0.8823                 0.6565                 0.5427
 IR Inten    --     23.9889                31.8246                 4.5565

                     31                     32                     33
                      A                      A                      A
 Frequencies --    556.6089               574.0964               596.4984
 Red. masses --      5.8755                 3.2258                 2.4250
 Frc consts  --      1.0725                 0.6264                 0.5084
 IR Inten    --    139.9232                 4.8062                 3.4071

                     34                     35                     36
                      A                      A                      A
 Frequencies --    635.3357               661.9152               698.0254
 Red. masses --      4.9525                 5.9372                 3.2142
 Frc consts  --      1.1778                 1.5326                 0.9227
 IR Inten    --     15.2411                17.8383               250.4998

                     37                     38                     39
                      A                      A                      A
 Frequencies --    708.4874               736.0380               766.1566
 Red. masses --      5.7160                 1.3680                 6.3858
 Frc consts  --      1.6905                 0.4366                 2.2085
 IR Inten    --      2.2500               135.5682                 5.2388

                     40                     41                     42
                      A                      A                      A
 Frequencies --    781.5227               800.0691               812.9894
 Red. masses --      2.5407                 1.5090                 1.3255
 Frc consts  --      0.9143                 0.5691                 0.5162
 IR Inten    --      4.6540                 0.2863                18.4347

                     43                     44                     45
                      A                      A                      A
 Frequencies --    820.9972               881.2191               883.5951
 Red. masses --      2.7314                 2.3580                 1.9002
 Frc consts  --      1.0847                 1.0788                 0.8741
 IR Inten    --     15.9598                 3.8139               114.9805

                     46                     47                     48
                      A                      A                      A
 Frequencies --    898.2593               904.9695               955.1040
 Red. masses --      2.2116                 1.4134                 1.4418
 Frc consts  --      1.0514                 0.6820                 0.7749
 IR Inten    --      0.2217                 1.7453                10.5164

                     49                     50                     51
                      A                      A                      A
 Frequencies --    969.5973               979.1555               996.3957
 Red. masses --      1.5154                 2.1706                 1.6427
 Frc consts  --      0.8394                 1.2261                 0.9609
 IR Inten    --      7.2317                11.0951                 0.4689

                     52                     53                     54
                      A                      A                      A
 Frequencies --    999.5818              1029.6073              1051.3613
 Red. masses --      1.5999                 2.6303                 1.9782
 Frc consts  --      0.9418                 1.6429                 1.2883
 IR Inten    --      1.0415                59.7906                 0.8913

                     55                     56                     57
                      A                      A                      A
 Frequencies --   1096.7644              1102.6885              1110.7455
 Red. masses --      2.6504                 2.1965                 1.5200
 Frc consts  --      1.8784                 1.5736                 1.1049
 IR Inten    --     37.9826                 2.1898                12.4571

                     58                     59                     60
                      A                      A                      A
 Frequencies --   1113.6720              1129.2292              1137.6064
 Red. masses --      1.3653                 1.6558                 2.3527
 Frc consts  --      0.9977                 1.2440                 1.7939
 IR Inten    --      0.2193                 6.0019                16.8098

                     61                     62                     63
                      A                      A                      A
 Frequencies --   1145.9742              1165.2483              1179.4436
 Red. masses --      3.5929                 2.2020                 1.8670
 Frc consts  --      2.7800                 1.7616                 1.5302
 IR Inten    --    155.1168                 1.8810                 3.6929

                     64                     65                     66
                      A                      A                      A
 Frequencies --   1186.3131              1240.5829              1246.0227
 Red. masses --      4.0344                 1.5776                 1.3812
 Frc consts  --      3.3452                 1.4305                 1.2635
 IR Inten    --      8.6654                 0.7347                13.4275

                     67                     68                     69
                      A                      A                      A
 Frequencies --   1260.5110              1281.9603              1304.6228
 Red. masses --      1.5949                 1.2809                 1.3030
 Frc consts  --      1.4931                 1.2403                 1.3067
 IR Inten    --     67.2892                 6.7548                13.8421

                     70                     71                     72
                      A                      A                      A
 Frequencies --   1327.9198              1333.5705              1340.0051
 Red. masses --      1.4202                 1.9206                 6.4841
 Frc consts  --      1.4755                 2.0125                 6.8598
 IR Inten    --     12.5248                74.4525               153.0225

                     73                     74                     75
                      A                      A                      A
 Frequencies --   1347.7166              1354.3987              1357.9677
 Red. masses --      1.3340                 1.8152                 1.5169
 Frc consts  --      1.4275                 1.9619                 1.6481
 IR Inten    --     16.8974                66.4012                20.0366

                     76                     77                     78
                      A                      A                      A
 Frequencies --   1377.3609              1389.9397              1403.9436
 Red. masses --      1.7161                 1.4531                 1.4170
 Frc consts  --      1.9181                 1.6541                 1.6456
 IR Inten    --     24.5911                 2.6378                 3.1776

                     79                     80                     81
                      A                      A                      A
 Frequencies --   1410.3074              1415.6219              1426.3457
 Red. masses --      1.5153                 1.5953                 1.5692
 Frc consts  --      1.7757                 1.8836                 1.8809
 IR Inten    --     16.9099                19.6562                 1.4754

                     82                     83                     84
                      A                      A                      A
 Frequencies --   1443.9276              1488.3259              1503.8643
 Red. masses --      1.2378                 3.7401                 1.3253
 Frc consts  --      1.5206                 4.8813                 1.7659
 IR Inten    --      2.9196                27.5689                 0.7460

                     85                     86                     87
                      A                      A                      A
 Frequencies --   1510.0365              1514.5823              1519.1512
 Red. masses --      1.3046                 1.1322                 1.1006
 Frc consts  --      1.7527                 1.5303                 1.4965
 IR Inten    --     19.0953                17.1801                19.4768

                     88                     89                     90
                      A                      A                      A
 Frequencies --   1525.6826              1529.6851              1532.9784
 Red. masses --      1.0670                 1.0675                 1.0589
 Frc consts  --      1.4634                 1.4716                 1.4662
 IR Inten    --      6.7410                 8.7302                 0.9397

                     91                     92                     93
                      A                      A                      A
 Frequencies --   1545.1413              1589.6813              1621.9178
 Red. masses --      1.0913                 5.1951                 1.1022
 Frc consts  --      1.5351                 7.7351                 1.7083
 IR Inten    --     11.7203                 5.6230                37.8221

                     94                     95                     96
                      A                      A                      A
 Frequencies --   1758.7988              2993.0957              3016.4375
 Red. masses --      7.2450                 1.0826                 1.0803
 Frc consts  --     13.2045                 5.7144                 5.7913
 IR Inten    --    211.4910                26.6177                14.3483

                     97                     98                     99
                      A                      A                      A
 Frequencies --   3033.0324              3037.8579              3041.8580
 Red. masses --      1.0707                 1.0614                 1.0489
 Frc consts  --      5.8035                 5.7711                 5.7183
 IR Inten    --     12.5654                13.1833                 7.1600

                    100                    101                    102
                      A                      A                      A
 Frequencies --   3045.4411              3048.6399              3061.0091
 Red. masses --      1.0634                 1.0681                 1.0739
 Frc consts  --      5.8109                 5.8489                 5.9283
 IR Inten    --     74.5732                41.4164                21.1021

                    103                    104                    105
                      A                      A                      A
 Frequencies --   3077.3885              3078.7362              3106.6340
 Red. masses --      1.0926                 1.1013                 1.1016
 Frc consts  --      6.0966                 6.1505                 6.2638
 IR Inten    --     67.2626                40.7731                27.6161

                    106                    107                    108
                      A                      A                      A
 Frequencies --   3113.0936              3123.8405              3140.2601
 Red. masses --      1.1013                 1.0902                 1.0923
 Frc consts  --      6.2886                 6.2679                 6.3461
 IR Inten    --     27.0055                42.3705                 9.1725

                    109                    110                    111
                      A                      A                      A
 Frequencies --   3164.7900              3217.0466              3247.5217
 Red. masses --      1.0881                 1.0915                 1.0957
 Frc consts  --      6.4209                 6.6558                 6.8083
 IR Inten    --      5.6787                 5.8097                 0.3399

                    112                    113                    114
                      A                      A                      A
 Frequencies --   3486.0324              3550.1025              3597.2871
 Red. masses --      1.0468                 1.0747                 1.0978
 Frc consts  --      7.4949                 7.9804                 8.3700
 IR Inten    --     38.8025                16.6036                31.9662

 - Thermochemistry -
 -------------------
 Temperature   298.150 Kelvin.  Pressure   1.00000 Atm.
 Atom     1 has atomic number  6 and mass  12.00000

 Molecular mass:   316.09154 amu.
 Principal axes and moments of inertia in atomic units:
                           1         2         3
     Eigenvalues --  3855.814078961.891389932.82190
           X            0.99986  -0.01690   0.00184
           Y            0.01688   0.99978   0.01255
           Z           -0.00205  -0.01252   0.99992
 This molecule is an asymmetric top.
 Rotational symmetry number  1.
 Warning -- assumption of classical behavior for rotation
           may cause significant error
 Rotational temperatures (Kelvin)      0.02246     0.00966     0.00872
 Rotational constants (GHZ):           0.46806     0.20138     0.18169
 Zero-point vibrational energy     868981.7 (Joules/Mol)
                                  207.69161 (Kcal/Mol)
 Warning -- explicit consideration of  33 degrees of freedom as
           vibrations may cause significant error
 Vibrational temperatures:     30.35    41.40    49.23    61.94    70.55
          (Kelvin)            112.02   139.71   158.83   242.89   253.76
                              275.83   301.07   329.37   358.07   370.15
                              410.82   444.78   465.12   470.96   496.36
                              544.71   575.94   599.97   613.93   629.55
                              662.69   690.36   747.74   760.77   794.80
                              800.84   826.00   858.23   914.11   952.35
                             1004.30  1019.36  1058.99  1102.33  1124.44
                             1151.12  1169.71  1181.23  1267.88  1271.30
                             1292.39  1302.05  1374.18  1395.03  1408.79
                             1433.59  1438.18  1481.38  1512.67  1578.00
                             1586.52  1598.12  1602.33  1624.71  1636.76
                             1648.80  1676.53  1696.96  1706.84  1784.92
                             1792.75  1813.59  1844.45  1877.06  1910.58
                             1918.71  1927.97  1939.06  1948.68  1953.81
                             1981.72  1999.81  2019.96  2029.12  2036.76
                             2052.19  2077.49  2141.37  2163.73  2172.61
                             2179.15  2185.72  2195.12  2200.88  2205.61
                             2223.11  2287.20  2333.58  2530.52  4306.40
                             4339.98  4363.86  4370.80  4376.56  4381.71
                             4386.31  4404.11  4427.68  4429.61  4469.75
                             4479.05  4494.51  4518.13  4553.43  4628.61
                             4672.46  5015.62  5107.81  5175.69

 Zero-point correction=                           0.330978 (Hartree/Particle)
 Thermal correction to Energy=                    0.351202
 Thermal correction to Enthalpy=                  0.352147
 Thermal correction to Gibbs Free Energy=         0.280238
 Sum of electronic and zero-point Energies=          -1638.666572
 Sum of electronic and thermal Energies=             -1638.646347
 Sum of electronic and thermal Enthalpies=           -1638.645403
 Sum of electronic and thermal Free Energies=        -1638.717312

                     E (Thermal)             CV                S
                      KCal/Mol        Cal/Mol-Kelvin    Cal/Mol-Kelvin
 Total                  220.383             77.156            151.345
 Electronic               0.000              0.000              0.000
 Translational            0.889              2.981             43.148
 Rotational               0.889              2.981             34.195
 Vibrational            218.605             71.194             74.002
 Vibration     1          0.593              1.985              6.529
 Vibration     2          0.593              1.984              5.912
 Vibration     3          0.594              1.983              5.568
 Vibration     4          0.595              1.980              5.113
 Vibration     5          0.595              1.978              4.856
 Vibration     6          0.599              1.964              3.944
 Vibration     7          0.603              1.951              3.512
 Vibration     8          0.606              1.941              3.262
 Vibration     9          0.625              1.881              2.449
 Vibration    10          0.628              1.871              2.366
 Vibration    11          0.634              1.851              2.211
 Vibration    12          0.642              1.827              2.050
 Vibration    13          0.652              1.797              1.887
 Vibration    14          0.662              1.765              1.739
 Vibration    15          0.667              1.750              1.680
 Vibration    16          0.683              1.701              1.500
 Vibration    17          0.698              1.656              1.367
 Vibration    18          0.708              1.629              1.293
 Vibration    19          0.711              1.621              1.273
 Vibration    20          0.723              1.585              1.189
 Vibration    21          0.749              1.516              1.045
 Vibration    22          0.766              1.469              0.962
 Vibration    23          0.780              1.433              0.902
 Vibration    24          0.788              1.412              0.870
 Vibration    25          0.798              1.388              0.834
 Vibration    26          0.818              1.337              0.764
 Vibration    27          0.836              1.295              0.711
 Vibration    28          0.875              1.206              0.611
 Vibration    29          0.884              1.186              0.590
 Vibration    30          0.908              1.134              0.539
 Vibration    31          0.912              1.125              0.531
 Vibration    32          0.930              1.087              0.496
 Vibration    33          0.954              1.039              0.456

                           ! Non-Optimized Parameters !
 Normal termination of Gaussian 16 at Sun Dec 13 17:32:35 2020.

 ----------------------------------------------------------------------
 # B3LYP/6-311++G(d,p) empiricaldispersion=gd3bj scf=xqc pop=npa geom=c
 heck
 ----------------------------------------------------------------------

 ---------------------------------------
 CID_79005848_JID_10058_Energie_neutraal
 ---------------------------------------
 Structure from the checkpoint file:  "JID_10058.chk"
 Charge =  0 Multiplicity = 1

 SCF Done:  E(RB3LYP) =  -1639.29566869     A.U. after   16 cycles
 Normal termination of Gaussian 16 at Sun Dec 13 17:42:22 2020.

 ----------------------------------------------------------------------
 # B3LYP/6-311++G(d,p) empiricaldispersion=gd3bj scf=xqc pop=npa geom=c
 heck
 ----------------------------------------------------------------------

 -------------------------------------
 CID_79005848_JID_10058_Energie_kation
 -------------------------------------
 Structure from the checkpoint file:  "JID_10058.chk"
 Charge =  1 Multiplicity = 2

 SCF Done:  E(UB3LYP) =  -1638.98067356     A.U. after   31 cycles
 Normal termination of Gaussian 16 at Sun Dec 13 18:07:34 2020.
 Gaussian 16:  ES64L-G16RevA.03 25-Dec-2016

 ----------------------------------------------------------------------
 # B3LYP/6-311++G(d,p) empiricaldispersion=gd3bj scf=xqc pop=npa geom=c
 heck
 ----------------------------------------------------------------------

 ------------------------------------
 CID_79005848_JID_10058_Energie_anion
 ------------------------------------
 Structure from the checkpoint file:  "JID_10058.chk"
 Charge = -1 Multiplicity = 2

                         Standard orientation:
 ---------------------------------------------------------------------
 Center     Atomic      Atomic             Coordinates (Angstroms)
 Number     Number       Type             X           Y           Z
 ---------------------------------------------------------------------
      1          6           0       -0.344087    2.929217   -0.910284
      2          6           0       -1.723323    2.313821   -0.658785
      3          6           0       -1.936187    1.061648   -1.525414
      4          6           0       -3.260335    0.347483   -1.220440
      5          6           0       -3.472029    0.030705    0.272054
      6          6           0       -3.297615    1.330998    1.085589
      7          6           0       -1.934010    1.979655    0.826226
      8          6           0       -2.723860   -1.110893    0.993544
      9          8           0       -2.800964   -1.174401    2.214401
     10          7           0       -2.111945   -2.180537    0.348282
     11          6           0       -1.412081   -2.291795   -0.918936
     12          6           0       -0.012660   -1.717412   -0.909344
     13          6           0        0.854380   -1.587965   -1.968617
     14          6           0        2.059264   -0.921096   -1.621013
     15          6           0        2.087226   -0.576249   -0.293407
     16         16           0        0.645801   -1.051585    0.554090
     17         16           0        3.285425    0.420092    0.528058
     18          8           0        3.312959    1.765457   -0.048528
     19          8           0        3.069268    0.220695    1.964478
     20          7           0        4.724314   -0.306377    0.007847
     21          1           0        0.459869    2.238700   -0.627642
     22          1           0       -0.207688    3.181731   -1.968843
     23          1           0       -0.207790    3.846491   -0.326129
     24          1           0       -2.491087    3.051592   -0.942855
     25          1           0       -1.905950    1.336863   -2.588008
     26          1           0       -1.090647    0.387085   -1.363318
     27          1           0       -3.393187   -0.540335   -1.848450
     28          1           0       -4.082829    1.019716   -1.501612
     29          1           0       -4.516826   -0.294250    0.386719
     30          1           0       -3.429011    1.110088    2.146284
     31          1           0       -4.093813    2.027007    0.788574
     32          1           0       -1.137377    1.301868    1.163348
     33          1           0       -1.834964    2.892055    1.427479
     34          1           0       -1.796749   -2.837110    1.056267
     35          1           0       -1.367650   -3.358084   -1.171191
     36          1           0       -1.986381   -1.814185   -1.711602
     37          1           0        0.624314   -1.935846   -2.970167
     38          1           0        2.867553   -0.698137   -2.306796
     39          1           0        5.440145    0.416178   -0.053636
     40          1           0        5.005656   -1.041852    0.654463
 ---------------------------------------------------------------------

 SCF Done:  E(UB3LYP) =  -1639.30405141     A.U. after   33 cycles
 SCF Done:  E(UB3LYP) =  -1639.30405141     a.u. after    1 cycles

 The electronic state is 2-A.
 Alpha  occ. eigenvalues --  -88.93896 -88.72963 -18.99109 -18.98987 -18.98313
 Alpha  occ. eigenvalues --  -14.23164 -14.23029 -10.17291 -10.10699 -10.08935
 Alpha  occ. eigenvalues --  -10.07574 -10.06665 -10.06417 -10.05833 -10.05601
 Alpha  occ. eigenvalues --  -10.05435 -10.04948 -10.04606 -10.03886 -10.03784
 Alpha  occ. eigenvalues --   -7.99966  -7.81599  -5.96312  -5.96211  -5.96032
 Alpha  occ. eigenvalues --   -5.77916  -5.77529  -5.77199  -0.99519  -0.93794
 Alpha  occ. eigenvalues --   -0.88491  -0.81437  -0.79876  -0.74453  -0.73865
 Alpha  occ. eigenvalues --   -0.67237  -0.64311  -0.64059  -0.60250  -0.58901
 Alpha  occ. eigenvalues --   -0.57901  -0.52634  -0.51430  -0.51042  -0.47151
 Alpha  occ. eigenvalues --   -0.44549  -0.43660  -0.42083  -0.41614  -0.39364
 Alpha  occ. eigenvalues --   -0.38573  -0.38423  -0.37625  -0.37172  -0.34463
 Alpha  occ. eigenvalues --   -0.33719  -0.33080  -0.32798  -0.31847  -0.31041
 Alpha  occ. eigenvalues --   -0.30845  -0.30087  -0.27926  -0.27701  -0.27405
 Alpha  occ. eigenvalues --   -0.25799  -0.25577  -0.25317  -0.25230  -0.24308
 Alpha  occ. eigenvalues --   -0.24049  -0.23768  -0.21346  -0.20984  -0.20603
 Alpha  occ. eigenvalues --   -0.20087  -0.19777  -0.19723  -0.18414  -0.17778
 Alpha  occ. eigenvalues --   -0.15939  -0.14770  -0.12519  -0.10788   0.04469
 Alpha virt. eigenvalues --    0.06531   0.07277   0.07796   0.08398   0.08933
 Alpha virt. eigenvalues --    0.09930   0.10267   0.10564   0.11182   0.11423
 Alpha virt. eigenvalues --    0.11555   0.12114   0.12777   0.13116   0.13320

  Beta  occ. eigenvalues --  -88.93886 -88.72885 -18.99081 -18.98913 -18.98311
  Beta  occ. eigenvalues --  -14.23144 -14.23021 -10.17291 -10.10740 -10.08935
  Beta  occ. eigenvalues --  -10.07569 -10.06664 -10.06416 -10.05598 -10.05512
  Beta  occ. eigenvalues --  -10.05427 -10.04606 -10.04411 -10.03882 -10.03703
  Beta  occ. eigenvalues --   -7.99955  -7.81529  -5.96288  -5.96181  -5.96033
  Beta  occ. eigenvalues --   -5.77887  -5.77502  -5.76930  -0.99381  -0.93791
  Beta  occ. eigenvalues --   -0.88371  -0.81388  -0.79797  -0.73987  -0.73859
  Beta  occ. eigenvalues --   -0.67229  -0.64243  -0.63607  -0.59907  -0.58641
  Beta  occ. eigenvalues --   -0.57835  -0.52440  -0.51380  -0.50991  -0.47124
  Beta  occ. eigenvalues --   -0.44333  -0.43593  -0.41814  -0.41343  -0.39192
  Beta  occ. eigenvalues --   -0.38430  -0.38223  -0.37527  -0.37100  -0.34428
  Beta  occ. eigenvalues --   -0.33709  -0.32899  -0.32781  -0.31674  -0.30973
  Beta  occ. eigenvalues --   -0.30651  -0.29967  -0.27906  -0.27569  -0.27301
  Beta  occ. eigenvalues --   -0.25646  -0.25442  -0.25239  -0.24977  -0.24071
  Beta  occ. eigenvalues --   -0.23827  -0.23470  -0.21127  -0.20776  -0.20399
  Beta  occ. eigenvalues --   -0.19977  -0.19753  -0.19499  -0.18249  -0.17599
  Beta  occ. eigenvalues --   -0.15885  -0.14704  -0.11304  -0.08634
  Beta virt. eigenvalues --    0.06482   0.07300   0.07819   0.08306   0.08885
  Beta virt. eigenvalues --    0.09815   0.10132   0.10291   0.10980   0.11182
  Beta virt. eigenvalues --    0.11414   0.11654   0.12060   0.12793   0.12984

 Mulliken charges and spin densities:
               1          2
     1  C   -0.735948  -0.017990
     2  C    0.159211  -0.081242
     3  C   -0.400231   0.098746
     4  C   -0.645115   0.031207
     5  C    0.783966  -0.045082
     6  C   -0.760862   0.048942
     7  C   -0.072644  -0.039090
     8  C   -0.458369  -0.125568
     9  O   -0.260330   0.003472
    10  N   -0.194747   0.024057
    11  C   -0.311596  -0.532897
    12  C    0.129092   0.386996
    13  C   -0.290342   0.015198
    14  C   -0.121841   0.256066
    15  C   -1.289531   0.122941
    16  S    0.307994   0.175206
    17  S    0.743440   0.051392
    18  O   -0.131619  -0.000267
    19  O   -0.241145   0.002365
    20  N   -0.374474  -0.014930
    21  H    0.214398  -0.033159
    22  H    0.087256   0.019774
    23  H    0.107495   0.008790
    24  H    0.138267  -0.004924
    25  H    0.092785   0.054653
    26  H    0.459747  -0.045619
    27  H    0.147236  -0.001618
    28  H    0.098543   0.042653
    29  H    0.212578   0.003575
    30  H    0.203408   0.011414
    31  H    0.093633   0.020294
    32  H    0.224254  -0.007162
    33  H    0.161766   0.010490
    34  H    0.240532   0.085148
    35  H   -0.249674   0.443769
    36  H    0.192738  -0.014255
    37  H    0.096345   0.019377
    38  H    0.164511  -0.009519
    39  H    0.227925   0.035457
    40  H    0.251348   0.001342
 Sum of Mulliken charges =  -1.00000   1.00000

 Dipole moment (field-independent basis, Debye):
    X=             -2.4128    Y=              1.1945    Z=             -3.1773  Tot=              4.1646
 Quadrupole moment (field-independent basis, Debye-Ang):
   XX=           -162.6774   YY=           -165.3736   ZZ=           -164.0745
   XY=             -9.9434   XZ=              7.3737   YZ=              0.1754

 Summary of Natural Population Analysis:

                                       Natural Population
                Natural  -----------------------------------------------
    Atom  No    Charge         Core      Valence    Rydberg      Total
 -----------------------------------------------------------------------
      C    1   -0.28484      0.99965     2.27988    0.00530     3.28484
      C    2   -0.10673      0.99961     2.09921    0.00790     3.10673
      C    3   -0.20008      0.99960     2.19108    0.00941     3.20008
      C    4   -0.18808      0.99962     2.18030    0.00817     3.18808
      C    5   -0.14961      0.99954     2.13849    0.01158     3.14961
      C    6   -0.18502      0.99962     2.17815    0.00725     3.18502
      C    7   -0.19558      0.99961     2.18846    0.00751     3.19558
      C    8    0.35101      0.99964     1.62452    0.02484     2.64899
      O    9   -0.32750      0.99988     3.32182    0.00581     4.32750
      N   10   -0.32123      0.99968     2.81155    0.01000     3.82123
      C   11   -0.10316      0.99955     2.09095    0.01265     3.10316
      C   12   -0.02418      0.99950     2.01017    0.01452     3.02418
      C   13   -0.16631      0.99946     2.15544    0.01141     3.16631
      C   14   -0.07632      0.99946     2.06525    0.01162     3.07632
      C   15   -0.21687      0.99938     2.19914    0.01835     3.21687
      S   16    0.25351      4.99933     2.72408    0.02309     7.74649
      S   17    1.10762      4.99916     1.79238    0.10084     6.89238
      O   18   -0.46529      0.99990     3.45981    0.00558     4.46529
      O   19   -0.46811      0.99991     3.46277    0.00543     4.46811
      N   20   -0.51376      0.99979     3.00389    0.01009     4.01376
      H   21    0.11400      0.00000     0.38510    0.00090     0.38600
      H   22    0.09369      0.00000     0.40516    0.00115     0.40631
      H   23    0.09403      0.00000     0.40515    0.00083     0.40597
      H   24    0.08098      0.00000     0.41670    0.00232     0.41902
      H   25    0.09458      0.00000     0.40416    0.00125     0.40542
      H   26    0.11471      0.00000     0.38331    0.00198     0.38529
      H   27    0.09710      0.00000     0.40187    0.00102     0.40290
      H   28    0.09402      0.00000     0.40461    0.00137     0.40598
      H   29    0.10874      0.00000     0.39006    0.00121     0.39126
      H   30    0.11290      0.00000     0.38606    0.00104     0.38710
      H   31    0.08892      0.00000     0.40967    0.00140     0.41108
      H   32    0.11021      0.00000     0.38861    0.00118     0.38979
      H   33    0.09533      0.00000     0.40374    0.00093     0.40467
      H   34    0.19314      0.00000     0.30413    0.00274     0.30686
      H   35    0.10722      0.00000     0.39064    0.00214     0.39278
      H   36    0.10302      0.00000     0.39584    0.00114     0.39698
      H   37    0.09857      0.00000     0.40045    0.00098     0.40143
      H   38    0.10358      0.00000     0.39545    0.00097     0.39642
      H   39    0.18670      0.00000     0.30944    0.00386     0.31330
      H   40    0.18909      0.00000     0.30942    0.00150     0.31091
 =======================================================================
   * Total *   -0.00000     27.99188    55.66690    0.34122    84.00000

 Normal termination of Gaussian 16 at Sun Dec 13 18:35:50 2020.
