 Gaussian 16, Revision A.03,

 -----------------------------------------------------------
 # opt freq B3LYP/6-31G(d) empiricaldispersion=gd3bj scf=xqc
 -----------------------------------------------------------

 -------------------------------
 CID_106973226_JID_6136_neutraal
 -------------------------------
 Symbolic Z-matrix:
 Charge =  0 Multiplicity = 1

 SCF Done:  E(RB3LYP) =  -1047.25346862     A.U. after   14 cycles
 SCF Done:  E(RB3LYP) =  -1047.26129006     A.U. after   13 cycles
 SCF Done:  E(RB3LYP) =  -1047.26426519     A.U. after   14 cycles
 SCF Done:  E(RB3LYP) =  -1047.26546242     A.U. after   12 cycles
 SCF Done:  E(RB3LYP) =  -1047.26591033     A.U. after   13 cycles
 SCF Done:  E(RB3LYP) =  -1047.26645700     A.U. after   12 cycles
 SCF Done:  E(RB3LYP) =  -1047.26673125     A.U. after   12 cycles
 SCF Done:  E(RB3LYP) =  -1047.26702840     A.U. after   13 cycles
 SCF Done:  E(RB3LYP) =  -1047.26728935     A.U. after   12 cycles
 SCF Done:  E(RB3LYP) =  -1047.26761986     A.U. after   11 cycles
 SCF Done:  E(RB3LYP) =  -1047.26992681     A.U. after    9 cycles
 SCF Done:  E(RB3LYP) =  -1047.26993638     A.U. after   10 cycles
 SCF Done:  E(RB3LYP) =  -1047.26993713     A.U. after    8 cycles
 SCF Done:  E(RB3LYP) =  -1047.26993729     A.U. after    8 cycles
 SCF Done:  E(RB3LYP) =  -1047.26993728     A.U. after    8 cycles
 Optimization completed.
    -- Stationary point found.
 Normal termination of Gaussian 16 at Thu Dec 10 21:45:45 2020.

 --------------------------------------------------------------------
 #N Geom=AllCheck Guess=TCheck SCRF=Check GenChk RB3LYP/6-31G(d) Freq
 --------------------------------------------------------------------

 Structure from the checkpoint file:  "JID_6136.chk"
 -------------------------------
 CID_106973226_JID_6136_neutraal
 -------------------------------
 Charge =  0 Multiplicity = 1

 SCF Done:  E(RB3LYP) =  -1047.26993728     A.U. after    1 cycles

  Exact polarizability: 203.637  32.625 140.202  12.139 -12.427 133.316
 Approx polarizability: 266.135  55.441 206.494  27.760 -25.649 227.390

                      1                      2                      3
                      A                      A                      A
 Frequencies --     19.5170                25.0822                40.6907
 Red. masses --      3.9428                 4.3041                 3.9371
 Frc consts  --      0.0009                 0.0016                 0.0038
 IR Inten    --      0.2583                 0.3866                 0.6890

                      4                      5                      6
                      A                      A                      A
 Frequencies --     54.6235                57.2608               117.9244
 Red. masses --      2.7141                 3.6980                 2.3513
 Frc consts  --      0.0048                 0.0071                 0.0193
 IR Inten    --      1.6082                 3.7010                 0.5828

                      7                      8                      9
                      A                      A                      A
 Frequencies --    131.6527               145.1709               166.7113
 Red. masses --      1.4149                 3.6593                 3.7355
 Frc consts  --      0.0144                 0.0454                 0.0612
 IR Inten    --      0.3397                 1.5775                 4.2259

                     10                     11                     12
                      A                      A                      A
 Frequencies --    203.3599               210.4756               265.8997
 Red. masses --      7.3187                 3.6410                 2.9726
 Frc consts  --      0.1783                 0.0950                 0.1238
 IR Inten    --      1.2059                 2.5425                 1.9920

                     13                     14                     15
                      A                      A                      A
 Frequencies --    267.9210               297.1754               339.5269
 Red. masses --      2.9592                 1.9317                 3.2886
 Frc consts  --      0.1252                 0.1005                 0.2234
 IR Inten    --      1.3294                 1.6942                 1.8757

                     16                     17                     18
                      A                      A                      A
 Frequencies --    401.4966               438.1545               449.4330
 Red. masses --      2.4124                 6.0173                 2.4888
 Frc consts  --      0.2291                 0.6806                 0.2962
 IR Inten    --      0.6669                 6.3153                 8.5328

                     19                     20                     21
                      A                      A                      A
 Frequencies --    459.1976               491.5025               510.0197
 Red. masses --      2.1638                 1.9220                 2.5670
 Frc consts  --      0.2688                 0.2736                 0.3934
 IR Inten    --     45.6835                96.8393                13.3397

                     22                     23                     24
                      A                      A                      A
 Frequencies --    577.0706               632.3361               649.2439
 Red. masses --      2.0430                 2.5272                 6.5131
 Frc consts  --      0.4009                 0.5954                 1.6175
 IR Inten    --     38.0873                 4.2983                 9.0974

                     25                     26                     27
                      A                      A                      A
 Frequencies --    664.3182               716.8913               772.2986
 Red. masses --      3.4732                 6.1036                 5.7736
 Frc consts  --      0.9031                 1.8482                 2.0289
 IR Inten    --     14.7945                 2.8493                22.5700

                     28                     29                     30
                      A                      A                      A
 Frequencies --    778.4164               800.0151               830.1655
 Red. masses --      2.8610                 2.6547                 1.8613
 Frc consts  --      1.0214                 1.0011                 0.7558
 IR Inten    --      1.9447                 3.3582                36.0535

                     31                     32                     33
                      A                      A                      A
 Frequencies --    839.3700               858.8601               895.2339
 Red. masses --      2.3599                 2.0566                 2.3179
 Frc consts  --      0.9796                 0.8938                 1.0945
 IR Inten    --     18.1596                57.6926                19.3226

                     34                     35                     36
                      A                      A                      A
 Frequencies --    925.4375               946.4155               962.8689
 Red. masses --      2.2745                 2.5020                 2.2552
 Frc consts  --      1.1477                 1.3204                 1.2319
 IR Inten    --      9.2349                 8.6851                 0.2408

                     37                     38                     39
                      A                      A                      A
 Frequencies --    973.4121               989.4492               998.8810
 Red. masses --      2.0062                 1.4342                 1.1833
 Frc consts  --      1.1200                 0.8273                 0.6956
 IR Inten    --      1.4400                 0.4786                 4.4867

                     40                     41                     42
                      A                      A                      A
 Frequencies --    999.3143              1005.6790              1007.4916
 Red. masses --      5.0529                 1.3447                 1.6751
 Frc consts  --      2.9730                 0.8013                 1.0018
 IR Inten    --     14.2534                 7.9243                 5.2360

                     43                     44                     45
                      A                      A                      A
 Frequencies --   1038.6601              1057.0949              1116.0967
 Red. masses --      1.7325                 1.9840                 2.4356
 Frc consts  --      1.1012                 1.3062                 1.7876
 IR Inten    --      7.5917                13.0758                 2.7409

                     46                     47                     48
                      A                      A                      A
 Frequencies --   1123.2221              1132.9616              1148.1073
 Red. masses --      1.9447                 2.1864                 3.4183
 Frc consts  --      1.4455                 1.6535                 2.6548
 IR Inten    --      4.4105                66.4622               115.2594

                     49                     50                     51
                      A                      A                      A
 Frequencies --   1159.4163              1195.8988              1228.8133
 Red. masses --      2.1335                 1.2466                 1.3761
 Frc consts  --      1.6897                 1.0504                 1.2243
 IR Inten    --      2.8210                 1.3341                 5.5745

                     52                     53                     54
                      A                      A                      A
 Frequencies --   1253.1704              1269.8962              1279.6272
 Red. masses --      1.5273                 1.4603                 1.7116
 Frc consts  --      1.4132                 1.3875                 1.6513
 IR Inten    --      8.1534                 2.6484                 4.7567

                     55                     56                     57
                      A                      A                      A
 Frequencies --   1297.9424              1306.7142              1322.1396
 Red. masses --      1.3076                 1.8217                 2.0430
 Frc consts  --      1.2979                 1.8327                 2.1041
 IR Inten    --     22.2441                 5.0363                44.9078

                     58                     59                     60
                      A                      A                      A
 Frequencies --   1341.1389              1348.5293              1370.3994
 Red. masses --      1.3840                 1.2949                 1.5467
 Frc consts  --      1.4667                 1.3874                 1.7114
 IR Inten    --      0.3885                 1.4156                26.4437

                     61                     62                     63
                      A                      A                      A
 Frequencies --   1382.3259              1389.4475              1395.9349
 Red. masses --      1.4973                 1.2570                 1.5309
 Frc consts  --      1.6857                 1.4298                 1.7576
 IR Inten    --      7.5596                14.7105                31.4197

                     64                     65                     66
                      A                      A                      A
 Frequencies --   1410.3530              1421.8321              1430.7874
 Red. masses --      1.4744                 1.4708                 1.3855
 Frc consts  --      1.7279                 1.7519                 1.6711
 IR Inten    --      4.5358                 6.0667                21.9142

                     67                     68                     69
                      A                      A                      A
 Frequencies --   1457.5774              1487.3778              1496.5776
 Red. masses --      1.3887                 1.0524                 1.1690
 Frc consts  --      1.7382                 1.3718                 1.5426
 IR Inten    --      3.5688                 7.2877                21.1915

                     70                     71                     72
                      A                      A                      A
 Frequencies --   1498.7915              1505.4942              1512.8438
 Red. masses --      1.4188                 1.3207                 1.1262
 Frc consts  --      1.8778                 1.7637                 1.5186
 IR Inten    --     29.6151                82.7326                 5.0867

                     73                     74                     75
                      A                      A                      A
 Frequencies --   1521.7625              1541.5068              1551.7209
 Red. masses --      1.1122                 1.0941                 2.8916
 Frc consts  --      1.5175                 1.5318                 4.1023
 IR Inten    --     18.3412                 3.3367                68.5794

                     76                     77                     78
                      A                      A                      A
 Frequencies --   1556.7803              1599.8944              1643.1135
 Red. masses --      1.1151                 3.8534                 4.7576
 Frc consts  --      1.5923                 5.8114                 7.5678
 IR Inten    --      3.5022                61.1741               945.1223

                     79                     80                     81
                      A                      A                      A
 Frequencies --   2927.6393              2950.9845              3031.1275
 Red. masses --      1.0740                 1.0747                 1.0841
 Frc consts  --      5.4234                 5.5140                 5.8686
 IR Inten    --     94.0731               105.4653                30.5929

                     82                     83                     84
                      A                      A                      A
 Frequencies --   3036.1004              3063.6062              3067.5142
 Red. masses --      1.0664                 1.0687                 1.0630
 Frc consts  --      5.7915                 5.9097                 5.8933
 IR Inten    --     30.6231                41.7468                42.9227

                     85                     86                     87
                      A                      A                      A
 Frequencies --   3073.9782              3084.6169              3090.6292
 Red. masses --      1.0882                 1.0297                 1.0885
 Frc consts  --      6.0584                 5.7725                 6.1261
 IR Inten    --     40.7993                18.1832                39.6071

                     88                     89                     90
                      A                      A                      A
 Frequencies --   3097.2525              3119.7739              3135.3978
 Red. masses --      1.0956                 1.1036                 1.0986
 Frc consts  --      6.1925                 6.3286                 6.3635
 IR Inten    --     34.2371                36.1008                11.9765

                     91                     92                     93
                      A                      A                      A
 Frequencies --   3175.4526              3177.3556              3186.6277
 Red. masses --      1.1045                 1.0907                 1.1080
 Frc consts  --      6.5621                 6.4879                 6.6291
 IR Inten    --     10.3898                34.9976                 3.5695

                     94                     95                     96
                      A                      A                      A
 Frequencies --   3198.9209              3514.4285              3627.4340
 Red. masses --      1.0916                 1.0749                 1.0763
 Frc consts  --      6.5817                 7.8224                 8.3444
 IR Inten    --      4.4470                 1.3549                22.7919

 - Thermochemistry -
 -------------------
 Temperature   298.150 Kelvin.  Pressure   1.00000 Atm.
 Atom     1 has atomic number  6 and mass  12.00000

 Molecular mass:   238.12522 amu.
 Principal axes and moments of inertia in atomic units:
                           1         2         3
     Eigenvalues --  2164.048748023.687538996.47182
           X            0.99997   0.00021   0.00736
           Y           -0.00023   0.99999   0.00381
           Z           -0.00736  -0.00381   0.99997
 This molecule is an asymmetric top.
 Rotational symmetry number  1.
 Warning -- assumption of classical behavior for rotation
           may cause significant error
 Rotational temperatures (Kelvin)      0.04002     0.01079     0.00963
 Rotational constants (GHZ):           0.83397     0.22493     0.20061
 Zero-point vibrational energy     767217.5 (Joules/Mol)
                                  183.36939 (Kcal/Mol)
 Warning -- explicit consideration of  22 degrees of freedom as
           vibrations may cause significant error
 Vibrational temperatures:     28.08    36.09    58.54    78.59    82.39
          (Kelvin)            169.67   189.42   208.87   239.86   292.59
                              302.83   382.57   385.48   427.57   488.50
                              577.66   630.41   646.63   660.68   707.16
                              733.80   830.28   909.79   934.12   955.81
                             1031.45  1111.17  1119.97  1151.04  1194.42
                             1207.67  1235.71  1288.04  1331.50  1361.68
                             1385.35  1400.52  1423.60  1437.17  1437.79
                             1446.95  1449.56  1494.40  1520.92  1605.81
                             1616.07  1630.08  1651.87  1668.14  1720.63
                             1767.99  1803.03  1827.10  1841.10  1867.45
                             1880.07  1902.26  1929.60  1940.23  1971.70
                             1988.86  1999.10  2008.44  2029.18  2045.70
                             2058.58  2097.13  2140.00  2153.24  2156.43
                             2166.07  2176.64  2189.48  2217.88  2232.58
                             2239.86  2301.89  2364.07  4212.22  4245.81
                             4361.12  4368.27  4407.85  4413.47  4422.77
                             4438.08  4446.73  4456.26  4488.66  4511.14
                             4568.77  4571.51  4584.85  4602.53  5056.48
                             5219.07

 Zero-point correction=                           0.292218 (Hartree/Particle)
 Thermal correction to Energy=                    0.308303
 Thermal correction to Enthalpy=                  0.309247
 Thermal correction to Gibbs Free Energy=         0.245541
 Sum of electronic and zero-point Energies=          -1046.977720
 Sum of electronic and thermal Energies=             -1046.961635
 Sum of electronic and thermal Enthalpies=           -1046.960690
 Sum of electronic and thermal Free Energies=        -1047.024396

                     E (Thermal)             CV                S
                      KCal/Mol        Cal/Mol-Kelvin    Cal/Mol-Kelvin
 Total                  193.463             59.593            134.081
 Electronic               0.000              0.000              0.000
 Translational            0.889              2.981             42.304
 Rotational               0.889              2.981             33.412
 Vibrational            191.685             53.631             58.364
 Vibration     1          0.593              1.986              6.683
 Vibration     2          0.593              1.985              6.185
 Vibration     3          0.594              1.981              5.225
 Vibration     4          0.596              1.976              4.643
 Vibration     5          0.596              1.975              4.549
 Vibration     6          0.608              1.934              3.134
 Vibration     7          0.612              1.922              2.922
 Vibration     8          0.617              1.908              2.735
 Vibration     9          0.624              1.883              2.472
 Vibration    10          0.639              1.835              2.102
 Vibration    11          0.643              1.825              2.040
 Vibration    12          0.672              1.736              1.623
 Vibration    13          0.673              1.732              1.610
 Vibration    14          0.691              1.679              1.433
 Vibration    15          0.719              1.597              1.214
 Vibration    16          0.767              1.467              0.957
 Vibration    17          0.798              1.387              0.832
 Vibration    18          0.808              1.362              0.797
 Vibration    19          0.817              1.341              0.768
 Vibration    20          0.847              1.269              0.680
 Vibration    21          0.865              1.228              0.634
 Vibration    22          0.934              1.081              0.491

 Optimization completed.
    -- Stationary point found.
 Normal termination of Gaussian 16 at Thu Dec 10 21:56:04 2020.

 ----------------------------------------------------------------------
 # B3LYP/6-311++G(d,p) empiricaldispersion=gd3bj scf=xqc pop=npa geom=c
 heck
 ----------------------------------------------------------------------

 ---------------------------------------
 CID_106973226_JID_6136_Energie_neutraal
 ---------------------------------------
 Structure from the checkpoint file:  "JID_6136.chk"
 Charge =  0 Multiplicity = 1

 SCF Done:  E(RB3LYP) =  -1047.47631603     A.U. after   15 cycles
 Normal termination of Gaussian 16 at Thu Dec 10 22:00:50 2020.

 ----------------------------------------------------------------------
 # B3LYP/6-311++G(d,p) empiricaldispersion=gd3bj scf=xqc pop=npa geom=c
 heck
 ----------------------------------------------------------------------

 -------------------------------------
 CID_106973226_JID_6136_Energie_kation
 -------------------------------------
 Structure from the checkpoint file:  "JID_6136.chk"
 Charge =  1 Multiplicity = 2

 SCF Done:  E(UB3LYP) =  -1047.19624970     A.U. after   27 cycles
 Normal termination of Gaussian 16 at Thu Dec 10 22:12:19 2020.
 Gaussian 16:  ES64L-G16RevA.03 25-Dec-2016

 ----------------------------------------------------------------------
 # B3LYP/6-311++G(d,p) empiricaldispersion=gd3bj scf=xqc pop=npa geom=c
 heck
 ----------------------------------------------------------------------

 ------------------------------------
 CID_106973226_JID_6136_Energie_anion
 ------------------------------------
 Structure from the checkpoint file:  "JID_6136.chk"
 Charge = -1 Multiplicity = 2

                         Standard orientation:
 ---------------------------------------------------------------------
 Center     Atomic      Atomic             Coordinates (Angstroms)
 Number     Number       Type             X           Y           Z
 ---------------------------------------------------------------------
      1          6           0        4.970728    1.132648    0.721438
      2         16           0        3.804383    1.184253   -0.680172
      3          6           0        2.570603    0.028593   -0.138569
      4          7           0        2.738231   -0.579284    1.049635
      5          6           0        1.767608   -1.428909    1.393258
      6          7           0        0.668404   -1.742371    0.713555
      7          6           0        0.517925   -1.129349   -0.481820
      8          6           0        1.470826   -0.208617   -0.955176
      9          7           0       -0.583817   -1.450648   -1.220253
     10          6           0       -1.726893   -2.160677   -0.653990
     11          6           0       -2.585221   -1.345774    0.322890
     12          6           0       -3.282840   -0.119617   -0.279402
     13          6           0       -2.329750    1.055183   -0.646403
     14          6           0       -3.086411    2.305661   -0.186925
     15          7           0       -3.710551    1.827377    1.044935
     16          6           0       -4.300327    0.528437    0.706936
     17          1           0        5.774531    1.827196    0.465075
     18          1           0        5.368805    0.125867    0.851775
     19          1           0        4.478266    1.448312    1.641762
     20          1           0        1.889951   -1.924832    2.354978
     21          1           0        1.351730    0.290910   -1.911616
     22          1           0       -0.768924   -0.849710   -2.010135
     23          1           0       -2.337052   -2.501244   -1.498716
     24          1           0       -1.341611   -3.045819   -0.143310
     25          1           0       -3.348237   -2.029230    0.720687
     26          1           0       -1.965182   -1.037228    1.172734
     27          1           0       -3.826380   -0.440211   -1.178119
     28          1           0       -2.082436    1.089581   -1.712897
     29          1           0       -1.395363    0.973604   -0.083651
     30          1           0       -2.426785    3.156708    0.013390
     31          1           0       -3.816024    2.614687   -0.961154
     32          1           0       -4.404106    2.477476    1.406651
     33          1           0       -5.285125    0.617086    0.213670
     34          1           0       -4.439540   -0.072201    1.613111
 ---------------------------------------------------------------------

 SCF Done:  E(UB3LYP) =  -1047.46634068     A.U. after   33 cycles
 SCF Done:  E(UB3LYP) =  -1047.46634068     a.u. after    1 cycles

 The electronic state is 2-A.
 Alpha  occ. eigenvalues --  -88.76402 -14.23207 -14.20576 -14.19917 -14.18903
 Alpha  occ. eigenvalues --  -10.15398 -10.14280 -10.13010 -10.11324 -10.10190
 Alpha  occ. eigenvalues --  -10.08260 -10.08057 -10.07421 -10.06719 -10.06292
 Alpha  occ. eigenvalues --  -10.05433  -7.85045  -5.81442  -5.81025  -5.80455
 Alpha  occ. eigenvalues --   -0.89134  -0.84283  -0.81132  -0.77655  -0.71259
 Alpha  occ. eigenvalues --   -0.69051  -0.66981  -0.63133  -0.61114  -0.57903
 Alpha  occ. eigenvalues --   -0.55927  -0.53244  -0.49638  -0.48294  -0.45501
 Alpha  occ. eigenvalues --   -0.44180  -0.42045  -0.40955  -0.37645  -0.36940
 Alpha  occ. eigenvalues --   -0.36377  -0.35947  -0.34958  -0.33943  -0.33278
 Alpha  occ. eigenvalues --   -0.32338  -0.31865  -0.30811  -0.29601  -0.29033
 Alpha  occ. eigenvalues --   -0.26737  -0.25812  -0.25567  -0.24810  -0.24415
 Alpha  occ. eigenvalues --   -0.22672  -0.22034  -0.21296  -0.20458  -0.19888
 Alpha  occ. eigenvalues --   -0.15923  -0.14349  -0.12493  -0.12152   0.04400
 Alpha virt. eigenvalues --    0.06077   0.06211   0.07139   0.07808   0.08408
 Alpha virt. eigenvalues --    0.08434   0.09098   0.09648   0.09880   0.10280
 Alpha virt. eigenvalues --    0.10735   0.10841   0.11607   0.12063   0.12546

  Beta  occ. eigenvalues --  -88.76403 -14.23189 -14.20611 -14.19852 -14.18885
  Beta  occ. eigenvalues --  -10.15408 -10.14193 -10.12889 -10.11323 -10.10175
  Beta  occ. eigenvalues --  -10.08241 -10.08034 -10.07345 -10.06704 -10.06290
  Beta  occ. eigenvalues --  -10.05403  -7.85045  -5.81444  -5.81027  -5.80453
  Beta  occ. eigenvalues --   -0.89034  -0.84230  -0.81101  -0.77548  -0.71199
  Beta  occ. eigenvalues --   -0.69015  -0.66891  -0.63080  -0.61066  -0.57851
  Beta  occ. eigenvalues --   -0.55755  -0.53200  -0.49556  -0.48214  -0.45454
  Beta  occ. eigenvalues --   -0.44111  -0.41989  -0.40866  -0.37580  -0.36901
  Beta  occ. eigenvalues --   -0.36293  -0.35879  -0.34908  -0.33885  -0.33205
  Beta  occ. eigenvalues --   -0.32293  -0.31679  -0.30773  -0.29556  -0.28992
  Beta  occ. eigenvalues --   -0.26700  -0.25740  -0.25510  -0.24718  -0.24382
  Beta  occ. eigenvalues --   -0.22529  -0.21999  -0.21072  -0.20275  -0.19845
  Beta  occ. eigenvalues --   -0.15886  -0.14251  -0.12285  -0.12090
  Beta virt. eigenvalues --    0.06145   0.07037   0.07185   0.08055   0.08161
  Beta virt. eigenvalues --    0.08509   0.08707   0.09290   0.09964   0.10276
  Beta virt. eigenvalues --    0.10394   0.10787   0.11192   0.11855   0.12104

 Mulliken charges and spin densities:
               1          2
     1  C   -0.452589  -0.035315
     2  S   -0.579511  -0.036581
     3  C    0.673742  -0.705226
     4  N    0.010251  -0.018950
     5  C   -0.015925   0.163788
     6  N   -0.137409   0.011106
     7  C   -0.004723  -0.559657
     8  C   -0.498636   0.879336
     9  N    0.089794   0.044600
    10  C    0.023469  -0.677383
    11  C   -0.322551   0.134998
    12  C    0.063465   0.333349
    13  C    0.018307  -0.419425
    14  C    0.471200  -1.040021
    15  N   -0.327745   0.219370
    16  C    0.579047  -1.108157
    17  H    0.140143   0.000937
    18  H    0.191370   0.004201
    19  H    0.189654   0.011371
    20  H    0.158127   0.008857
    21  H   -0.204963   0.411375
    22  H   -0.033156   0.323391
    23  H   -0.457879   0.626073
    24  H    0.237322  -0.034998
    25  H    0.119163  -0.003909
    26  H    0.072902   0.115287
    27  H   -0.078093   0.256704
    28  H   -0.466613   0.614369
    29  H    0.482529  -0.281076
    30  H   -0.105562   0.254400
    31  H   -0.394529   0.535119
    32  H    0.006451   0.236041
    33  H   -0.510130   0.645119
    34  H    0.063080   0.090906
 Sum of Mulliken charges =  -1.00000   1.00000

 Dipole moment (field-independent basis, Debye):
    X=              8.3381    Y=             -2.1768    Z=              3.6129  Tot=              9.3443
 Quadrupole moment (field-independent basis, Debye-Ang):
   XX=           -182.4950   YY=           -139.7236   ZZ=           -142.3266
   XY=             13.3654   XZ=             -8.3584   YZ=              1.1464

 Summary of Natural Population Analysis:

                                       Natural Population
                Natural  -----------------------------------------------
    Atom  No    Charge         Core      Valence    Rydberg      Total
 -----------------------------------------------------------------------
      C    1   -0.34714      0.99962     2.34193    0.00559     3.34714
      S    2    0.11925      4.99954     2.86040    0.02081     7.88075
      C    3    0.05837      0.99948     1.92511    0.01704     2.94163
      N    4   -0.29826      0.99966     2.78635    0.01225     3.79826
      C    5    0.17476      0.99967     1.80793    0.01764     2.82524
      N    6   -0.27460      0.99968     2.76568    0.00925     3.77460
      C    7    0.21665      0.99954     1.76885    0.01497     2.78335
      C    8   -0.16102      0.99944     2.15196    0.00962     3.16102
      N    9   -0.30256      0.99967     2.79246    0.01044     3.80256
      C   10   -0.08721      0.99961     2.07532    0.01228     3.08721
      C   11   -0.19220      0.99960     2.18407    0.00853     3.19220
      C   12   -0.11810      0.99959     2.10632    0.01218     3.11810
      C   13   -0.19529      0.99962     2.18559    0.01008     3.19529
      C   14   -0.08568      0.99963     2.07533    0.01072     3.08568
      N   15   -0.34342      0.99975     2.83210    0.01157     3.84342
      C   16   -0.08252      0.99962     2.07133    0.01157     3.08252
      H   17    0.10138      0.00000     0.39797    0.00066     0.39862
      H   18    0.10807      0.00000     0.39079    0.00113     0.39193
      H   19    0.10881      0.00000     0.38956    0.00163     0.39119
      H   20    0.07754      0.00000     0.42145    0.00101     0.42246
      H   21    0.10872      0.00000     0.38977    0.00151     0.39128
      H   22    0.19484      0.00000     0.30182    0.00334     0.30516
      H   23    0.09626      0.00000     0.40259    0.00115     0.40374
      H   24    0.10395      0.00000     0.39474    0.00131     0.39605
      H   25    0.09593      0.00000     0.40315    0.00092     0.40407
      H   26    0.10475      0.00000     0.39376    0.00150     0.39525
      H   27    0.09853      0.00000     0.39824    0.00323     0.40147
      H   28    0.10224      0.00000     0.39481    0.00295     0.39776
      H   29    0.09921      0.00000     0.39883    0.00195     0.40079
      H   30    0.09306      0.00000     0.40580    0.00114     0.40694
      H   31    0.07872      0.00000     0.41889    0.00239     0.42128
      H   32    0.17495      0.00000     0.32235    0.00271     0.32505
      H   33    0.08251      0.00000     0.41552    0.00197     0.41749
      H   34    0.08951      0.00000     0.40923    0.00126     0.41049
 =======================================================================
   * Total *    0.00000     19.99372    43.77999    0.22629    64.00000

 Normal termination of Gaussian 16 at Thu Dec 10 22:26:11 2020.
