 Gaussian 16, Revision A.03,

 -----------------------------------------------------------
 # opt freq B3LYP/6-31G(d) empiricaldispersion=gd3bj scf=xqc
 -----------------------------------------------------------

 -------------------------------
 CID_44999080_JID_10603_neutraal
 -------------------------------
 Symbolic Z-matrix:
 Charge =  0 Multiplicity = 1

 SCF Done:  E(RB3LYP) =  -897.816613074     A.U. after   15 cycles
 SCF Done:  E(RB3LYP) =  -897.820584643     A.U. after   13 cycles
 SCF Done:  E(RB3LYP) =  -897.821393315     A.U. after   12 cycles
 SCF Done:  E(RB3LYP) =  -897.822308815     A.U. after   13 cycles
 SCF Done:  E(RB3LYP) =  -897.822736033     A.U. after   13 cycles
 SCF Done:  E(RB3LYP) =  -897.823346357     A.U. after   12 cycles
 SCF Done:  E(RB3LYP) =  -897.823579814     A.U. after   12 cycles
 SCF Done:  E(RB3LYP) =  -897.823801428     A.U. after   12 cycles
 SCF Done:  E(RB3LYP) =  -897.823971445     A.U. after   12 cycles
 SCF Done:  E(RB3LYP) =  -897.824121066     A.U. after   12 cycles
 SCF Done:  E(RB3LYP) =  -897.824313270     A.U. after   11 cycles
 SCF Done:  E(RB3LYP) =  -897.824313512     A.U. after    8 cycles
 SCF Done:  E(RB3LYP) =  -897.824313535     A.U. after    8 cycles
 SCF Done:  E(RB3LYP) =  -897.824313584     A.U. after    7 cycles
 SCF Done:  E(RB3LYP) =  -897.824313621     A.U. after    7 cycles
 Optimization completed.
    -- Stationary point found.
 Normal termination of Gaussian 16 at Sat Dec 12 16:08:40 2020.

 --------------------------------------------------------------------
 #N Geom=AllCheck Guess=TCheck SCRF=Check GenChk RB3LYP/6-31G(d) Freq
 --------------------------------------------------------------------

 Structure from the checkpoint file:  "JID_10603.chk"
 -------------------------------
 CID_44999080_JID_10603_neutraal
 -------------------------------
 Charge =  0 Multiplicity = 1

 SCF Done:  E(RB3LYP) =  -897.824313621     A.U. after    1 cycles

  Exact polarizability: 196.991 -21.664 182.145 -16.564 -17.880 147.553
 Approx polarizability: 242.305 -40.825 301.031 -26.096 -39.151 255.031

                      1                      2                      3
                      A                      A                      A
 Frequencies --      8.6776                20.7732                27.3122
 Red. masses --      6.1746                 4.2173                 3.9866
 Frc consts  --      0.0003                 0.0011                 0.0018
 IR Inten    --      0.2957                 0.6050                 1.6500

                      4                      5                      6
                      A                      A                      A
 Frequencies --     34.2796                49.6630                72.3004
 Red. masses --      4.4391                 3.8590                 6.6928
 Frc consts  --      0.0031                 0.0056                 0.0206
 IR Inten    --      1.6485                 0.8349                 2.1113

                      7                      8                      9
                      A                      A                      A
 Frequencies --    103.6126               129.5795               133.1591
 Red. masses --      3.5904                 3.2619                 6.6794
 Frc consts  --      0.0227                 0.0323                 0.0698
 IR Inten    --      0.5711                 0.2777                 0.9527

                     10                     11                     12
                      A                      A                      A
 Frequencies --    149.6908               205.5166               234.4460
 Red. masses --      6.3128                 5.2423                 2.3071
 Frc consts  --      0.0833                 0.1305                 0.0747
 IR Inten    --      5.0554                 4.3030                 1.9098

                     13                     14                     15
                      A                      A                      A
 Frequencies --    238.8036               279.9676               296.7114
 Red. masses --      2.8962                 3.1589                 3.6548
 Frc consts  --      0.0973                 0.1459                 0.1896
 IR Inten    --      2.1842                 4.2565                 3.2730

                     16                     17                     18
                      A                      A                      A
 Frequencies --    321.5395               357.8462               362.3788
 Red. masses --      2.9523                 2.2475                 3.5582
 Frc consts  --      0.1798                 0.1696                 0.2753
 IR Inten    --      0.7198                 1.7640                11.0289

                     19                     20                     21
                      A                      A                      A
 Frequencies --    400.8811               424.4886               439.0417
 Red. masses --      6.5051                 3.4115                 2.7865
 Frc consts  --      0.6159                 0.3622                 0.3165
 IR Inten    --      0.2280                 1.8565                 1.4018

                     22                     23                     24
                      A                      A                      A
 Frequencies --    442.1312               493.5882               495.6058
 Red. masses --      3.1195                 4.1935                 3.8463
 Frc consts  --      0.3593                 0.6019                 0.5566
 IR Inten    --      5.5813                14.0316                 0.5899

                     25                     26                     27
                      A                      A                      A
 Frequencies --    537.8294               564.1937               620.1953
 Red. masses --      4.0178                 2.4762                 1.5068
 Frc consts  --      0.6847                 0.4644                 0.3415
 IR Inten    --     65.0321                 7.3654                57.2493

                     28                     29                     30
                      A                      A                      A
 Frequencies --    623.3403               631.6569               663.9616
 Red. masses --      2.1875                 4.3801                 1.9125
 Frc consts  --      0.5008                 1.0297                 0.4968
 IR Inten    --      0.1893                11.9713                38.9814

                     31                     32                     33
                      A                      A                      A
 Frequencies --    676.4165               727.1805               736.5254
 Red. masses --      2.2161                 2.5107                 4.8511
 Frc consts  --      0.5974                 0.7822                 1.5505
 IR Inten    --     34.7399                17.4672                 6.2445

                     34                     35                     36
                      A                      A                      A
 Frequencies --    767.5651               781.3094               805.2693
 Red. masses --      2.5401                 4.3245                 7.9748
 Frc consts  --      0.8817                 1.5554                 3.0469
 IR Inten    --     18.6370                56.2470                 8.6812

                     37                     38                     39
                      A                      A                      A
 Frequencies --    825.6016               831.1353               845.0221
 Red. masses --      1.3427                 1.5352                 1.7840
 Frc consts  --      0.5392                 0.6248                 0.7506
 IR Inten    --      7.4397                15.1799                 1.9945

                     40                     41                     42
                      A                      A                      A
 Frequencies --    871.4543               903.8125               920.3805
 Red. masses --      2.1143                 2.6449                 2.3969
 Frc consts  --      0.9460                 1.2730                 1.1963
 IR Inten    --      1.4878                30.6414                 1.8193

                     43                     44                     45
                      A                      A                      A
 Frequencies --    931.9959               936.8799               950.7112
 Red. masses --      1.5490                 2.1073                 1.3546
 Frc consts  --      0.7927                 1.0898                 0.7214
 IR Inten    --      4.9975                 2.1376                 6.8569

                     46                     47                     48
                      A                      A                      A
 Frequencies --    959.5429               969.7343              1007.6603
 Red. masses --      2.3414                 1.4285                 2.4428
 Frc consts  --      1.2702                 0.7915                 1.4614
 IR Inten    --      1.1894                 3.3951                 3.3714

                     49                     50                     51
                      A                      A                      A
 Frequencies --   1010.9207              1043.4619              1047.6093
 Red. masses --      1.3179                 4.2243                 1.7426
 Frc consts  --      0.7935                 2.7099                 1.1268
 IR Inten    --      8.6087                 9.6622                 2.8503

                     52                     53                     54
                      A                      A                      A
 Frequencies --   1074.9055              1079.3676              1108.7473
 Red. masses --      2.1322                 2.4301                 1.9018
 Frc consts  --      1.4515                 1.6681                 1.3775
 IR Inten    --      1.5601                 0.8254                 0.6745

                     55                     56                     57
                      A                      A                      A
 Frequencies --   1111.9644              1135.2849              1158.1176
 Red. masses --      1.6422                 2.5256                 1.5020
 Frc consts  --      1.1963                 1.9179                 1.1869
 IR Inten    --      5.1302                13.8944                14.6844

                     58                     59                     60
                      A                      A                      A
 Frequencies --   1173.4269              1180.5665              1212.1447
 Red. masses --      1.5082                 1.8456                 1.3763
 Frc consts  --      1.2235                 1.5155                 1.1914
 IR Inten    --      6.4720                 0.8709                 5.0181

                     61                     62                     63
                      A                      A                      A
 Frequencies --   1227.7340              1242.6729              1260.3766
 Red. masses --      1.9107                 1.1880                 1.7766
 Frc consts  --      1.6969                 1.0809                 1.6628
 IR Inten    --     11.1195                20.6079                40.6830

                     64                     65                     66
                      A                      A                      A
 Frequencies --   1277.9098              1285.8065              1306.8854
 Red. masses --      1.3453                 1.2971                 3.1417
 Frc consts  --      1.2944                 1.2635                 3.1615
 IR Inten    --     36.6350                 4.9744               206.0469

                     67                     68                     69
                      A                      A                      A
 Frequencies --   1311.8374              1332.7186              1355.5293
 Red. masses --      1.1812                 3.8823                 1.2960
 Frc consts  --      1.1977                 4.0627                 1.4031
 IR Inten    --      2.7127               133.9599                 3.6207

                     70                     71                     72
                      A                      A                      A
 Frequencies --   1375.2415              1380.8690              1384.8620
 Red. masses --      1.4009                 1.4188                 1.3429
 Frc consts  --      1.5610                 1.5940                 1.5174
 IR Inten    --     10.0549                 4.9379                15.7621

                     73                     74                     75
                      A                      A                      A
 Frequencies --   1389.6806              1397.9982              1404.7628
 Red. masses --      1.3818                 1.7367                 1.4974
 Frc consts  --      1.5723                 1.9998                 1.7410
 IR Inten    --      3.9900                 5.4435                 5.4753

                     76                     77                     78
                      A                      A                      A
 Frequencies --   1423.4878              1441.0216              1457.0586
 Red. masses --      1.6949                 1.7671                 2.1450
 Frc consts  --      2.0235                 2.1620                 2.6831
 IR Inten    --      1.0917                 6.2815                33.3570

                     79                     80                     81
                      A                      A                      A
 Frequencies --   1497.8749              1502.9138              1507.5989
 Red. masses --      2.2449                 1.1063                 1.1107
 Frc consts  --      2.9676                 1.4723                 1.4874
 IR Inten    --    112.5203                 7.7828                 4.6513

                     82                     83                     84
                      A                      A                      A
 Frequencies --   1510.6438              1520.4840              1523.6646
 Red. masses --      1.0838                 1.0892                 2.6287
 Frc consts  --      1.4572                 1.4836                 3.5956
 IR Inten    --      7.0410                 4.2565               106.0260

                     85                     86                     87
                      A                      A                      A
 Frequencies --   1530.9353              1531.4208              1539.2425
 Red. masses --      1.1301                 2.1533                 1.0852
 Frc consts  --      1.5605                 2.9754                 1.5148
 IR Inten    --      7.3035                41.9393                22.3240

                     88                     89                     90
                      A                      A                      A
 Frequencies --   1633.9081              1648.2277              1741.2162
 Red. masses --      5.2546                 5.6135                 6.7259
 Frc consts  --      8.2651                 8.9850                12.0144
 IR Inten    --     11.2845                25.2118                13.1206

                     91                     92                     93
                      A                      A                      A
 Frequencies --   1764.1162              1775.8730              3008.8897
 Red. masses --      9.3655                 8.1524                 1.0697
 Frc consts  --     17.1726                15.1482                 5.7060
 IR Inten    --    644.1490               244.0204                22.7396

                     94                     95                     96
                      A                      A                      A
 Frequencies --   3011.0397              3033.9872              3039.4032
 Red. masses --      1.0698                 1.0692                 1.0656
 Frc consts  --      5.7144                 5.7985                 5.8001
 IR Inten    --     24.9152                17.4613                 9.2473

                     97                     98                     99
                      A                      A                      A
 Frequencies --   3043.0479              3055.1603              3057.0313
 Red. masses --      1.0625                 1.0805                 1.0876
 Frc consts  --      5.7970                 5.9421                 5.9886
 IR Inten    --     29.3707                15.3058                57.5766

                    100                    101                    102
                      A                      A                      A
 Frequencies --   3062.8600              3087.3179              3090.1416
 Red. masses --      1.0741                 1.0960                 1.1048
 Frc consts  --      5.9368                 6.1550                 6.2155
 IR Inten    --     34.7426                61.4780                46.0377

                    103                    104                    105
                      A                      A                      A
 Frequencies --   3094.0377              3113.1381              3145.0955
 Red. masses --      1.0985                 1.1020                 1.0891
 Frc consts  --      6.1959                 6.2924                 6.3473
 IR Inten    --     22.5520                30.7044                27.6106

                    106                    107                    108
                      A                      A                      A
 Frequencies --   3150.2596              3181.9929              3211.6235
 Red. masses --      1.0899                 1.0892                 1.0938
 Frc consts  --      6.3731                 6.4974                 6.6474
 IR Inten    --     27.1492                17.3209                17.4863

                    109                    110                    111
                      A                      A                      A
 Frequencies --   3248.2906              3548.0383              3561.2902
 Red. masses --      1.0941                 1.0754                 1.0750
 Frc consts  --      6.8016                 7.9760                 8.0329
 IR Inten    --     16.1935               104.3874                27.8734

 - Thermochemistry -
 -------------------
 Temperature   298.150 Kelvin.  Pressure   1.00000 Atm.
 Atom     1 has atomic number  6 and mass  12.00000

 Molecular mass:   273.14773 amu.
 Principal axes and moments of inertia in atomic units:
                           1         2         3
     Eigenvalues --  2727.91574********************
           X            1.00000   0.00061  -0.00050
           Y           -0.00063   0.99853  -0.05418
           Z            0.00047   0.05418   0.99853
 This molecule is an asymmetric top.
 Rotational symmetry number  1.
 Warning -- assumption of classical behavior for rotation
           may cause significant error
 Rotational temperatures (Kelvin)      0.03175     0.00705     0.00658
 Rotational constants (GHZ):           0.66158     0.14697     0.13708
 Zero-point vibrational energy     863554.9 (Joules/Mol)
                                  206.39457 (Kcal/Mol)
 Warning -- explicit consideration of  27 degrees of freedom as
           vibrations may cause significant error
 Vibrational temperatures:     12.49    29.89    39.30    49.32    71.45
          (Kelvin)            104.02   149.08   186.44   191.59   215.37
                              295.69   337.32   343.59   402.81   426.90
                              462.62   514.86   521.38   576.78   610.74
                              631.68   636.13   710.16   713.07   773.82
                              811.75   892.32   896.85   908.81   955.29
                              973.21  1046.25  1059.70  1104.35  1124.13
                             1158.60  1187.86  1195.82  1215.80  1253.83
                             1300.38  1324.22  1340.93  1347.96  1367.86
                             1380.57  1395.23  1449.80  1454.49  1501.31
                             1507.28  1546.55  1552.97  1595.24  1599.87
                             1633.42  1666.27  1688.30  1698.57  1744.01
                             1766.44  1787.93  1813.40  1838.63  1849.99
                             1880.32  1887.44  1917.48  1950.30  1978.67
                             1986.76  1992.51  1999.44  2011.41  2021.14
                             2048.08  2073.31  2096.38  2155.11  2162.36
                             2169.10  2173.48  2187.64  2192.21  2202.67
                             2203.37  2214.63  2350.83  2371.43  2505.22
                             2538.17  2555.09  4329.12  4332.21  4365.23
                             4373.02  4378.27  4395.69  4398.39  4406.77
                             4441.96  4446.02  4451.63  4479.11  4525.09
                             4532.52  4578.18  4620.81  4673.57  5104.84
                             5123.90

 Zero-point correction=                           0.328911 (Hartree/Particle)
 Thermal correction to Energy=                    0.347455
 Thermal correction to Enthalpy=                  0.348400
 Thermal correction to Gibbs Free Energy=         0.277787
 Sum of electronic and zero-point Energies=           -897.495403
 Sum of electronic and thermal Energies=              -897.476858
 Sum of electronic and thermal Enthalpies=            -897.475914
 Sum of electronic and thermal Free Energies=         -897.546526

                     E (Thermal)             CV                S
                      KCal/Mol        Cal/Mol-Kelvin    Cal/Mol-Kelvin
 Total                  218.032             70.080            148.616
 Electronic               0.000              0.000              0.000
 Translational            0.889              2.981             42.713
 Rotational               0.889              2.981             34.444
 Vibrational            216.254             64.118             71.459
 Vibration     1          0.593              1.987              8.293
 Vibration     2          0.593              1.986              6.559
 Vibration     3          0.593              1.984              6.016
 Vibration     4          0.594              1.983              5.565
 Vibration     5          0.595              1.978              4.831
 Vibration     6          0.598              1.967              4.090
 Vibration     7          0.605              1.946              3.385
 Vibration     8          0.612              1.924              2.952
 Vibration     9          0.613              1.920              2.900
 Vibration    10          0.618              1.903              2.676
 Vibration    11          0.640              1.832              2.083
 Vibration    12          0.654              1.788              1.845
 Vibration    13          0.657              1.781              1.812
 Vibration    14          0.680              1.711              1.534
 Vibration    15          0.690              1.680              1.435
 Vibration    16          0.707              1.632              1.302
 Vibration    17          0.733              1.559              1.131
 Vibration    18          0.736              1.550              1.112
 Vibration    19          0.767              1.468              0.959
 Vibration    20          0.786              1.417              0.877
 Vibration    21          0.799              1.385              0.830
 Vibration    22          0.802              1.378              0.820
 Vibration    23          0.849              1.264              0.674
 Vibration    24          0.851              1.260              0.669
 Vibration    25          0.893              1.166              0.570
 Vibration    26          0.920              1.109              0.516
 Vibration    27          0.980              0.989              0.416

 Optimization completed on the basis of negligible forces.
    -- Stationary point found.
 Normal termination of Gaussian 16 at Sat Dec 12 16:25:50 2020.

 ----------------------------------------------------------------------
 # B3LYP/6-311++G(d,p) empiricaldispersion=gd3bj scf=xqc pop=npa geom=c
 heck
 ----------------------------------------------------------------------

 ---------------------------------------
 CID_44999080_JID_10603_Energie_neutraal
 ---------------------------------------
 Structure from the checkpoint file:  "JID_10603.chk"
 Charge =  0 Multiplicity = 1

 SCF Done:  E(RB3LYP) =  -898.076152584     A.U. after   15 cycles
 Normal termination of Gaussian 16 at Sat Dec 12 16:32:55 2020.

 ----------------------------------------------------------------------
 # B3LYP/6-311++G(d,p) empiricaldispersion=gd3bj scf=xqc pop=npa geom=c
 heck
 ----------------------------------------------------------------------

 -------------------------------------
 CID_44999080_JID_10603_Energie_kation
 -------------------------------------
 Structure from the checkpoint file:  "JID_10603.chk"
 Charge =  1 Multiplicity = 2

 SCF Done:  E(UB3LYP) =  -897.771620188     A.U. after   28 cycles
 Normal termination of Gaussian 16 at Sat Dec 12 16:51:46 2020.
 Gaussian 16:  ES64L-G16RevA.03 25-Dec-2016

 ----------------------------------------------------------------------
 # B3LYP/6-311++G(d,p) empiricaldispersion=gd3bj scf=xqc pop=npa geom=c
 heck
 ----------------------------------------------------------------------

 ------------------------------------
 CID_44999080_JID_10603_Energie_anion
 ------------------------------------
 Structure from the checkpoint file:  "JID_10603.chk"
 Charge = -1 Multiplicity = 2

                         Standard orientation:
 ---------------------------------------------------------------------
 Center     Atomic      Atomic             Coordinates (Angstroms)
 Number     Number       Type             X           Y           Z
 ---------------------------------------------------------------------
      1          6           0       -5.572917   -0.953215    0.377123
      2          6           0       -5.086631    0.498917    0.401669
      3          6           0       -4.102319    0.757758   -0.745416
      4          6           0       -3.058004   -0.330676   -0.875746
      5          6           0       -3.200320   -1.520763   -0.272553
      6          6           0       -4.394393   -1.919345    0.557196
      7          6           0       -1.830205   -0.005285   -1.693928
      8          6           0       -0.882609    0.973560   -0.980047
      9          7           0       -0.478214    0.411742    0.303441
     10          6           0        0.591608    0.760734    1.050877
     11          8           0        0.808243    0.331901    2.181275
     12          6           0        1.494910    1.833604    0.430419
     13          8           0        1.062958    2.969456    0.287723
     14          7           0        2.785048    1.508913    0.094674
     15          6           0        3.428405    0.251379   -0.003260
     16          6           0        4.235524    0.009871   -1.124969
     17          7           0        4.923501   -1.114662   -1.318457
     18          6           0        4.817164   -2.070008   -0.385470
     19          6           0        4.045026   -1.926475    0.766404
     20          6           0        3.345791   -0.740637    0.978048
     21          1           0       -6.325593   -1.125741    1.154797
     22          1           0       -6.059496   -1.151475   -0.587653
     23          1           0       -5.930993    1.194497    0.335879
     24          1           0       -4.585389    0.696477    1.359143
     25          1           0       -4.647456    0.837893   -1.699129
     26          1           0       -3.612742    1.730924   -0.607239
     27          1           0       -2.416178   -2.268639   -0.394384
     28          1           0       -4.101944   -1.961914    1.617975
     29          1           0       -4.696727   -2.942249    0.295967
     30          1           0       -1.278646   -0.923513   -1.925291
     31          1           0       -2.122289    0.452156   -2.648784
     32          1           0        0.005298    1.139069   -1.596662
     33          1           0       -1.359923    1.950113   -0.836451
     34          1           0       -1.157847   -0.178939    0.774045
     35          1           0        3.263597    2.292865   -0.337761
     36          1           0        4.324984    0.774614   -1.897233
     37          1           0        5.377913   -2.984011   -0.568816
     38          1           0        4.003907   -2.724149    1.501690
     39          1           0        2.751404   -0.577300    1.868232
 ---------------------------------------------------------------------

 SCF Done:  E(UB3LYP) =  -898.075573655     A.U. after   33 cycles
 SCF Done:  E(UB3LYP) =  -898.075573655     a.u. after    1 cycles

 The electronic state is 2-A.
 Alpha  occ. eigenvalues --  -18.99185 -18.98876 -14.25270 -14.23978 -14.19501
 Alpha  occ. eigenvalues --  -10.17272 -10.16946 -10.12008 -10.11389 -10.10158
 Alpha  occ. eigenvalues --  -10.09123 -10.09021 -10.08784 -10.08319 -10.08277
 Alpha  occ. eigenvalues --  -10.07814 -10.07700 -10.07698 -10.07496 -10.06404
 Alpha  occ. eigenvalues --   -0.95520  -0.92883  -0.84934  -0.83285  -0.82315
 Alpha  occ. eigenvalues --   -0.75457  -0.69619  -0.69047  -0.65676  -0.65384
 Alpha  occ. eigenvalues --   -0.63720  -0.57761  -0.55621  -0.53628  -0.53258
 Alpha  occ. eigenvalues --   -0.52850  -0.50063  -0.47373  -0.44386  -0.42557
 Alpha  occ. eigenvalues --   -0.41471  -0.40467  -0.39977  -0.39322  -0.37477
 Alpha  occ. eigenvalues --   -0.36690  -0.35211  -0.34388  -0.34324  -0.33682
 Alpha  occ. eigenvalues --   -0.33141  -0.32214  -0.31901  -0.31205  -0.30426
 Alpha  occ. eigenvalues --   -0.30077  -0.29275  -0.28803  -0.28114  -0.28045
 Alpha  occ. eigenvalues --   -0.27211  -0.26577  -0.24303  -0.23273  -0.22034
 Alpha  occ. eigenvalues --   -0.21571  -0.19879  -0.17871  -0.16551  -0.15599
 Alpha  occ. eigenvalues --   -0.15323  -0.14536  -0.13218   0.03855
 Alpha virt. eigenvalues --    0.05104   0.06799   0.07093   0.07262   0.07675
 Alpha virt. eigenvalues --    0.07988   0.08307   0.08684   0.08952   0.09673
 Alpha virt. eigenvalues --    0.09991   0.10292   0.10739   0.10888   0.11480

  Beta  occ. eigenvalues --  -18.99019 -18.98770 -14.25313 -14.23962 -14.19273
  Beta  occ. eigenvalues --  -10.17222 -10.16769 -10.12007 -10.11314 -10.10187
  Beta  occ. eigenvalues --  -10.09121 -10.08908 -10.08768 -10.08307 -10.08267
  Beta  occ. eigenvalues --  -10.07797 -10.07675 -10.07667 -10.07539 -10.06171
  Beta  occ. eigenvalues --   -0.95265  -0.92669  -0.84755  -0.83213  -0.82080
  Beta  occ. eigenvalues --   -0.75413  -0.69582  -0.68718  -0.65628  -0.65195
  Beta  occ. eigenvalues --   -0.63675  -0.57436  -0.55583  -0.53464  -0.53209
  Beta  occ. eigenvalues --   -0.52630  -0.50004  -0.47215  -0.44297  -0.42495
  Beta  occ. eigenvalues --   -0.41358  -0.40334  -0.39911  -0.39180  -0.37301
  Beta  occ. eigenvalues --   -0.36642  -0.35125  -0.34292  -0.34229  -0.33616
  Beta  occ. eigenvalues --   -0.33033  -0.32099  -0.31683  -0.30934  -0.30341
  Beta  occ. eigenvalues --   -0.29898  -0.28793  -0.28595  -0.27981  -0.27935
  Beta  occ. eigenvalues --   -0.27098  -0.26400  -0.24260  -0.23238  -0.21994
  Beta  occ. eigenvalues --   -0.20858  -0.19633  -0.17080  -0.16300  -0.15324
  Beta  occ. eigenvalues --   -0.15159  -0.14315  -0.12714
  Beta virt. eigenvalues --    0.05817   0.07032   0.07418   0.07596   0.07665
  Beta virt. eigenvalues --    0.07950   0.08195   0.08537   0.09053   0.09239
  Beta virt. eigenvalues --    0.09865   0.10175   0.10451   0.10853   0.10925

 Mulliken charges and spin densities:
               1          2
     1  C   -0.043233  -0.321838
     2  C   -0.130057  -0.211241
     3  C   -0.088482  -0.210046
     4  C    0.640673   0.190221
     5  C   -0.734844   0.559492
     6  C    0.392920  -1.031641
     7  C   -0.471979  -0.391120
     8  C   -0.208891  -0.130870
     9  N   -0.004351   0.004434
    10  C    0.225336   0.030299
    11  O   -0.287839   0.029531
    12  C   -0.453227   0.168422
    13  O   -0.296961   0.056277
    14  N   -0.076644  -0.022492
    15  C   -0.236256   0.042238
    16  C   -0.374617  -0.056612
    17  N   -0.108479   0.098149
    18  C   -0.458750   0.085153
    19  C   -0.214449  -0.022494
    20  C    0.404861   0.224438
    21  H   -0.296116   0.456750
    22  H   -0.050065   0.191280
    23  H   -0.232885   0.405051
    24  H    0.058935   0.079650
    25  H   -0.194711   0.377064
    26  H    0.171641  -0.042005
    27  H    0.073293   0.100409
    28  H    0.046265   0.106113
    29  H   -0.050843   0.193030
    30  H    0.096584   0.077438
    31  H    0.080820   0.097382
    32  H    0.198234  -0.020989
    33  H    0.180255   0.013161
    34  H    0.492859  -0.106333
    35  H    0.274459   0.000650
    36  H    0.135282   0.000127
    37  H    0.126540  -0.008553
    38  H    0.149678   0.003695
    39  H    0.265045  -0.014219
 Sum of Mulliken charges =  -1.00000   1.00000

 Dipole moment (field-independent basis, Debye):
    X=              1.5247    Y=             -0.2978    Z=             -1.5561  Tot=              2.1988
 Quadrupole moment (field-independent basis, Debye-Ang):
   XX=           -233.4953   YY=           -149.1501   ZZ=           -147.9298
   XY=              1.7198   XZ=              3.9394   YZ=             -7.7493

 Summary of Natural Population Analysis:

                                       Natural Population
                Natural  -----------------------------------------------
    Atom  No    Charge         Core      Valence    Rydberg      Total
 -----------------------------------------------------------------------
      C    1   -0.18805      0.99964     2.18042    0.00800     3.18805
      C    2   -0.18848      0.99964     2.17954    0.00930     3.18848
      C    3   -0.20493      0.99958     2.19603    0.00933     3.20493
      C    4   -0.01165      0.99948     2.00136    0.01081     3.01165
      C    5   -0.09473      0.99945     2.08616    0.00913     3.09473
      C    6   -0.20479      0.99962     2.19543    0.00975     3.20479
      C    7   -0.20377      0.99958     2.19410    0.01008     3.20377
      C    8   -0.08293      0.99962     2.07432    0.00900     3.08293
      N    9   -0.31242      0.99966     2.80444    0.00832     3.81242
      C   10    0.31595      0.99964     1.66144    0.02297     2.68405
      O   11   -0.31082      0.99988     3.30516    0.00579     4.31082
      C   12    0.33126      0.99965     1.64621    0.02288     2.66874
      O   13   -0.30175      0.99988     3.29549    0.00638     4.30175
      N   14   -0.31388      0.99965     2.80331    0.01093     3.81388
      C   15    0.06199      0.99946     1.92946    0.00909     2.93801
      C   16    0.00642      0.99956     1.97971    0.01431     2.99358
      N   17   -0.20847      0.99971     2.69581    0.01294     3.70847
      C   18    0.02987      0.99960     1.95516    0.01537     2.97013
      C   19   -0.12737      0.99957     2.11952    0.00827     3.12737
      C   20   -0.05789      0.99953     2.05016    0.00820     3.05789
      H   21    0.09941      0.00000     0.39941    0.00117     0.40059
      H   22    0.09519      0.00000     0.40326    0.00156     0.40481
      H   23    0.10001      0.00000     0.39897    0.00102     0.39999
      H   24    0.09458      0.00000     0.40422    0.00120     0.40542
      H   25    0.10251      0.00000     0.39606    0.00143     0.39749
      H   26    0.10148      0.00000     0.39730    0.00122     0.39852
      H   27    0.09577      0.00000     0.40303    0.00120     0.40423
      H   28    0.10044      0.00000     0.39833    0.00123     0.39956
      H   29    0.10137      0.00000     0.39772    0.00091     0.39863
      H   30    0.10339      0.00000     0.39543    0.00118     0.39661
      H   31    0.10312      0.00000     0.39597    0.00092     0.39688
      H   32    0.10109      0.00000     0.39775    0.00116     0.39891
      H   33    0.09487      0.00000     0.40369    0.00143     0.40513
      H   34    0.19692      0.00000     0.29931    0.00377     0.30308
      H   35    0.19344      0.00000     0.30449    0.00207     0.30656
      H   36    0.08319      0.00000     0.41541    0.00139     0.41681
      H   37    0.08237      0.00000     0.41636    0.00127     0.41763
      H   38    0.09814      0.00000     0.40078    0.00109     0.40186
      H   39    0.11915      0.00000     0.37944    0.00141     0.38085
 =======================================================================
   * Total *    0.00000     19.99239    52.76015    0.24746    73.00000

 Normal termination of Gaussian 16 at Sat Dec 12 17:12:53 2020.
