 Gaussian 16, Revision A.03,

 -----------------------------------------------------------
 # opt freq B3LYP/6-31G(d) empiricaldispersion=gd3bj scf=xqc
 -----------------------------------------------------------

 -------------------------------
 CID_130859111_JID_4400_neutraal
 -------------------------------
 Symbolic Z-matrix:
 Charge =  0 Multiplicity = 1

 SCF Done:  E(RB3LYP) =  -687.780628794     A.U. after   15 cycles
 SCF Done:  E(RB3LYP) =  -687.781233070     A.U. after   14 cycles
 SCF Done:  E(RB3LYP) =  -687.789736831     A.U. after   13 cycles
 SCF Done:  E(RB3LYP) =  -687.790129427     A.U. after   12 cycles
 SCF Done:  E(RB3LYP) =  -687.791882781     A.U. after   13 cycles
 SCF Done:  E(RB3LYP) =  -687.791455185     A.U. after   12 cycles
 SCF Done:  E(RB3LYP) =  -687.793580570     A.U. after   12 cycles
 SCF Done:  E(RB3LYP) =  -687.794435026     A.U. after   11 cycles
 SCF Done:  E(RB3LYP) =  -687.794877780     A.U. after   12 cycles
 SCF Done:  E(RB3LYP) =  -687.795000855     A.U. after   11 cycles
 SCF Done:  E(RB3LYP) =  -687.795140019     A.U. after   10 cycles
 SCF Done:  E(RB3LYP) =  -687.795146388     A.U. after    9 cycles
 SCF Done:  E(RB3LYP) =  -687.795146427     A.U. after    8 cycles
 SCF Done:  E(RB3LYP) =  -687.795146334     A.U. after    8 cycles
 SCF Done:  E(RB3LYP) =  -687.795146494     A.U. after    7 cycles
 Optimization completed.
    -- Stationary point found.
 Normal termination of Gaussian 16 at Thu Dec 10 09:37:45 2020.

 --------------------------------------------------------------------
 #N Geom=AllCheck Guess=TCheck SCRF=Check GenChk RB3LYP/6-31G(d) Freq
 --------------------------------------------------------------------

 Structure from the checkpoint file:  "JID_4400.chk"
 -------------------------------
 CID_130859111_JID_4400_neutraal
 -------------------------------
 Charge =  0 Multiplicity = 1

 SCF Done:  E(RB3LYP) =  -687.795146494     A.U. after    1 cycles

  Exact polarizability: 129.083   4.618 109.846   0.309   4.342 100.068
 Approx polarizability: 192.362   6.009 147.572  10.352   6.423 151.113

                      1                      2                      3
                      A                      A                      A
 Frequencies --     64.3311                78.0428                88.3400
 Red. masses --      4.5744                 3.4197                 3.5092
 Frc consts  --      0.0112                 0.0123                 0.0161
 IR Inten    --      3.5441                 0.5507                 0.8429

                      4                      5                      6
                      A                      A                      A
 Frequencies --    105.3280               120.1889               134.9904
 Red. masses --      4.1732                 4.6416                 4.6428
 Frc consts  --      0.0273                 0.0395                 0.0498
 IR Inten    --      0.4077                 6.8365                 2.2293

                      7                      8                      9
                      A                      A                      A
 Frequencies --    167.2565               199.5528               223.6858
 Red. masses --      1.2464                 2.8437                 2.9546
 Frc consts  --      0.0205                 0.0667                 0.0871
 IR Inten    --      0.7619                 8.8030                 4.4978

                     10                     11                     12
                      A                      A                      A
 Frequencies --    246.5970               256.8395               277.5266
 Red. masses --      2.4018                 1.0642                 2.4731
 Frc consts  --      0.0861                 0.0414                 0.1122
 IR Inten    --      1.7097                 0.0848                 1.7050

                     13                     14                     15
                      A                      A                      A
 Frequencies --    284.6703               313.6452               319.5406
 Red. masses --      2.6493                 1.6871                 2.2050
 Frc consts  --      0.1265                 0.0978                 0.1327
 IR Inten    --      0.8229                 2.5851                 4.5633

                     16                     17                     18
                      A                      A                      A
 Frequencies --    364.7294               411.0628               461.7958
 Red. masses --      2.8225                 4.5515                 3.9683
 Frc consts  --      0.2212                 0.4531                 0.4986
 IR Inten    --      1.7598                12.5618                 5.9669

                     19                     20                     21
                      A                      A                      A
 Frequencies --    478.1246               488.5170               558.5530
 Red. masses --      4.4651                 2.7028                 2.3602
 Frc consts  --      0.6014                 0.3800                 0.4338
 IR Inten    --      8.3233                 7.4668                51.5652

                     22                     23                     24
                      A                      A                      A
 Frequencies --    583.9898               655.2544               695.1275
 Red. masses --      2.8519                 4.9443                 3.8117
 Frc consts  --      0.5730                 1.2508                 1.0852
 IR Inten    --     24.6043                 0.3623                53.0159

                     25                     26                     27
                      A                      A                      A
 Frequencies --    732.5978               766.9703               794.6574
 Red. masses --      3.5638                 5.0283                 2.3798
 Frc consts  --      1.1269                 1.7427                 0.8854
 IR Inten    --      8.6778                31.4392                52.8399

                     28                     29                     30
                      A                      A                      A
 Frequencies --    812.5560               846.6260               934.8023
 Red. masses --      4.8555                 2.6076                 2.6090
 Frc consts  --      1.8888                 1.1012                 1.3433
 IR Inten    --      0.8490                22.0486                33.5698

                     31                     32                     33
                      A                      A                      A
 Frequencies --    946.4560               956.4487               966.1366
 Red. masses --      1.8611                 1.3825                 1.2103
 Frc consts  --      0.9822                 0.7451                 0.6656
 IR Inten    --      0.9546                 1.3859                 1.3964

                     34                     35                     36
                      A                      A                      A
 Frequencies --    991.3796              1029.9262              1053.4790
 Red. masses --      2.4364                 2.4713                 2.1145
 Frc consts  --      1.4109                 1.5445                 1.3826
 IR Inten    --     10.0886                11.7269                 5.9251

                     37                     38                     39
                      A                      A                      A
 Frequencies --   1081.5403              1103.9690              1155.6611
 Red. masses --      2.7627                 4.6131                 2.1143
 Frc consts  --      1.9040                 3.3125                 1.6637
 IR Inten    --     11.8714                11.7278                25.1159

                     40                     41                     42
                      A                      A                      A
 Frequencies --   1159.3842              1163.3567              1186.2021
 Red. masses --      1.7030                 1.4943                 1.9168
 Frc consts  --      1.3487                 1.1916                 1.5891
 IR Inten    --     44.3133                 5.3570                43.9540

                     43                     44                     45
                      A                      A                      A
 Frequencies --   1201.9489              1226.3375              1245.7128
 Red. masses --      1.2770                 1.8566                 1.1906
 Frc consts  --      1.0869                 1.6451                 1.0886
 IR Inten    --      4.0791                 9.8478                14.1007

                     46                     47                     48
                      A                      A                      A
 Frequencies --   1280.7196              1304.6056              1337.4696
 Red. masses --      1.3826                 2.3423                 1.5564
 Frc consts  --      1.3362                 2.3489                 1.6404
 IR Inten    --      3.2059                45.7297                34.5911

                     49                     50                     51
                      A                      A                      A
 Frequencies --   1348.0130              1360.0291              1374.7552
 Red. masses --      2.0833                 1.6785                 2.0179
 Frc consts  --      2.2304                 1.8292                 2.2470
 IR Inten    --     22.5977                19.5523                80.1480

                     52                     53                     54
                      A                      A                      A
 Frequencies --   1378.8315              1396.7997              1434.2244
 Red. masses --      1.4026                 1.3523                 1.3616
 Frc consts  --      1.5712                 1.5545                 1.6501
 IR Inten    --     11.6553                 8.3279                19.3549

                     55                     56                     57
                      A                      A                      A
 Frequencies --   1442.6871              1453.7903              1456.1117
 Red. masses --      1.2969                 1.3552                 1.3521
 Frc consts  --      1.5904                 1.6876                 1.6891
 IR Inten    --      6.6734                41.8771                20.4244

                     58                     59                     60
                      A                      A                      A
 Frequencies --   1481.7601              1503.2472              1514.3654
 Red. masses --      1.7995                 1.0905                 1.0513
 Frc consts  --      2.3279                 1.4518                 1.4205
 IR Inten    --     76.3268                 8.8622                 0.7467

                     61                     62                     63
                      A                      A                      A
 Frequencies --   1521.6013              1529.0683              1531.6193
 Red. masses --      1.0462                 1.0437                 1.0824
 Frc consts  --      1.4272                 1.4378                 1.4961
 IR Inten    --     12.2608                10.0823                 1.2460

                     64                     65                     66
                      A                      A                      A
 Frequencies --   1538.4457              1554.9978              1563.8784
 Red. masses --      1.0917                 1.0570                 1.1871
 Frc consts  --      1.5224                 1.5059                 1.7105
 IR Inten    --      8.6509                 4.4808                17.4854

                     67                     68                     69
                      A                      A                      A
 Frequencies --   1791.2346              1792.8281              3001.3453
 Red. masses --      9.4339                10.2491                 1.0847
 Frc consts  --     17.8339                19.4095                 5.7570
 IR Inten    --    172.7377               477.6497                62.9311

                     70                     71                     72
                      A                      A                      A
 Frequencies --   3031.1660              3039.1813              3060.6548
 Red. masses --      1.0426                 1.0545                 1.0353
 Frc consts  --      5.6440                 5.7388                 5.7140
 IR Inten    --     29.3417                67.9917                20.3556

                     73                     74                     75
                      A                      A                      A
 Frequencies --   3064.8373              3066.6060              3084.3219
 Red. masses --      1.0357                 1.1081                 1.0711
 Frc consts  --      5.7321                 6.1399                 6.0032
 IR Inten    --     12.1149                34.4874                11.3176

                     76                     77                     78
                      A                      A                      A
 Frequencies --   3088.2280              3128.4263              3134.3468
 Red. masses --      1.1010                 1.1005                 1.1025
 Frc consts  --      6.1869                 6.3460                 6.3813
 IR Inten    --     37.7173                16.0326                27.4682

                     79                     80                     81
                      A                      A                      A
 Frequencies --   3135.5174              3147.8689              3152.8369
 Red. masses --      1.0865                 1.1041                 1.1040
 Frc consts  --      6.2934                 6.4462                 6.4655
 IR Inten    --     10.6383                 7.3899                 7.2649

                     82                     83                     84
                      A                      A                      A
 Frequencies --   3164.9649              3166.5984              3498.3285
 Red. masses --      1.0938                 1.0984                 1.0769
 Frc consts  --      6.4553                 6.4891                 7.7650
 IR Inten    --      2.7282                 1.8197                 8.8825

 - Thermochemistry -
 -------------------
 Temperature   298.150 Kelvin.  Pressure   1.00000 Atm.
 Atom     1 has atomic number  6 and mass  12.00000

 Molecular mass:   200.11609 amu.
 Principal axes and moments of inertia in atomic units:
                           1         2         3
     Eigenvalues --  2272.144902538.425383600.85107
           X            0.97497   0.22072  -0.02682
           Y           -0.21973   0.97492   0.03541
           Z            0.03397  -0.02863   0.99901
 This molecule is an asymmetric top.
 Rotational symmetry number  1.
 Warning -- assumption of classical behavior for rotation
           may cause significant error
 Rotational temperatures (Kelvin)      0.03812     0.03412     0.02405
 Rotational constants (GHZ):           0.79429     0.71097     0.50120
 Zero-point vibrational energy     674634.9 (Joules/Mol)
                                  161.24161 (Kcal/Mol)
 Warning -- explicit consideration of  22 degrees of freedom as
           vibrations may cause significant error
 Vibrational temperatures:     92.56   112.29   127.10   151.54   172.93
          (Kelvin)            194.22   240.64   287.11   321.83   354.80
                              369.53   399.30   409.58   451.27   459.75
                              524.76   591.43   664.42   687.91   702.87
                              803.63   840.23   942.76  1000.13  1054.04
                             1103.50  1143.33  1169.09  1218.11  1344.97
                             1361.74  1376.12  1390.06  1426.37  1481.83
                             1515.72  1556.10  1588.37  1662.74  1668.10
                             1673.81  1706.68  1729.34  1764.43  1792.30
                             1842.67  1877.04  1924.32  1939.49  1956.78
                             1977.97  1983.83  2009.68  2063.53  2075.71
                             2091.68  2095.02  2131.92  2162.84  2178.83
                             2189.24  2199.99  2203.66  2213.48  2237.29
                             2250.07  2577.19  2579.48  4318.27  4361.17
                             4372.70  4403.60  4409.62  4412.16  4437.65
                             4443.27  4501.11  4509.63  4511.31  4529.08
                             4536.23  4553.68  4556.03  5033.31

 Zero-point correction=                           0.256955 (Hartree/Particle)
 Thermal correction to Energy=                    0.271550
 Thermal correction to Enthalpy=                  0.272494
 Thermal correction to Gibbs Free Energy=         0.216146
 Sum of electronic and zero-point Energies=           -687.538192
 Sum of electronic and thermal Energies=              -687.523596
 Sum of electronic and thermal Enthalpies=            -687.522652
 Sum of electronic and thermal Free Energies=         -687.579000

                     E (Thermal)             CV                S
                      KCal/Mol        Cal/Mol-Kelvin    Cal/Mol-Kelvin
 Total                  170.400             54.478            118.594
 Electronic               0.000              0.000              0.000
 Translational            0.889              2.981             41.786
 Rotational               0.889              2.981             31.408
 Vibrational            168.623             48.516             45.401
 Vibration     1          0.597              1.971              4.320
 Vibration     2          0.599              1.964              3.940
 Vibration     3          0.601              1.957              3.696
 Vibration     4          0.605              1.945              3.353
 Vibration     5          0.609              1.932              3.097
 Vibration     6          0.613              1.918              2.874
 Vibration     7          0.624              1.883              2.466
 Vibration     8          0.638              1.841              2.137
 Vibration     9          0.649              1.805              1.929
 Vibration    10          0.661              1.768              1.755
 Vibration    11          0.666              1.751              1.683
 Vibration    12          0.679              1.715              1.549
 Vibration    13          0.683              1.702              1.505
 Vibration    14          0.701              1.648              1.343
 Vibration    15          0.705              1.636              1.312
 Vibration    16          0.738              1.545              1.102
 Vibration    17          0.775              1.446              0.923
 Vibration    18          0.820              1.335              0.761
 Vibration    19          0.835              1.299              0.715
 Vibration    20          0.844              1.276              0.687
 Vibration    21          0.914              1.121              0.527
 Vibration    22          0.941              1.066              0.478

                           ! Non-Optimized Parameters !
 Normal termination of Gaussian 16 at Thu Dec 10 09:46:58 2020.

 ----------------------------------------------------------------------
 # B3LYP/6-311++G(d,p) empiricaldispersion=gd3bj scf=xqc pop=npa geom=c
 heck
 ----------------------------------------------------------------------

 ---------------------------------------
 CID_130859111_JID_4400_Energie_neutraal
 ---------------------------------------
 Structure from the checkpoint file:  "JID_4400.chk"
 Charge =  0 Multiplicity = 1

 SCF Done:  E(RB3LYP) =  -687.997836344     A.U. after   14 cycles
 Normal termination of Gaussian 16 at Thu Dec 10 09:50:37 2020.

 ----------------------------------------------------------------------
 # B3LYP/6-311++G(d,p) empiricaldispersion=gd3bj scf=xqc pop=npa geom=c
 heck
 ----------------------------------------------------------------------

 -------------------------------------
 CID_130859111_JID_4400_Energie_kation
 -------------------------------------
 Structure from the checkpoint file:  "JID_4400.chk"
 Charge =  1 Multiplicity = 2

 SCF Done:  E(UB3LYP) =  -687.677914585     A.U. after   28 cycles
 Normal termination of Gaussian 16 at Thu Dec 10 10:00:22 2020.
 Gaussian 16:  ES64L-G16RevA.03 25-Dec-2016

 ----------------------------------------------------------------------
 # B3LYP/6-311++G(d,p) empiricaldispersion=gd3bj scf=xqc pop=npa geom=c
 heck
 ----------------------------------------------------------------------

 ------------------------------------
 CID_130859111_JID_4400_Energie_anion
 ------------------------------------
 Structure from the checkpoint file:  "JID_4400.chk"
 Charge = -1 Multiplicity = 2

                         Standard orientation:
 ---------------------------------------------------------------------
 Center     Atomic      Atomic             Coordinates (Angstroms)
 Number     Number       Type             X           Y           Z
 ---------------------------------------------------------------------
      1          6           0        1.140650    2.243875    1.135961
      2          6           0        1.083940    2.012949   -0.367809
      3          6           0        2.380357    1.447579   -0.929186
      4          8           0        0.074223    1.042036   -0.756199
      5          7           0       -1.217044    1.475453   -0.399520
      6          6           0       -2.155705    0.495059   -0.110740
      7          8           0       -3.342533    0.759307   -0.225214
      8          6           0       -1.663973   -0.859860    0.380737
      9          6           0       -0.630001   -0.803290    1.524077
     10          6           0        0.683052   -1.276172    0.913963
     11          8           0        1.796397   -1.173105    1.414782
     12          7           0        0.401642   -1.861412   -0.286150
     13          6           0       -0.958541   -1.675882   -0.749100
     14          6           0        1.435675   -2.336701   -1.174160
     15          1           0        0.158669    2.530779    1.523137
     16          1           0        1.840787    3.058604    1.351518
     17          1           0        1.490407    1.343586    1.649053
     18          1           0        0.832393    2.955432   -0.879027
     19          1           0        2.284320    1.244970   -2.000606
     20          1           0        3.192036    2.167446   -0.783156
     21          1           0        2.640815    0.521484   -0.408336
     22          1           0       -1.569672    2.179406   -1.047045
     23          1           0       -2.575877   -1.370022    0.691502
     24          1           0       -0.900932   -1.480937    2.340867
     25          1           0       -0.507273    0.190247    1.955257
     26          1           0       -1.454918   -2.641764   -0.907448
     27          1           0       -0.960770   -1.139656   -1.706564
     28          1           0        1.200487   -3.342430   -1.541830
     29          1           0        1.549384   -1.664110   -2.035372
     30          1           0        2.370545   -2.362574   -0.611676
 ---------------------------------------------------------------------

 SCF Done:  E(UB3LYP) =  -687.986260441     A.U. after   33 cycles
 SCF Done:  E(UB3LYP) =  -687.986260441     a.u. after    1 cycles

 The electronic state is 2-A.
 Alpha  occ. eigenvalues --  -19.07536 -19.00986 -18.99239 -14.28830 -14.24586
 Alpha  occ. eigenvalues --  -10.18951 -10.17268 -10.13295 -10.11811 -10.10467
 Alpha  occ. eigenvalues --  -10.10076 -10.09132 -10.06313 -10.06248  -1.00539
 Alpha  occ. eigenvalues --   -0.95043  -0.94301  -0.85484  -0.77641  -0.71823
 Alpha  occ. eigenvalues --   -0.67287  -0.63275  -0.61188  -0.59764  -0.55198
 Alpha  occ. eigenvalues --   -0.50704  -0.49754  -0.45164  -0.43355  -0.40696
 Alpha  occ. eigenvalues --   -0.40425  -0.38628  -0.38302  -0.36446  -0.35202
 Alpha  occ. eigenvalues --   -0.34698  -0.33390  -0.32436  -0.31505  -0.30700
 Alpha  occ. eigenvalues --   -0.29733  -0.29646  -0.29209  -0.28668  -0.28000
 Alpha  occ. eigenvalues --   -0.27372  -0.26299  -0.25323  -0.25058  -0.21561
 Alpha  occ. eigenvalues --   -0.17833  -0.16363  -0.15724  -0.14923   0.04267
 Alpha virt. eigenvalues --    0.06075   0.07265   0.07828   0.08277   0.08732
 Alpha virt. eigenvalues --    0.09227   0.09698   0.10589   0.11106   0.11305
 Alpha virt. eigenvalues --    0.12135   0.12556   0.12668   0.13611   0.13974

  Beta  occ. eigenvalues --  -19.07523 -19.00974 -18.99235 -14.28804 -14.24587
  Beta  occ. eigenvalues --  -10.18948 -10.17263 -10.13268 -10.11773 -10.10457
  Beta  occ. eigenvalues --  -10.10041 -10.09124 -10.06298 -10.06222  -1.00515
  Beta  occ. eigenvalues --   -0.95023  -0.94294  -0.85475  -0.77592  -0.71795
  Beta  occ. eigenvalues --   -0.67238  -0.63230  -0.61136  -0.59719  -0.55150
  Beta  occ. eigenvalues --   -0.50638  -0.49724  -0.45115  -0.43285  -0.40655
  Beta  occ. eigenvalues --   -0.40375  -0.38588  -0.38270  -0.36392  -0.35178
  Beta  occ. eigenvalues --   -0.34671  -0.33353  -0.32401  -0.31474  -0.30669
  Beta  occ. eigenvalues --   -0.29699  -0.29617  -0.29176  -0.28634  -0.27969
  Beta  occ. eigenvalues --   -0.27341  -0.26261  -0.25291  -0.25021  -0.21508
  Beta  occ. eigenvalues --   -0.17813  -0.16349  -0.15696  -0.14903
  Beta virt. eigenvalues --    0.06720   0.07337   0.07765   0.08357   0.08585
  Beta virt. eigenvalues --    0.09277   0.09705   0.10336   0.10812   0.11336
  Beta virt. eigenvalues --    0.11561   0.12505   0.12845   0.13180   0.13842

 Mulliken charges and spin densities:
               1          2
     1  C   -0.184893  -0.381616
     2  C    0.079311  -0.050161
     3  C    0.809148  -1.379586
     4  O    0.179873  -0.006926
     5  N   -0.483838   0.139034
     6  C   -0.173356  -0.052586
     7  O   -0.317502   0.016082
     8  C   -0.791152   1.327774
     9  C    0.924264  -1.400969
    10  C   -0.776104   0.590818
    11  O   -0.304399   0.006840
    12  N   -0.081358   0.196554
    13  C    1.345879  -1.971142
    14  C    0.574968  -0.851657
    15  H    0.058464   0.093393
    16  H   -0.157591   0.303464
    17  H    0.054258   0.131630
    18  H   -0.786577   0.945182
    19  H   -0.286626   0.455590
    20  H   -0.019524   0.161621
    21  H    0.119337   0.048378
    22  H   -0.003315   0.321356
    23  H   -0.073363   0.364050
    24  H   -0.015160   0.222826
    25  H    0.361095  -0.169387
    26  H   -0.487800   0.683288
    27  H   -0.088364   0.289778
    28  H   -0.496400   0.662634
    29  H    0.041427   0.121467
    30  H   -0.020703   0.182271
 Sum of Mulliken charges =  -1.00000   1.00000

 Dipole moment (field-independent basis, Debye):
    X=              0.2154    Y=              0.1464    Z=              3.4303  Tot=              3.4401
 Quadrupole moment (field-independent basis, Debye-Ang):
   XX=           -136.7414   YY=           -147.6758   ZZ=           -121.3977
   XY=             -2.7337   XZ=             -2.5654   YZ=              1.1862

 Summary of Natural Population Analysis:

                                       Natural Population
                Natural  -----------------------------------------------
    Atom  No    Charge         Core      Valence    Rydberg      Total
 -----------------------------------------------------------------------
      C    1   -0.30712      0.99963     2.30126    0.00624     3.30712
      C    2    0.06710      0.99957     1.91815    0.01518     2.93290
      C    3   -0.29543      0.99962     2.28880    0.00701     3.29543
      O    4   -0.22928      0.99989     3.21500    0.01439     4.22928
      N    5   -0.16760      0.99962     2.65537    0.01260     3.66760
      C    6    0.34474      0.99965     1.63321    0.02240     2.65526
      O    7   -0.30890      0.99988     3.30330    0.00573     4.30890
      C    8   -0.15385      0.99956     2.14248    0.01181     3.15385
      C    9   -0.22786      0.99957     2.21971    0.00858     3.22786
      C   10    0.35165      0.99962     1.62399    0.02474     2.64835
      O   11   -0.33081      0.99987     3.32586    0.00508     4.33081
      N   12   -0.25096      0.99962     2.73871    0.01263     3.75096
      C   13   -0.06903      0.99960     2.05830    0.01113     3.06903
      C   14   -0.17820      0.99963     2.17012    0.00844     3.17820
      H   15    0.10416      0.00000     0.39480    0.00104     0.39584
      H   16    0.10372      0.00000     0.39551    0.00077     0.39628
      H   17    0.11010      0.00000     0.38864    0.00127     0.38990
      H   18    0.08357      0.00000     0.41212    0.00430     0.41643
      H   19    0.10520      0.00000     0.39324    0.00156     0.39480
      H   20    0.10239      0.00000     0.39670    0.00090     0.39761
      H   21    0.10931      0.00000     0.38919    0.00150     0.39069
      H   22    0.18810      0.00000     0.30891    0.00299     0.31190
      H   23    0.11647      0.00000     0.38240    0.00114     0.38353
      H   24    0.11268      0.00000     0.38635    0.00097     0.38732
      H   25    0.11519      0.00000     0.38355    0.00125     0.38481
      H   26    0.09902      0.00000     0.39851    0.00248     0.40098
      H   27    0.10030      0.00000     0.39720    0.00250     0.39970
      H   28    0.09723      0.00000     0.40122    0.00154     0.40277
      H   29    0.09737      0.00000     0.40128    0.00135     0.40263
      H   30    0.11074      0.00000     0.38808    0.00118     0.38926
 =======================================================================
   * Total *   -0.00000     13.99535    39.81196    0.19270    54.00000

 Normal termination of Gaussian 16 at Thu Dec 10 10:12:48 2020.
