 Gaussian 16, Revision A.03,

 -----------------------------------------------------------
 # opt freq B3LYP/6-31G(d) empiricaldispersion=gd3bj scf=xqc
 -----------------------------------------------------------

 ------------------------------
 CID_21444809_JID_2097_neutraal
 ------------------------------
 Symbolic Z-matrix:
 Charge =  0 Multiplicity = 1

 SCF Done:  E(RB3LYP) =  -664.976552253     A.U. after   15 cycles
 SCF Done:  E(RB3LYP) =  -664.983837952     A.U. after   13 cycles
 SCF Done:  E(RB3LYP) =  -664.984499425     A.U. after   13 cycles
 SCF Done:  E(RB3LYP) =  -664.985017066     A.U. after   12 cycles
 SCF Done:  E(RB3LYP) =  -664.985278197     A.U. after   11 cycles
 SCF Done:  E(RB3LYP) =  -664.985367421     A.U. after   12 cycles
 SCF Done:  E(RB3LYP) =  -664.985473113     A.U. after   11 cycles
 SCF Done:  E(RB3LYP) =  -664.985516781     A.U. after   11 cycles
 SCF Done:  E(RB3LYP) =  -664.985544922     A.U. after   10 cycles
 SCF Done:  E(RB3LYP) =  -664.985556667     A.U. after   10 cycles
 SCF Done:  E(RB3LYP) =  -664.985855107     A.U. after    8 cycles
 SCF Done:  E(RB3LYP) =  -664.985855244     A.U. after    8 cycles
 SCF Done:  E(RB3LYP) =  -664.985855307     A.U. after    8 cycles
 SCF Done:  E(RB3LYP) =  -664.985855320     A.U. after    7 cycles
 Optimization completed.
    -- Stationary point found.
 Normal termination of Gaussian 16 at Wed Dec  9 16:55:20 2020.

 --------------------------------------------------------------------
 #N Geom=AllCheck Guess=TCheck SCRF=Check GenChk RB3LYP/6-31G(d) Freq
 --------------------------------------------------------------------

 Structure from the checkpoint file:  "JID_2097.chk"
 ------------------------------
 CID_21444809_JID_2097_neutraal
 ------------------------------
 Charge =  0 Multiplicity = 1

 SCF Done:  E(RB3LYP) =  -664.985855320     A.U. after    1 cycles

  Exact polarizability:  92.080  -1.279  81.440  -7.615  -3.178  69.424
 Approx polarizability: 118.166  -1.212 131.394 -18.378 -14.765 105.716

                      1                      2                      3
                      A                      A                      A
 Frequencies --     16.5929                35.4421                56.9730
 Red. masses --      6.3601                 6.2416                 6.7346
 Frc consts  --      0.0010                 0.0046                 0.0129
 IR Inten    --      0.7836                 1.7430                 0.7819

                      4                      5                      6
                      A                      A                      A
 Frequencies --     74.1608               112.2227               115.6648
 Red. masses --      4.8431                 2.7308                 1.2353
 Frc consts  --      0.0157                 0.0203                 0.0097
 IR Inten    --      3.8711                 0.5747                 0.1790

                      7                      8                      9
                      A                      A                      A
 Frequencies --    132.4179               186.9000               242.9827
 Red. masses --      1.1479                 4.3406                 4.0849
 Frc consts  --      0.0119                 0.0893                 0.1421
 IR Inten    --      0.1554                 4.2752                 1.2950

                     10                     11                     12
                      A                      A                      A
 Frequencies --    260.4167               288.9929               374.8147
 Red. masses --      6.7360                 3.4939                 3.9572
 Frc consts  --      0.2691                 0.1719                 0.3275
 IR Inten    --      7.6471                14.1169                 7.9080

                     13                     14                     15
                      A                      A                      A
 Frequencies --    415.1442               421.8674               466.5981
 Red. masses --      3.2624                 6.6952                 4.9604
 Frc consts  --      0.3313                 0.7021                 0.6363
 IR Inten    --      1.0533                 2.8925                14.2305

                     16                     17                     18
                      A                      A                      A
 Frequencies --    539.9696               580.8785               607.7840
 Red. masses --      4.9688                 2.7483                 1.6867
 Frc consts  --      0.8536                 0.5464                 0.3671
 IR Inten    --     19.6826                58.3626                73.6470

                     19                     20                     21
                      A                      A                      A
 Frequencies --    627.2779               672.9002               746.9734
 Red. masses --      2.4470                 4.7903                 3.9876
 Frc consts  --      0.5673                 1.2779                 1.3109
 IR Inten    --     14.9466                23.9772                 3.4418

                     22                     23                     24
                      A                      A                      A
 Frequencies --    782.9769               795.8468               867.8597
 Red. masses --      8.7703                 5.5737                 4.0477
 Frc consts  --      3.1678                 2.0800                 1.7962
 IR Inten    --     49.6448                 3.0170                18.5691

                     25                     26                     27
                      A                      A                      A
 Frequencies --    968.7806               988.7249              1057.7173
 Red. masses --      2.9238                 2.3680                 6.4769
 Frc consts  --      1.6168                 1.3639                 4.2693
 IR Inten    --      1.1504                27.1417                50.3189

                     28                     29                     30
                      A                      A                      A
 Frequencies --   1129.3281              1150.3925              1166.6732
 Red. masses --      1.9491                 1.7059                 2.6269
 Frc consts  --      1.4646                 1.3301                 2.1067
 IR Inten    --    176.9708                 4.9114               140.6861

                     31                     32                     33
                      A                      A                      A
 Frequencies --   1186.8201              1216.7551              1219.7654
 Red. masses --      1.2768                 1.5331                 1.4448
 Frc consts  --      1.0596                 1.3373                 1.2665
 IR Inten    --      0.8952                93.7009                12.3032

                     34                     35                     36
                      A                      A                      A
 Frequencies --   1259.1640              1291.3978              1324.9949
 Red. masses --      2.3088                 3.9467                 1.5809
 Frc consts  --      2.1568                 3.8780                 1.6353
 IR Inten    --    202.6689               249.5717                21.1213

                     37                     38                     39
                      A                      A                      A
 Frequencies --   1359.7762              1441.0598              1478.6209
 Red. masses --      3.6197                 2.4417                 1.1927
 Frc consts  --      3.9433                 2.9875                 1.5363
 IR Inten    --    181.1385               207.6686                16.8722

                     40                     41                     42
                      A                      A                      A
 Frequencies --   1492.6654              1498.1323              1513.1057
 Red. masses --      1.2038                 1.1470                 1.0476
 Frc consts  --      1.5802                 1.5167                 1.4132
 IR Inten    --      9.7289                 7.1697                 3.2498

                     43                     44                     45
                      A                      A                      A
 Frequencies --   1519.9281              1523.2793              1547.6927
 Red. masses --      1.0490                 1.0483                 1.0567
 Frc consts  --      1.4278                 1.4331                 1.4914
 IR Inten    --     31.9634                 5.5248                35.0750

                     46                     47                     48
                      A                      A                      A
 Frequencies --   1816.0324              1823.0447              1840.1147
 Red. masses --      9.3202                11.5977                11.2702
 Frc consts  --     18.1103                22.7099                22.4839
 IR Inten    --    237.9941               577.0822                79.1152

                     49                     50                     51
                      A                      A                      A
 Frequencies --   3080.0865              3084.5553              3096.4672
 Red. masses --      1.0299                 1.0457                 1.0599
 Frc consts  --      5.7565                 5.8618                 5.9873
 IR Inten    --     27.3696                22.9489                 1.2504

                     52                     53                     54
                      A                      A                      A
 Frequencies --   3143.9002              3156.3072              3174.6338
 Red. masses --      1.1044                 1.1077                 1.0905
 Frc consts  --      6.4313                 6.5017                 6.4751
 IR Inten    --      1.3318                18.7913                11.6168

                     55                     56                     57
                      A                      A                      A
 Frequencies --   3192.8643              3211.8090              3701.0319
 Red. masses --      1.1072                 1.1049                 1.0640
 Frc consts  --      6.6502                 6.7155                 8.5872
 IR Inten    --     12.0135                 2.5643                68.9087

 - Thermochemistry -
 -------------------
 Temperature   298.150 Kelvin.  Pressure   1.00000 Atm.
 Atom     1 has atomic number  6 and mass  12.00000

 Molecular mass:   175.04807 amu.
 Principal axes and moments of inertia in atomic units:
                           1         2         3
     Eigenvalues --  1137.100943113.287203374.34139
           X            0.99985   0.00831   0.01514
           Y           -0.00902   0.99883   0.04744
           Z           -0.01473  -0.04757   0.99876
 This molecule is an asymmetric top.
 Rotational symmetry number  1.
 Warning -- assumption of classical behavior for rotation
           may cause significant error
 Rotational temperatures (Kelvin)      0.07617     0.02782     0.02567
 Rotational constants (GHZ):           1.58714     0.57969     0.53484
 Zero-point vibrational energy     425148.5 (Joules/Mol)
                                  101.61293 (Kcal/Mol)
 Warning -- explicit consideration of  18 degrees of freedom as
           vibrations may cause significant error
 Vibrational temperatures:     23.87    50.99    81.97   106.70   161.46
          (Kelvin)            166.42   190.52   268.91   349.60   374.68
                              415.80   539.27   597.30   606.97   671.33
                              776.90   835.75   874.47   902.51   968.15
                             1074.73  1126.53  1145.05  1248.66  1393.86
                             1422.55  1521.82  1624.85  1655.16  1678.58
                             1707.57  1750.64  1754.97  1811.66  1858.03
                             1906.37  1956.41  2073.36  2127.41  2147.61
                             2155.48  2177.02  2186.84  2191.66  2226.78
                             2612.87  2622.95  2647.51  4431.56  4437.99
                             4455.13  4523.37  4541.22  4567.59  4593.82
                             4621.08  5324.96

 Zero-point correction=                           0.161931 (Hartree/Particle)
 Thermal correction to Energy=                    0.174803
 Thermal correction to Enthalpy=                  0.175747
 Thermal correction to Gibbs Free Energy=         0.120025
 Sum of electronic and zero-point Energies=           -664.823925
 Sum of electronic and thermal Energies=              -664.811052
 Sum of electronic and thermal Enthalpies=            -664.810108
 Sum of electronic and thermal Free Energies=         -664.865831

                     E (Thermal)             CV                S
                      KCal/Mol        Cal/Mol-Kelvin    Cal/Mol-Kelvin
 Total                  109.690             43.869            117.278
 Electronic               0.000              0.000              0.000
 Translational            0.889              2.981             41.387
 Rotational               0.889              2.981             30.858
 Vibrational            107.913             37.907             45.033
 Vibration     1          0.593              1.986              7.005
 Vibration     2          0.594              1.982              5.499
 Vibration     3          0.596              1.975              4.559
 Vibration     4          0.599              1.966              4.040
 Vibration     5          0.607              1.939              3.230
 Vibration     6          0.608              1.936              3.172
 Vibration     7          0.613              1.921              2.911
 Vibration     8          0.632              1.858              2.258
 Vibration     9          0.659              1.774              1.781
 Vibration    10          0.668              1.745              1.659
 Vibration    11          0.686              1.694              1.480
 Vibration    12          0.746              1.524              1.060
 Vibration    13          0.779              1.437              0.909
 Vibration    14          0.784              1.423              0.886
 Vibration    15          0.824              1.324              0.747
 Vibration    16          0.895              1.162              0.565
 Vibration    17          0.938              1.073              0.484
 Vibration    18          0.967              1.015              0.436

                           ! Non-Optimized Parameters !
 Normal termination of Gaussian 16 at Wed Dec  9 16:59:33 2020.

 ----------------------------------------------------------------------
 # B3LYP/6-311++G(d,p) empiricaldispersion=gd3bj scf=xqc pop=npa geom=c
 heck
 ----------------------------------------------------------------------

 --------------------------------------
 CID_21444809_JID_2097_Energie_neutraal
 --------------------------------------
 Structure from the checkpoint file:  "JID_2097.chk"
 Charge =  0 Multiplicity = 1

 SCF Done:  E(RB3LYP) =  -665.196325278     A.U. after   14 cycles
 Normal termination of Gaussian 16 at Wed Dec  9 17:00:50 2020.

 ----------------------------------------------------------------------
 # B3LYP/6-311++G(d,p) empiricaldispersion=gd3bj scf=xqc pop=npa geom=c
 heck
 ----------------------------------------------------------------------

 ------------------------------------
 CID_21444809_JID_2097_Energie_kation
 ------------------------------------
 Structure from the checkpoint file:  "JID_2097.chk"
 Charge =  1 Multiplicity = 2

 SCF Done:  E(UB3LYP) =  -664.842202259     A.U. after   33 cycles
 SCF Done:  E(UB3LYP) =  -664.842202259     a.u. after    1 cycles
 Normal termination of Gaussian 16 at Wed Dec  9 17:05:11 2020.
 Gaussian 16:  ES64L-G16RevA.03 25-Dec-2016

 ----------------------------------------------------------------------
 # B3LYP/6-311++G(d,p) empiricaldispersion=gd3bj scf=xqc pop=npa geom=c
 heck
 ----------------------------------------------------------------------

 -----------------------------------
 CID_21444809_JID_2097_Energie_anion
 -----------------------------------
 Structure from the checkpoint file:  "JID_2097.chk"
 Charge = -1 Multiplicity = 2

                         Standard orientation:
 ---------------------------------------------------------------------
 Center     Atomic      Atomic             Coordinates (Angstroms)
 Number     Number       Type             X           Y           Z
 ---------------------------------------------------------------------
      1          6           0        0.431331   -1.196224    1.200531
      2          7           0        1.075599   -0.110887    0.444382
      3          6           0        0.412737    1.109038    0.188982
      4          8           0        0.892020    2.016238   -0.453170
      5          6           0       -0.981468    1.256164    0.805898
      6          6           0       -2.022419    0.252870    0.338907
      7          8           0       -2.921514   -0.180626    1.022111
      8          8           0       -1.825752   -0.075046   -0.953154
      9          6           0       -2.779890   -0.998355   -1.507465
     10          6           0        2.313769   -0.467888   -0.110437
     11          8           0        2.783477   -1.582625    0.018908
     12          8           0        2.935980    0.515690   -0.777617
     13          1           0       -0.207203   -0.787067    1.980871
     14          1           0        1.210438   -1.802803    1.656501
     15          1           0       -0.163896   -1.835689    0.541315
     16          1           0       -0.955345    1.229643    1.898245
     17          1           0       -1.314589    2.253531    0.505102
     18          1           0       -2.770379   -1.936511   -0.946895
     19          1           0       -3.785059   -0.571503   -1.472653
     20          1           0       -2.463156   -1.159357   -2.537345
     21          1           0        3.761955    0.103286   -1.090934
 ---------------------------------------------------------------------

 SCF Done:  E(UB3LYP) =  -665.183593647     A.U. after   33 cycles
 SCF Done:  E(UB3LYP) =  -665.183593647     a.u. after    1 cycles

 The electronic state is 2-A.
 Alpha  occ. eigenvalues --  -19.07290 -19.06739 -19.01754 -19.00466 -18.99899
 Alpha  occ. eigenvalues --  -14.26925 -10.22821 -10.20800 -10.18642 -10.11847
 Alpha  occ. eigenvalues --  -10.10725 -10.10083  -1.02108  -1.01419  -0.95136
 Alpha  occ. eigenvalues --   -0.92764  -0.92298  -0.84463  -0.69344  -0.62394
 Alpha  occ. eigenvalues --   -0.61748  -0.56315  -0.48789  -0.47541  -0.43163
 Alpha  occ. eigenvalues --   -0.40492  -0.39845  -0.39405  -0.38187  -0.37858
 Alpha  occ. eigenvalues --   -0.36326  -0.34398  -0.32933  -0.32042  -0.31881
 Alpha  occ. eigenvalues --   -0.31246  -0.30999  -0.28560  -0.27815  -0.26440
 Alpha  occ. eigenvalues --   -0.22575  -0.21446  -0.19646  -0.19227  -0.17620
 Alpha  occ. eigenvalues --   -0.15969   0.04790
 Alpha virt. eigenvalues --    0.06777   0.07047   0.07499   0.08770   0.09097
 Alpha virt. eigenvalues --    0.10194   0.10887   0.11147   0.12616   0.13282
 Alpha virt. eigenvalues --    0.14096   0.14934   0.15101   0.15897   0.16640

  Beta  occ. eigenvalues --  -19.07270 -19.06693 -19.01718 -19.00410 -18.99817
  Beta  occ. eigenvalues --  -14.26941 -10.22751 -10.20741 -10.18533 -10.11781
  Beta  occ. eigenvalues --  -10.10698 -10.10081  -1.01999  -1.01356  -0.94975
  Beta  occ. eigenvalues --   -0.92701  -0.92200  -0.84416  -0.69247  -0.62310
  Beta  occ. eigenvalues --   -0.61632  -0.56159  -0.48684  -0.47419  -0.43067
  Beta  occ. eigenvalues --   -0.40361  -0.39759  -0.39277  -0.38048  -0.37754
  Beta  occ. eigenvalues --   -0.36240  -0.34313  -0.32793  -0.31969  -0.31764
  Beta  occ. eigenvalues --   -0.31166  -0.30938  -0.28241  -0.27619  -0.26379
  Beta  occ. eigenvalues --   -0.22381  -0.21323  -0.19607  -0.19150  -0.17480
  Beta  occ. eigenvalues --   -0.15899
  Beta virt. eigenvalues --    0.07217   0.07892   0.08054   0.08348   0.09026
  Beta virt. eigenvalues --    0.09603   0.11160   0.11409   0.11758   0.12949
  Beta virt. eigenvalues --    0.13567   0.13968   0.15159   0.15463   0.16010

 Mulliken charges and spin densities:
               1          2
     1  C    0.472487  -0.899429
     2  N   -0.065155  -0.042905
     3  C   -0.560301   0.517878
     4  O   -0.262842   0.024133
     5  C    0.721276  -1.173091
     6  C   -0.541025   0.468985
     7  O   -0.264954   0.058155
     8  O   -0.104439   0.105378
     9  C    1.508189  -1.705921
    10  C    0.361598   0.001613
    11  O   -0.362310   0.030403
    12  O   -0.199000   0.043793
    13  H   -0.094507   0.250607
    14  H   -0.137575   0.346264
    15  H   -0.019534   0.244430
    16  H    0.065297   0.164876
    17  H    0.203588   0.016619
    18  H   -0.439410   0.613818
    19  H   -0.584575   0.756456
    20  H   -0.554865   0.722677
    21  H   -0.141942   0.455260
 Sum of Mulliken charges =  -1.00000   1.00000

 Dipole moment (field-independent basis, Debye):
    X=              1.8583    Y=              2.9244    Z=              3.5988  Tot=              4.9957
 Quadrupole moment (field-independent basis, Debye-Ang):
   XX=           -135.0336   YY=           -103.6050   ZZ=           -100.7945
   XY=             -7.6776   XZ=             -5.0529   YZ=              0.5771

 Summary of Natural Population Analysis:

                                       Natural Population
                Natural  -----------------------------------------------
    Atom  No    Charge         Core      Valence    Rydberg      Total
 -----------------------------------------------------------------------
      C    1   -0.18018      0.99963     2.17325    0.00730     3.18018
      N    2   -0.27733      0.99962     2.76701    0.01070     3.77733
      C    3    0.37058      0.99968     1.60632    0.02342     2.62942
      O    4   -0.27745      0.99987     3.27169    0.00588     4.27745
      C    5   -0.28022      0.99954     2.27258    0.00810     3.28022
      C    6    0.41446      0.99969     1.55945    0.02640     2.58554
      O    7   -0.30129      0.99987     3.29516    0.00626     4.30129
      O    8   -0.27746      0.99986     3.26780    0.00980     4.27746
      C    9   -0.10306      0.99959     2.09423    0.00924     3.10306
      C   10    0.47839      0.99972     1.49731    0.02458     2.52161
      O   11   -0.32427      0.99987     3.31826    0.00614     4.32427
      O   12   -0.32606      0.99987     3.31971    0.00647     4.32606
      H   13    0.09969      0.00000     0.39875    0.00156     0.40031
      H   14    0.11485      0.00000     0.38399    0.00116     0.38515
      H   15    0.10131      0.00000     0.39697    0.00172     0.39869
      H   16    0.11717      0.00000     0.38180    0.00103     0.38283
      H   17    0.12660      0.00000     0.37231    0.00109     0.37340
      H   18    0.09309      0.00000     0.40490    0.00202     0.40691
      H   19    0.09394      0.00000     0.40317    0.00290     0.40606
      H   20    0.09595      0.00000     0.40204    0.00201     0.40405
      H   21    0.24130      0.00000     0.25238    0.00632     0.25870
 =======================================================================
   * Total *    0.00000     11.99682    33.83908    0.16410    46.00000

 Normal termination of Gaussian 16 at Wed Dec  9 17:10:03 2020.
