 Gaussian 16, Revision A.03,

 -----------------------------------------------------------
 # opt freq B3LYP/6-31G(d) empiricaldispersion=gd3bj scf=xqc
 -----------------------------------------------------------

 -------------------------------
 CID_103037555_JID_3529_neutraal
 -------------------------------
 Symbolic Z-matrix:
 Charge =  0 Multiplicity = 1

 SCF Done:  E(RB3LYP) =  -564.249895870     A.U. after   13 cycles
 SCF Done:  E(RB3LYP) =  -564.250658804     A.U. after   11 cycles
 SCF Done:  E(RB3LYP) =  -564.249398847     A.U. after   11 cycles
 SCF Done:  E(RB3LYP) =  -564.250839622     A.U. after   11 cycles
 SCF Done:  E(RB3LYP) =  -564.252423005     A.U. after    9 cycles
 SCF Done:  E(RB3LYP) =  -564.253032387     A.U. after   11 cycles
 SCF Done:  E(RB3LYP) =  -564.253062479     A.U. after   10 cycles
 SCF Done:  E(RB3LYP) =  -564.253180712     A.U. after   10 cycles
 SCF Done:  E(RB3LYP) =  -564.253197629     A.U. after    9 cycles
 SCF Done:  E(RB3LYP) =  -564.253205231     A.U. after    8 cycles
 SCF Done:  E(RB3LYP) =  -564.253209649     A.U. after    9 cycles
 SCF Done:  E(RB3LYP) =  -564.253212345     A.U. after    8 cycles
 SCF Done:  E(RB3LYP) =  -564.253213383     A.U. after    7 cycles
 SCF Done:  E(RB3LYP) =  -564.253213788     A.U. after    7 cycles
 SCF Done:  E(RB3LYP) =  -564.253213845     A.U. after    6 cycles
 Optimization completed.
    -- Stationary point found.
 Normal termination of Gaussian 16 at Mon Dec 14 16:35:09 2020.

 --------------------------------------------------------------------
 #N Geom=AllCheck Guess=TCheck SCRF=Check GenChk RB3LYP/6-31G(d) Freq
 --------------------------------------------------------------------

 Structure from the checkpoint file:  "JID_3529.chk"
 -------------------------------
 CID_103037555_JID_3529_neutraal
 -------------------------------
 Charge =  0 Multiplicity = 1

 SCF Done:  E(RB3LYP) =  -564.253213845     A.U. after    1 cycles

  Exact polarizability: 141.049  -3.164 126.183   2.545  -0.184 113.110
 Approx polarizability: 170.644  -3.130 174.744   4.067  -0.345 170.584

                      1                      2                      3
                      A                      A                      A
 Frequencies --     48.3996                51.4191                62.8017
 Red. masses --      3.0486                 3.1129                 3.0660
 Frc consts  --      0.0042                 0.0048                 0.0071
 IR Inten    --      0.5776                 1.0666                 0.7330

                      4                      5                      6
                      A                      A                      A
 Frequencies --     96.9088                99.7681               144.4454
 Red. masses --      2.1908                 2.2076                 2.1666
 Frc consts  --      0.0121                 0.0129                 0.0266
 IR Inten    --      1.4443                 1.7220                 0.7053

                      7                      8                      9
                      A                      A                      A
 Frequencies --    157.8597               190.5079               201.3206
 Red. masses --      2.7406                 1.7773                 2.0516
 Frc consts  --      0.0402                 0.0380                 0.0490
 IR Inten    --      0.6699                 3.3596                 0.4136

                     10                     11                     12
                      A                      A                      A
 Frequencies --    231.2897               257.7722               263.3227
 Red. masses --      2.0392                 1.2642                 1.2298
 Frc consts  --      0.0643                 0.0495                 0.0502
 IR Inten    --      0.1912                 1.7613                 0.6238

                     13                     14                     15
                      A                      A                      A
 Frequencies --    273.0105               283.5233               292.1630
 Red. masses --      1.1201                 1.1840                 1.1271
 Frc consts  --      0.0492                 0.0561                 0.0567
 IR Inten    --     26.2662                 0.5357                11.7487

                     16                     17                     18
                      A                      A                      A
 Frequencies --    311.4293               333.7057               358.0279
 Red. masses --      1.9270                 2.0191                 2.4383
 Frc consts  --      0.1101                 0.1325                 0.1842
 IR Inten    --      1.0036                 5.2857                 4.8179

                     19                     20                     21
                      A                      A                      A
 Frequencies --    361.1044               382.1750               416.6714
 Red. masses --      2.3070                 2.2587                 2.1634
 Frc consts  --      0.1772                 0.1944                 0.2213
 IR Inten    --      2.1601                 1.0265                 3.9715

                     22                     23                     24
                      A                      A                      A
 Frequencies --    425.7050               443.3472               475.7937
 Red. masses --      2.1924                 2.7318                 2.3198
 Frc consts  --      0.2341                 0.3164                 0.3094
 IR Inten    --      7.3712                 4.0574                 1.9986

                     25                     26                     27
                      A                      A                      A
 Frequencies --    481.1511               526.2065               581.8653
 Red. masses --      2.5911                 2.6356                 2.1261
 Frc consts  --      0.3534                 0.4300                 0.4241
 IR Inten    --      2.7589                 7.2254                 1.3572

                     28                     29                     30
                      A                      A                      A
 Frequencies --    706.2486               796.9103               815.9546
 Red. masses --      3.2157                 2.7241                 2.4023
 Frc consts  --      0.9450                 1.0193                 0.9423
 IR Inten    --      5.2289                 3.5575                 4.2065

                     31                     32                     33
                      A                      A                      A
 Frequencies --    851.4469               867.7978               900.0518
 Red. masses --      2.5801                 1.9485                 1.4402
 Frc consts  --      1.1021                 0.8646                 0.6874
 IR Inten    --     11.6427                 1.1315                26.3263

                     34                     35                     36
                      A                      A                      A
 Frequencies --    919.1587               928.9534               938.0770
 Red. masses --      1.6917                 1.5274                 1.4584
 Frc consts  --      0.8421                 0.7766                 0.7561
 IR Inten    --     66.0208                29.2719                27.1958

                     37                     38                     39
                      A                      A                      A
 Frequencies --    957.0260               980.4456               994.8618
 Red. masses --      1.6214                 1.7685                 1.6157
 Frc consts  --      0.8749                 1.0016                 0.9422
 IR Inten    --      3.0743                 2.0822                 3.0986

                     40                     41                     42
                      A                      A                      A
 Frequencies --   1020.3941              1029.0641              1042.8736
 Red. masses --      1.3620                 1.4546                 1.6892
 Frc consts  --      0.8355                 0.9075                 1.0824
 IR Inten    --      5.2133                 3.5230                 2.2243

                     43                     44                     45
                      A                      A                      A
 Frequencies --   1070.6668              1106.3384              1116.7558
 Red. masses --      2.0718                 2.0095                 4.0961
 Frc consts  --      1.3993                 1.4491                 3.0098
 IR Inten    --      3.9935                 5.8543                53.0178

                     46                     47                     48
                      A                      A                      A
 Frequencies --   1140.1210              1154.2272              1188.3526
 Red. masses --      1.7813                 1.8507                 1.5448
 Frc consts  --      1.3643                 1.4527                 1.2854
 IR Inten    --     25.0769                34.6946                24.9297

                     49                     50                     51
                      A                      A                      A
 Frequencies --   1192.0811              1196.4801              1214.2492
 Red. masses --      1.6323                 1.6971                 2.3091
 Frc consts  --      1.3666                 1.4315                 2.0059
 IR Inten    --     13.2826                21.4705                15.1715

                     52                     53                     54
                      A                      A                      A
 Frequencies --   1224.6394              1241.6343              1276.2649
 Red. masses --      1.6047                 1.7421                 1.6172
 Frc consts  --      1.4180                 1.5824                 1.5520
 IR Inten    --     22.7803                 5.2298                15.0813

                     55                     56                     57
                      A                      A                      A
 Frequencies --   1285.3878              1307.4545              1336.8490
 Red. masses --      1.3711                 2.0443                 1.2719
 Frc consts  --      1.3347                 2.0589                 1.3393
 IR Inten    --     13.8378                 7.8780                 3.9863

                     58                     59                     60
                      A                      A                      A
 Frequencies --   1358.3617              1377.1163              1394.5295
 Red. masses --      1.2755                 1.4120                 1.3194
 Frc consts  --      1.3867                 1.5778                 1.5118
 IR Inten    --      1.7325                 3.7654                 6.3375

                     61                     62                     63
                      A                      A                      A
 Frequencies --   1409.1380              1414.5093              1423.5382
 Red. masses --      1.3715                 1.3022                 1.3876
 Frc consts  --      1.6045                 1.5351                 1.6568
 IR Inten    --      0.5704                 2.0712                 4.6324

                     64                     65                     66
                      A                      A                      A
 Frequencies --   1424.8906              1432.1345              1436.9961
 Red. masses --      1.2981                 1.3195                 1.3241
 Frc consts  --      1.5528                 1.5945                 1.6109
 IR Inten    --      6.1846                17.2012                 5.2050

                     67                     68                     69
                      A                      A                      A
 Frequencies --   1443.2110              1444.9499              1499.1256
 Red. masses --      1.2850                 1.2679                 1.1169
 Frc consts  --      1.5769                 1.5597                 1.4789
 IR Inten    --     16.7005                 8.6704                 0.3801

                     70                     71                     72
                      A                      A                      A
 Frequencies --   1501.3519              1510.4943              1513.1370
 Red. masses --      1.0850                 1.0681                 1.0628
 Frc consts  --      1.4409                 1.4359                 1.4337
 IR Inten    --      2.3953                 1.3640                 5.0749

                     73                     74                     75
                      A                      A                      A
 Frequencies --   1518.1723              1520.6183              1523.8047
 Red. masses --      1.0602                 1.0605                 1.0574
 Frc consts  --      1.4397                 1.4448                 1.4466
 IR Inten    --      2.0151                 1.5260                 3.7938

                     76                     77                     78
                      A                      A                      A
 Frequencies --   1528.6872              1530.4226              1536.1684
 Red. masses --      1.0753                 1.0488                 1.0508
 Frc consts  --      1.4806                 1.4473                 1.4610
 IR Inten    --      2.1101                 5.7132                 1.2280

                     79                     80                     81
                      A                      A                      A
 Frequencies --   1537.7354              1540.9270              1547.1100
 Red. masses --      1.0614                 1.0541                 1.0646
 Frc consts  --      1.4787                 1.4747                 1.5013
 IR Inten    --      5.3446                 3.5532                 4.6826

                     82                     83                     84
                      A                      A                      A
 Frequencies --   1550.4348              1694.6039              2990.5405
 Red. masses --      1.0575                 1.0899                 1.0741
 Frc consts  --      1.4977                 1.8440                 5.6600
 IR Inten    --      1.4485                25.4577                29.7532

                     85                     86                     87
                      A                      A                      A
 Frequencies --   3005.3076              3017.6438              3027.5698
 Red. masses --      1.0779                 1.0353                 1.0638
 Frc consts  --      5.7362                 5.5547                 5.7451
 IR Inten    --     18.5406                50.9236                26.4363

                     88                     89                     90
                      A                      A                      A
 Frequencies --   3031.6480              3042.6764              3046.1432
 Red. masses --      1.0410                 1.0573                 1.0654
 Frc consts  --      5.6373                 5.7671                 5.8244
 IR Inten    --     43.9675                19.8088                31.6117

                     91                     92                     93
                      A                      A                      A
 Frequencies --   3049.7179              3054.5735              3059.9856
 Red. masses --      1.0613                 1.0411                 1.0974
 Frc consts  --      5.8157                 5.7230                 6.0540
 IR Inten    --     36.2567                 6.3710                37.9193

                     94                     95                     96
                      A                      A                      A
 Frequencies --   3064.8864              3071.7005              3090.3183
 Red. masses --      1.0398                 1.1006                 1.0972
 Frc consts  --      5.7546                 6.1186                 6.1734
 IR Inten    --     28.0874                63.3210                29.4250

                     97                     98                     99
                      A                      A                      A
 Frequencies --   3096.1717              3104.7350              3107.8025
 Red. masses --      1.1015                 1.0991                 1.1001
 Frc consts  --      6.2213                 6.2423                 6.2604
 IR Inten    --     44.5927                66.7814                27.3990

                    100                    101                    102
                      A                      A                      A
 Frequencies --   3118.9371              3125.3942              3130.4660
 Red. masses --      1.1018                 1.1009                 1.1028
 Frc consts  --      6.3152                 6.3359                 6.3674
 IR Inten    --      0.7397                68.1650                23.0575

                    103                    104                    105
                      A                      A                      A
 Frequencies --   3135.9582              3138.9470              3153.7420
 Red. masses --      1.0991                 1.1008                 1.0995
 Frc consts  --      6.3683                 6.3906                 6.4429
 IR Inten    --     26.9519                15.4505                21.5413

                    106                    107                    108
                      A                      A                      A
 Frequencies --   3166.9835              3434.9796              3520.5682
 Red. masses --      1.0865                 1.0496                 1.0912
 Frc consts  --      6.4206                 7.2966                 7.9683
 IR Inten    --      4.0280                 6.3932                 3.3046

 - Thermochemistry -
 -------------------
 Temperature   298.150 Kelvin.  Pressure   1.00000 Atm.
 Atom     1 has atomic number  6 and mass  12.00000

 Molecular mass:   187.19361 amu.
 Principal axes and moments of inertia in atomic units:
                           1         2         3
     Eigenvalues --  1567.480613952.169274597.13132
           X            0.99996   0.00787   0.00308
           Y           -0.00791   0.99989   0.01276
           Z           -0.00298  -0.01278   0.99991
 This molecule is an asymmetric top.
 Rotational symmetry number  1.
 Warning -- assumption of classical behavior for rotation
           may cause significant error
 Rotational temperatures (Kelvin)      0.05526     0.02192     0.01884
 Rotational constants (GHZ):           1.15136     0.45665     0.39258
 Zero-point vibrational energy     932800.3 (Joules/Mol)
                                  222.94461 (Kcal/Mol)
 Warning -- explicit consideration of  27 degrees of freedom as
           vibrations may cause significant error
 Vibrational temperatures:     69.64    73.98    90.36   139.43   143.54
          (Kelvin)            207.82   227.12   274.10   289.66   332.77
                              370.88   378.86   392.80   407.93   420.36
                              448.08   480.13   515.12   519.55   549.86
                              599.50   612.49   637.88   684.56   692.27
                              757.09   837.17  1016.13  1146.58  1173.98
                             1225.04  1248.57  1294.97  1322.46  1336.56
                             1349.68  1376.95  1410.64  1431.38  1468.12
                             1480.59  1500.46  1540.45  1591.77  1606.76
                             1640.38  1660.68  1709.77  1715.14  1721.47
                             1747.03  1761.98  1786.43  1836.26  1849.39
                             1881.14  1923.43  1954.38  1981.36  2006.42
                             2027.44  2035.16  2048.15  2050.10  2060.52
                             2067.52  2076.46  2078.96  2156.91  2160.11
                             2173.26  2177.07  2184.31  2187.83  2192.42
                             2199.44  2201.94  2210.20  2212.46  2217.05
                             2225.95  2230.73  2438.16  4302.72  4323.97
                             4341.72  4356.00  4361.87  4377.73  4382.72
                             4387.86  4394.85  4402.64  4409.69  4419.49
                             4446.28  4454.70  4467.02  4471.43  4487.45
                             4496.75  4504.04  4511.94  4516.24  4537.53
                             4556.58  4942.17  5065.31

 Zero-point correction=                           0.355285 (Hartree/Particle)
 Thermal correction to Energy=                    0.371999
 Thermal correction to Enthalpy=                  0.372943
 Thermal correction to Gibbs Free Energy=         0.312246
 Sum of electronic and zero-point Energies=           -563.897929
 Sum of electronic and thermal Energies=              -563.881215
 Sum of electronic and thermal Enthalpies=            -563.880270
 Sum of electronic and thermal Free Energies=         -563.940968

                     E (Thermal)             CV                S
                      KCal/Mol        Cal/Mol-Kelvin    Cal/Mol-Kelvin
 Total                  233.433             63.214            127.748
 Electronic               0.000              0.000              0.000
 Translational            0.889              2.981             41.587
 Rotational               0.889              2.981             31.721
 Vibrational            231.656             57.252             54.440
 Vibration     1          0.595              1.978              4.882
 Vibration     2          0.596              1.977              4.762
 Vibration     3          0.597              1.972              4.367
 Vibration     4          0.603              1.951              3.516
 Vibration     5          0.604              1.949              3.459
 Vibration     6          0.616              1.909              2.744
 Vibration     7          0.621              1.894              2.575
 Vibration     8          0.634              1.853              2.223
 Vibration     9          0.638              1.838              2.121
 Vibration    10          0.653              1.793              1.869
 Vibration    11          0.667              1.750              1.677
 Vibration    12          0.670              1.740              1.640
 Vibration    13          0.676              1.723              1.577
 Vibration    14          0.682              1.704              1.512
 Vibration    15          0.688              1.688              1.461
 Vibration    16          0.700              1.652              1.355
 Vibration    17          0.715              1.608              1.242
 Vibration    18          0.733              1.559              1.131
 Vibration    19          0.735              1.552              1.117
 Vibration    20          0.752              1.508              1.031
 Vibration    21          0.780              1.434              0.903
 Vibration    22          0.788              1.414              0.873
 Vibration    23          0.803              1.376              0.816
 Vibration    24          0.832              1.304              0.721
 Vibration    25          0.837              1.292              0.707
 Vibration    26          0.881              1.192              0.596
 Vibration    27          0.939              1.071              0.482

 Optimization completed.
    -- Stationary point found.
 Normal termination of Gaussian 16 at Mon Dec 14 16:46:49 2020.

 ----------------------------------------------------------------------
 # B3LYP/6-311++G(d,p) empiricaldispersion=gd3bj scf=xqc pop=npa geom=c
 heck
 ----------------------------------------------------------------------

 ---------------------------------------
 CID_103037555_JID_3529_Energie_neutraal
 ---------------------------------------
 Structure from the checkpoint file:  "JID_3529.chk"
 Charge =  0 Multiplicity = 1

 SCF Done:  E(RB3LYP) =  -564.422753367     A.U. after   13 cycles
 Normal termination of Gaussian 16 at Mon Dec 14 16:52:34 2020.

 ----------------------------------------------------------------------
 # B3LYP/6-311++G(d,p) empiricaldispersion=gd3bj scf=xqc pop=npa geom=c
 heck
 ----------------------------------------------------------------------

 -------------------------------------
 CID_103037555_JID_3529_Energie_kation
 -------------------------------------
 Structure from the checkpoint file:  "JID_3529.chk"
 Charge =  1 Multiplicity = 2

 SCF Done:  E(UB3LYP) =  -564.112398001     A.U. after   25 cycles
 Normal termination of Gaussian 16 at Mon Dec 14 17:08:22 2020.
 Gaussian 16:  ES64L-G16RevA.03 25-Dec-2016

 ----------------------------------------------------------------------
 # B3LYP/6-311++G(d,p) empiricaldispersion=gd3bj scf=xqc pop=npa geom=c
 heck
 ----------------------------------------------------------------------

 ------------------------------------
 CID_103037555_JID_3529_Energie_anion
 ------------------------------------
 Structure from the checkpoint file:  "JID_3529.chk"
 Charge = -1 Multiplicity = 2

                         Standard orientation:
 ---------------------------------------------------------------------
 Center     Atomic      Atomic             Coordinates (Angstroms)
 Number     Number       Type             X           Y           Z
 ---------------------------------------------------------------------
      1          6           0       -0.885412   -1.558352   -1.498629
      2          6           0       -0.962112   -1.373416    0.022519
      3          6           0        0.345697   -1.815872    0.726389
      4          6           0        1.712861   -1.428457    0.127222
      5          6           0        2.202415    0.032367    0.175654
      6          6           0        2.016400    0.652234    1.567097
      7          6           0        3.688613    0.060527   -0.219676
      8          8           0        1.437930    0.718566   -0.836682
      9          6           0        1.521611    2.129480   -0.880001
     10          6           0       -1.391612    0.048585    0.420940
     11          6           0       -2.726652    0.543916   -0.149915
     12          6           0       -3.911414   -0.354875    0.232073
     13          7           0       -2.894502    1.947270    0.270373
     14          1           0       -0.215161   -0.816841   -1.943105
     15          1           0       -1.871063   -1.453060   -1.964654
     16          1           0       -0.509568   -2.557132   -1.753503
     17          1           0       -1.731859   -2.062368    0.400150
     18          1           0        0.303282   -1.507848    1.779673
     19          1           0        0.340692   -2.914446    0.744444
     20          1           0        2.466181   -2.026864    0.656333
     21          1           0        1.758445   -1.744900   -0.921155
     22          1           0        2.477877    0.007342    2.322760
     23          1           0        2.494729    1.634572    1.637031
     24          1           0        0.959257    0.767099    1.817165
     25          1           0        3.826851   -0.407784   -1.199584
     26          1           0        4.070343    1.085314   -0.272289
     27          1           0        4.296741   -0.479712    0.513878
     28          1           0        1.042149    2.601885   -0.012137
     29          1           0        2.557262    2.490036   -0.953334
     30          1           0        0.981605    2.437501   -1.778860
     31          1           0       -1.455664    0.096812    1.520716
     32          1           0       -0.622119    0.755679    0.111170
     33          1           0       -2.648275    0.566134   -1.244520
     34          1           0       -3.999231   -0.432052    1.324304
     35          1           0       -4.852377    0.057304   -0.152871
     36          1           0       -3.807098   -1.370308   -0.167321
     37          1           0       -3.779016    2.303530   -0.092768
     38          1           0       -2.988284    1.973860    1.287273
 ---------------------------------------------------------------------

 SCF Done:  E(UB3LYP) =  -564.407306557     A.U. after   28 cycles

 The electronic state is 2-A.
 Alpha  occ. eigenvalues --  -19.02075 -14.18774 -10.13047 -10.11102 -10.09181
 Alpha  occ. eigenvalues --  -10.06664 -10.06298 -10.06188 -10.06007 -10.05946
 Alpha  occ. eigenvalues --  -10.05512 -10.05000 -10.04828  -0.93260  -0.78417
 Alpha  occ. eigenvalues --   -0.71646  -0.69157  -0.63822  -0.61118  -0.59802
 Alpha  occ. eigenvalues --   -0.58875  -0.57866  -0.54063  -0.48663  -0.45664
 Alpha  occ. eigenvalues --   -0.43364  -0.39484  -0.39112  -0.37263  -0.36235
 Alpha  occ. eigenvalues --   -0.35693  -0.34442  -0.33465  -0.32620  -0.31730
 Alpha  occ. eigenvalues --   -0.30999  -0.30326  -0.30195  -0.29534  -0.28533
 Alpha  occ. eigenvalues --   -0.27447  -0.27187  -0.26505  -0.25574  -0.24651
 Alpha  occ. eigenvalues --   -0.24311  -0.23214  -0.21607  -0.20805  -0.20241
 Alpha  occ. eigenvalues --   -0.19753  -0.15893  -0.14225   0.04389
 Alpha virt. eigenvalues --    0.06079   0.06924   0.07590   0.08256   0.08717
 Alpha virt. eigenvalues --    0.09012   0.09549   0.09890   0.10637   0.10999
 Alpha virt. eigenvalues --    0.11563   0.11840   0.12040   0.12887   0.13096

  Beta  occ. eigenvalues --  -19.02071 -14.18744 -10.13045 -10.11083 -10.09173
  Beta  occ. eigenvalues --  -10.06658 -10.06284 -10.06175 -10.05979 -10.05917
  Beta  occ. eigenvalues --  -10.05478 -10.04987 -10.04817  -0.93254  -0.78365
  Beta  occ. eigenvalues --   -0.71624  -0.69133  -0.63776  -0.61077  -0.59759
  Beta  occ. eigenvalues --   -0.58830  -0.57825  -0.54022  -0.48610  -0.45619
  Beta  occ. eigenvalues --   -0.43328  -0.39448  -0.39086  -0.37233  -0.36207
  Beta  occ. eigenvalues --   -0.35661  -0.34404  -0.33433  -0.32585  -0.31701
  Beta  occ. eigenvalues --   -0.30966  -0.30294  -0.30162  -0.29505  -0.28503
  Beta  occ. eigenvalues --   -0.27422  -0.27167  -0.26473  -0.25545  -0.24627
  Beta  occ. eigenvalues --   -0.24284  -0.23181  -0.21586  -0.20784  -0.20216
  Beta  occ. eigenvalues --   -0.19731  -0.15881  -0.14187
  Beta virt. eigenvalues --    0.06420   0.07068   0.07503   0.08057   0.08803
  Beta virt. eigenvalues --    0.09099   0.09458   0.09852   0.10210   0.10947
  Beta virt. eigenvalues --    0.11456   0.11885   0.12195   0.12342   0.13221

 Mulliken charges and spin densities:
               1          2
     1  C   -0.322397  -0.538602
     2  C   -0.419348   1.243432
     3  C    0.361080  -0.963378
     4  C    0.147321  -0.503113
     5  C   -1.572996   1.703928
     6  C    0.753991  -1.476142
     7  C    0.799097  -1.256477
     8  O   -0.041919   0.011289
     9  C    0.273637  -0.514512
    10  C    0.320365  -0.767664
    11  C   -0.614735   0.185397
    12  C    0.706817  -1.309944
    13  N   -0.291995   0.067161
    14  H    0.076265   0.143317
    15  H    0.124698  -0.005274
    16  H   -0.028916   0.148208
    17  H    0.181772   0.002980
    18  H    0.044797   0.087171
    19  H   -0.326516   0.510885
    20  H   -0.081562   0.255548
    21  H    0.275756  -0.116021
    22  H   -0.303755   0.474612
    23  H   -0.088839   0.248952
    24  H    0.058825   0.101881
    25  H   -0.099740   0.255850
    26  H   -0.085152   0.208481
    27  H   -0.258042   0.408886
    28  H    0.013852   0.141153
    29  H   -0.118530   0.242919
    30  H    0.097915   0.034101
    31  H   -0.159269   0.289881
    32  H    0.222283  -0.012587
    33  H    0.095491   0.096564
    34  H   -0.117299   0.269378
    35  H   -0.427619   0.560467
    36  H   -0.177974   0.322581
    37  H   -0.082111   0.304984
    38  H    0.064751   0.143705
 Sum of Mulliken charges =  -1.00000   1.00000

 Dipole moment (field-independent basis, Debye):
    X=              1.1450    Y=             -0.2532    Z=             -2.1293  Tot=              2.4308
 Quadrupole moment (field-independent basis, Debye-Ang):
   XX=           -170.4736   YY=           -129.3626   ZZ=           -121.1355
   XY=              5.3294   XZ=             -3.5734   YZ=              0.4580

 Summary of Natural Population Analysis:

                                       Natural Population
                Natural  -----------------------------------------------
    Atom  No    Charge         Core      Valence    Rydberg      Total
 -----------------------------------------------------------------------
      C    1   -0.29229      0.99964     2.28677    0.00588     3.29229
      C    2   -0.10901      0.99959     2.09956    0.00985     3.10901
      C    3   -0.18442      0.99961     2.17505    0.00976     3.18442
      C    4   -0.19602      0.99956     2.18527    0.01119     3.19602
      C    5    0.13860      0.99952     1.84559    0.01630     2.86140
      C    6   -0.30612      0.99960     2.29976    0.00675     3.30612
      C    7   -0.29630      0.99961     2.28978    0.00692     3.29630
      O    8   -0.31425      0.99987     3.30351    0.01087     4.31425
      C    9   -0.10066      0.99959     2.09192    0.00915     3.10066
      C   10   -0.19508      0.99958     2.18508    0.01042     3.19508
      C   11   -0.01474      0.99961     2.00400    0.01113     3.01474
      C   12   -0.29444      0.99965     2.28891    0.00588     3.29444
      N   13   -0.41837      0.99978     2.90831    0.01029     3.91837
      H   14    0.10781      0.00000     0.39095    0.00124     0.39219
      H   15    0.09692      0.00000     0.40227    0.00080     0.40308
      H   16    0.09576      0.00000     0.40352    0.00072     0.40424
      H   17    0.09171      0.00000     0.40638    0.00191     0.40829
      H   18    0.09746      0.00000     0.40124    0.00129     0.40254
      H   19    0.09778      0.00000     0.40115    0.00108     0.40222
      H   20    0.10066      0.00000     0.39822    0.00112     0.39934
      H   21    0.10203      0.00000     0.39651    0.00146     0.39797
      H   22    0.10606      0.00000     0.39272    0.00122     0.39394
      H   23    0.10117      0.00000     0.39774    0.00109     0.39883
      H   24    0.10701      0.00000     0.39163    0.00135     0.39299
      H   25    0.10173      0.00000     0.39727    0.00100     0.39827
      H   26    0.09891      0.00000     0.40002    0.00107     0.40109
      H   27    0.10254      0.00000     0.39626    0.00120     0.39746
      H   28    0.08324      0.00000     0.41565    0.00111     0.41676
      H   29    0.07838      0.00000     0.42052    0.00110     0.42162
      H   30    0.09114      0.00000     0.40806    0.00080     0.40886
      H   31    0.09036      0.00000     0.40810    0.00153     0.40964
      H   32    0.11078      0.00000     0.38566    0.00356     0.38922
      H   33    0.08676      0.00000     0.41130    0.00194     0.41324
      H   34    0.09589      0.00000     0.40270    0.00141     0.40411
      H   35    0.09792      0.00000     0.40055    0.00154     0.40208
      H   36    0.09913      0.00000     0.39977    0.00110     0.40087
      H   37    0.17239      0.00000     0.32576    0.00185     0.32761
      H   38    0.16956      0.00000     0.32854    0.00190     0.33044
 =======================================================================
   * Total *    0.00000     12.99521    39.84601    0.15878    53.00000

 Normal termination of Gaussian 16 at Mon Dec 14 17:25:11 2020.
