 Gaussian 16, Revision A.03,

 -----------------------------------------------------------
 # opt freq B3LYP/6-31G(d) empiricaldispersion=gd3bj scf=xqc
 -----------------------------------------------------------

 -------------------------------
 CID_114183351_JID_8452_neutraal
 -------------------------------
 Symbolic Z-matrix:
 Charge =  0 Multiplicity = 1

 SCF Done:  E(RB3LYP) =  -786.852446394     A.U. after   15 cycles
 SCF Done:  E(RB3LYP) =  -786.857992875     A.U. after   12 cycles
 SCF Done:  E(RB3LYP) =  -786.858676382     A.U. after   12 cycles
 SCF Done:  E(RB3LYP) =  -786.858825624     A.U. after   12 cycles
 SCF Done:  E(RB3LYP) =  -786.859044688     A.U. after   11 cycles
 SCF Done:  E(RB3LYP) =  -786.859184883     A.U. after   11 cycles
 SCF Done:  E(RB3LYP) =  -786.859319672     A.U. after   12 cycles
 SCF Done:  E(RB3LYP) =  -786.859392860     A.U. after   12 cycles
 SCF Done:  E(RB3LYP) =  -786.859433086     A.U. after   11 cycles
 SCF Done:  E(RB3LYP) =  -786.859611944     A.U. after   11 cycles
 SCF Done:  E(RB3LYP) =  -786.859733839     A.U. after    9 cycles
 SCF Done:  E(RB3LYP) =  -786.859733932     A.U. after    7 cycles
 SCF Done:  E(RB3LYP) =  -786.859734019     A.U. after    7 cycles
 SCF Done:  E(RB3LYP) =  -786.859734055     A.U. after    7 cycles
 SCF Done:  E(RB3LYP) =  -786.859734087     A.U. after    7 cycles
 Optimization completed.
    -- Stationary point found.
 Normal termination of Gaussian 16 at Fri Dec 11 20:23:01 2020.

 --------------------------------------------------------------------
 #N Geom=AllCheck Guess=TCheck SCRF=Check GenChk RB3LYP/6-31G(d) Freq
 --------------------------------------------------------------------

 Structure from the checkpoint file:  "JID_8452.chk"
 -------------------------------
 CID_114183351_JID_8452_neutraal
 -------------------------------
 Charge =  0 Multiplicity = 1

 SCF Done:  E(RB3LYP) =  -786.859734087     A.U. after    1 cycles

  Exact polarizability: 193.170  -0.293 149.242   3.699  -8.801 134.117
 Approx polarizability: 241.933  -0.400 230.949   3.241 -24.740 212.134

                      1                      2                      3
                      A                      A                      A
 Frequencies --     18.9365                29.8366                31.8138
 Red. masses --      5.5886                 4.5164                 5.5752
 Frc consts  --      0.0012                 0.0024                 0.0033
 IR Inten    --      0.1906                 0.3294                 0.6709

                      4                      5                      6
                      A                      A                      A
 Frequencies --     64.3985                87.2070               110.8956
 Red. masses --      3.9149                 1.9435                 3.0114
 Frc consts  --      0.0096                 0.0087                 0.0218
 IR Inten    --      0.3331                 0.1068                 0.0378

                      7                      8                      9
                      A                      A                      A
 Frequencies --    129.2214               145.1955               188.6883
 Red. masses --      4.4348                 2.9875                 2.5439
 Frc consts  --      0.0436                 0.0371                 0.0534
 IR Inten    --      0.3094                 0.1493                 1.5278

                     10                     11                     12
                      A                      A                      A
 Frequencies --    226.4512               235.0585               271.2680
 Red. masses --      3.5016                 2.5166                 2.0519
 Frc consts  --      0.1058                 0.0819                 0.0890
 IR Inten    --      0.6571                 1.0944                 1.3483

                     13                     14                     15
                      A                      A                      A
 Frequencies --    294.2027               319.3033               364.5953
 Red. masses --      2.6856                 3.4690                 2.4577
 Frc consts  --      0.1370                 0.2084                 0.1925
 IR Inten    --      4.0270                 3.7541                 4.6952

                     16                     17                     18
                      A                      A                      A
 Frequencies --    387.2139               411.1276               439.3914
 Red. masses --      2.2053                 1.8860                 2.5660
 Frc consts  --      0.1948                 0.1878                 0.2919
 IR Inten    --      1.1181                 0.3935                 0.5366

                     19                     20                     21
                      A                      A                      A
 Frequencies --    458.8716               466.8212               508.8072
 Red. masses --      1.9294                 3.0149                 2.7961
 Frc consts  --      0.2394                 0.3871                 0.4265
 IR Inten    --      1.3093                 3.2000                 1.7763

                     22                     23                     24
                      A                      A                      A
 Frequencies --    544.2072               611.0039               625.0150
 Red. masses --      3.1651                 2.4000                 4.0252
 Frc consts  --      0.5523                 0.5279                 0.9264
 IR Inten    --      2.0107                 1.8365                 7.3302

                     25                     26                     27
                      A                      A                      A
 Frequencies --    650.9990               661.2699               710.1520
 Red. masses --      2.5958                 3.5166                 1.9064
 Frc consts  --      0.6482                 0.9060                 0.5665
 IR Inten    --      1.0668                15.7201                32.1044

                     28                     29                     30
                      A                      A                      A
 Frequencies --    717.6548               765.8252               802.2495
 Red. masses --      1.6096                 3.7883                 1.4943
 Frc consts  --      0.4884                 1.3090                 0.5666
 IR Inten    --     44.2497                 4.8041                 0.9213

                     31                     32                     33
                      A                      A                      A
 Frequencies --    809.4201               824.0963               840.6609
 Red. masses --      1.6638                 1.6707                 2.0287
 Frc consts  --      0.6422                 0.6685                 0.8447
 IR Inten    --      6.6753                 1.9666                11.5728

                     34                     35                     36
                      A                      A                      A
 Frequencies --    855.4501               889.7213               892.0423
 Red. masses --      2.7440                 2.0169                 2.5178
 Frc consts  --      1.1831                 0.9407                 1.1804
 IR Inten    --     12.9593                 6.2197                17.8568

                     37                     38                     39
                      A                      A                      A
 Frequencies --    898.3057               919.3967               934.3802
 Red. masses --      2.7989                 2.2008                 2.9525
 Frc consts  --      1.3307                 1.0961                 1.5188
 IR Inten    --      0.7024                 3.4739                 5.7989

                     40                     41                     42
                      A                      A                      A
 Frequencies --    949.5298               958.9455               971.0728
 Red. masses --      1.7308                 2.2792                 1.7158
 Frc consts  --      0.9194                 1.2349                 0.9533
 IR Inten    --      5.1894                 3.7213                 1.1445

                     43                     44                     45
                      A                      A                      A
 Frequencies --    980.7870               988.0658               998.8913
 Red. masses --      6.3598                 1.9251                 2.8726
 Frc consts  --      3.6045                 1.1073                 1.6887
 IR Inten    --      1.2123                 5.0316                10.0928

                     46                     47                     48
                      A                      A                      A
 Frequencies --   1023.5659              1040.1588              1052.2716
 Red. masses --      2.4574                 2.6219                 2.0233
 Frc consts  --      1.5169                 1.6714                 1.3200
 IR Inten    --      7.2133                 0.2822                 3.5182

                     49                     50                     51
                      A                      A                      A
 Frequencies --   1054.0088              1066.1144              1077.8114
 Red. masses --      2.3962                 1.5944                 1.6231
 Frc consts  --      1.5684                 1.0677                 1.1109
 IR Inten    --     13.2394                 0.3448                 0.3869

                     52                     53                     54
                      A                      A                      A
 Frequencies --   1101.3990              1123.5348              1135.3800
 Red. masses --      2.1766                 1.7022                 2.4471
 Frc consts  --      1.5556                 1.2660                 1.8586
 IR Inten    --      0.5846                 1.6916                 5.2622

                     55                     56                     57
                      A                      A                      A
 Frequencies --   1148.4806              1157.1349              1173.1262
 Red. masses --      2.4784                 2.4562                 1.3510
 Frc consts  --      1.9261                 1.9377                 1.0954
 IR Inten    --     56.0357                 4.0094                 3.8858

                     58                     59                     60
                      A                      A                      A
 Frequencies --   1192.4600              1225.1101              1229.2648
 Red. masses --      2.1855                 1.3033                 1.5102
 Frc consts  --      1.8310                 1.1525                 1.3445
 IR Inten    --      2.1751                 0.2280                 3.4734

                     61                     62                     63
                      A                      A                      A
 Frequencies --   1236.6080              1243.2695              1267.0425
 Red. masses --      1.7431                 1.3481                 1.3102
 Frc consts  --      1.5705                 1.2277                 1.2393
 IR Inten    --     79.4300                 4.7855                 5.5759

                     64                     65                     66
                      A                      A                      A
 Frequencies --   1274.6795              1294.0222              1303.5260
 Red. masses --      1.2694                 1.4595                 1.6200
 Frc consts  --      1.2152                 1.4399                 1.6219
 IR Inten    --      8.1456                 0.8600                 0.3835

                     67                     68                     69
                      A                      A                      A
 Frequencies --   1306.8864              1321.0911              1332.0264
 Red. masses --      1.3584                 1.4012                 1.3886
 Frc consts  --      1.3670                 1.4409                 1.4516
 IR Inten    --      1.9860                 1.6662                 2.2559

                     70                     71                     72
                      A                      A                      A
 Frequencies --   1346.9020              1352.8735              1354.4636
 Red. masses --      1.5290                 1.3290                 1.3918
 Frc consts  --      1.6343                 1.4331                 1.5044
 IR Inten    --     26.1853                 1.6230                 1.7257

                     73                     74                     75
                      A                      A                      A
 Frequencies --   1359.8853              1369.1727              1381.8904
 Red. masses --      1.4236                 1.3885                 1.6718
 Frc consts  --      1.5511                 1.5336                 1.8810
 IR Inten    --     13.2680                12.6766                22.1938

                     76                     77                     78
                      A                      A                      A
 Frequencies --   1388.5971              1390.2149              1398.0687
 Red. masses --      1.4565                 1.6251                 1.3687
 Frc consts  --      1.6546                 1.8505                 1.5762
 IR Inten    --     42.8875                 0.2369                 1.8619

                     79                     80                     81
                      A                      A                      A
 Frequencies --   1410.5571              1417.5758              1429.0973
 Red. masses --      1.5833                 1.5571                 1.4848
 Frc consts  --      1.8560                 1.8436                 1.7867
 IR Inten    --      8.7753                 7.7418                 5.5310

                     82                     83                     84
                      A                      A                      A
 Frequencies --   1498.2205              1508.2946              1511.7573
 Red. masses --      1.2406                 1.1309                 1.2368
 Frc consts  --      1.6407                 1.5158                 1.6654
 IR Inten    --      6.4877                 1.0459                 2.3796

                     85                     86                     87
                      A                      A                      A
 Frequencies --   1514.3000              1518.7817              1523.7324
 Red. masses --      1.0864                 1.0880                 1.1170
 Frc consts  --      1.4678                 1.4786                 1.5279
 IR Inten    --      0.6692                 4.6408                 1.5286

                     88                     89                     90
                      A                      A                      A
 Frequencies --   1527.7589              1528.5177              1529.3887
 Red. masses --      1.2505                 1.1237                 1.7550
 Frc consts  --      1.7197                 1.5468                 2.4185
 IR Inten    --      1.7792                 6.4074                 5.2467

                     91                     92                     93
                      A                      A                      A
 Frequencies --   1537.9106              1545.0051              1552.6052
 Red. masses --      1.0965                 1.2678                 1.1020
 Frc consts  --      1.5280                 1.7831                 1.5651
 IR Inten    --      6.0250                52.4817                 2.2976

                     94                     95                     96
                      A                      A                      A
 Frequencies --   1601.5676              3000.7672              3015.2180
 Red. masses --      7.0670                 1.0821                 1.0655
 Frc consts  --     10.6802                 5.7412                 5.7073
 IR Inten    --     59.9735                12.5114                15.4943

                     97                     98                     99
                      A                      A                      A
 Frequencies --   3021.5587              3026.7701              3033.9629
 Red. masses --      1.0671                 1.0663                 1.0664
 Frc consts  --      5.7401                 5.7558                 5.7837
 IR Inten    --     24.3037                32.1149                54.4297

                    100                    101                    102
                      A                      A                      A
 Frequencies --   3035.0178              3040.2152              3042.8801
 Red. masses --      1.0662                 1.0612                 1.0702
 Frc consts  --      5.7866                 5.7791                 5.8383
 IR Inten    --     32.1325                65.4016                15.8803

                    103                    104                    105
                      A                      A                      A
 Frequencies --   3058.3986              3061.5489              3067.6233
 Red. masses --      1.0647                 1.0961                 1.0746
 Frc consts  --      5.8677                 6.0531                 5.9580
 IR Inten    --     20.8268                44.7130                12.3587

                    106                    107                    108
                      A                      A                      A
 Frequencies --   3075.2325              3081.1159              3083.8701
 Red. masses --      1.0852                 1.0997                 1.0968
 Frc consts  --      6.0465                 6.1512                 6.1455
 IR Inten    --     76.7823                27.1059                60.2492

                    109                    110                    111
                      A                      A                      A
 Frequencies --   3085.9952              3091.4069              3092.8947
 Red. masses --      1.0774                 1.0957                 1.1020
 Frc consts  --      6.0452                 6.1698                 6.2112
 IR Inten    --     15.7926                38.9563                 3.8148

                    112                    113                    114
                      A                      A                      A
 Frequencies --   3094.7996              3107.2109              3116.3220
 Red. masses --      1.0870                 1.0967                 1.1041
 Frc consts  --      6.1339                 6.2386                 6.3176
 IR Inten    --     37.2655                28.0202                89.1372

                    115                    116                    117
                      A                      A                      A
 Frequencies --   3157.0260              3288.4920              3497.4003
 Red. masses --      1.0991                 1.0998                 1.0731
 Frc consts  --      6.4543                 7.0071                 7.7334
 IR Inten    --     11.0287                 0.3695                 1.5043

 - Thermochemistry -
 -------------------
 Temperature   298.150 Kelvin.  Pressure   1.00000 Atm.
 Atom     1 has atomic number  6 and mass  12.00000

 Molecular mass:   249.18411 amu.
 Principal axes and moments of inertia in atomic units:
                           1         2         3
     Eigenvalues --  2087.623519481.25191**********
           X            0.99992   0.01289  -0.00088
           Y           -0.01289   0.99992   0.00017
           Z            0.00088  -0.00016   1.00000
 This molecule is an asymmetric top.
 Rotational symmetry number  1.
 Warning -- assumption of classical behavior for rotation
           may cause significant error
 Rotational temperatures (Kelvin)      0.04149     0.00914     0.00839
 Rotational constants (GHZ):           0.86450     0.19035     0.17480
 Zero-point vibrational energy     963234.8 (Joules/Mol)
                                  230.21865 (Kcal/Mol)
 Warning -- explicit consideration of  23 degrees of freedom as
           vibrations may cause significant error
 Vibrational temperatures:     27.25    42.93    45.77    92.66   125.47
          (Kelvin)            159.55   185.92   208.90   271.48   325.81
                              338.20   390.29   423.29   459.41   524.57
                              557.11   591.52   632.19   660.21   671.65
                              732.06   782.99   879.10   899.26   936.64
                              951.42  1021.75  1032.55  1101.85  1154.26
                             1164.57  1185.69  1209.52  1230.80  1280.11
                             1283.45  1292.46  1322.81  1344.36  1366.16
                             1379.71  1397.16  1411.13  1421.61  1437.18
                             1472.68  1496.56  1513.98  1516.48  1533.90
                             1550.73  1584.67  1616.52  1633.56  1652.41
                             1664.86  1687.87  1715.68  1762.66  1768.64
                             1779.20  1788.79  1822.99  1833.98  1861.81
                             1875.48  1880.32  1900.76  1916.49  1937.89
                             1946.48  1948.77  1956.57  1969.93  1988.23
                             1997.88  2000.21  2011.51  2029.48  2039.58
                             2056.15  2155.61  2170.10  2175.08  2178.74
                             2185.19  2192.31  2198.10  2199.20  2200.45
                             2212.71  2222.92  2233.85  2304.30  4317.43
                             4338.23  4347.35  4354.85  4365.20  4366.71
                             4374.19  4378.03  4400.35  4404.89  4413.63
                             4424.57  4433.04  4437.00  4440.06  4447.84
                             4449.99  4452.73  4470.58  4483.69  4542.26
                             4731.41  5031.98

 Zero-point correction=                           0.366877 (Hartree/Particle)
 Thermal correction to Energy=                    0.383365
 Thermal correction to Enthalpy=                  0.384310
 Thermal correction to Gibbs Free Energy=         0.320425
 Sum of electronic and zero-point Energies=           -786.492857
 Sum of electronic and thermal Energies=              -786.476369
 Sum of electronic and thermal Enthalpies=            -786.475424
 Sum of electronic and thermal Free Energies=         -786.539309

                     E (Thermal)             CV                S
                      KCal/Mol        Cal/Mol-Kelvin    Cal/Mol-Kelvin
 Total                  240.565             64.745            134.456
 Electronic               0.000              0.000              0.000
 Translational            0.889              2.981             42.440
 Rotational               0.889              2.981             33.679
 Vibrational            238.788             58.784             58.337
 Vibration     1          0.593              1.986              6.743
 Vibration     2          0.594              1.984              5.840
 Vibration     3          0.594              1.983              5.713
 Vibration     4          0.597              1.971              4.318
 Vibration     5          0.601              1.958              3.722
 Vibration     6          0.607              1.940              3.253
 Vibration     7          0.612              1.924              2.958
 Vibration     8          0.617              1.908              2.734
 Vibration     9          0.633              1.855              2.241
 Vibration    10          0.650              1.801              1.907
 Vibration    11          0.655              1.787              1.840
 Vibration    12          0.675              1.726              1.588
 Vibration    13          0.689              1.685              1.450
 Vibration    14          0.705              1.637              1.314
 Vibration    15          0.738              1.545              1.102
 Vibration    16          0.756              1.497              1.011
 Vibration    17          0.775              1.446              0.923
 Vibration    18          0.799              1.384              0.829
 Vibration    19          0.817              1.341              0.769
 Vibration    20          0.824              1.324              0.747
 Vibration    21          0.864              1.230              0.636
 Vibration    22          0.899              1.152              0.556
 Vibration    23          0.970              1.009              0.431

 Optimization completed.
    -- Stationary point found.
 Normal termination of Gaussian 16 at Fri Dec 11 20:41:14 2020.

 ----------------------------------------------------------------------
 # B3LYP/6-311++G(d,p) empiricaldispersion=gd3bj scf=xqc pop=npa geom=c
 heck
 ----------------------------------------------------------------------

 ---------------------------------------
 CID_114183351_JID_8452_Energie_neutraal
 ---------------------------------------
 Structure from the checkpoint file:  "JID_8452.chk"
 Charge =  0 Multiplicity = 1

 SCF Done:  E(RB3LYP) =  -787.071409467     A.U. after   15 cycles
 Normal termination of Gaussian 16 at Fri Dec 11 20:51:08 2020.

 ----------------------------------------------------------------------
 # B3LYP/6-311++G(d,p) empiricaldispersion=gd3bj scf=xqc pop=npa geom=c
 heck
 ----------------------------------------------------------------------

 -------------------------------------
 CID_114183351_JID_8452_Energie_kation
 -------------------------------------
 Structure from the checkpoint file:  "JID_8452.chk"
 Charge =  1 Multiplicity = 2

 SCF Done:  E(UB3LYP) =  -786.777422535     A.U. after   22 cycles
 Normal termination of Gaussian 16 at Fri Dec 11 21:12:16 2020.
 Gaussian 16:  ES64L-G16RevA.03 25-Dec-2016

 ----------------------------------------------------------------------
 # B3LYP/6-311++G(d,p) empiricaldispersion=gd3bj scf=xqc pop=npa geom=c
 heck
 ----------------------------------------------------------------------

 ------------------------------------
 CID_114183351_JID_8452_Energie_anion
 ------------------------------------
 Structure from the checkpoint file:  "JID_8452.chk"
 Charge = -1 Multiplicity = 2

                         Standard orientation:
 ---------------------------------------------------------------------
 Center     Atomic      Atomic             Coordinates (Angstroms)
 Number     Number       Type             X           Y           Z
 ---------------------------------------------------------------------
      1          6           0        4.717584    1.148380    0.752213
      2          6           0        3.610185    2.128692    0.266409
      3          6           0        2.687769    1.295754   -0.650995
      4          6           0        2.864855   -0.170446   -0.188304
      5          6           0        4.381170   -0.209067    0.097157
      6          6           0        2.452563   -1.195157   -1.255335
      7          6           0        0.941064   -1.221270   -1.504462
      8          6           0        0.142447   -1.496013   -0.223345
      9          6           0        0.544982   -0.493099    0.877835
     10          6           0        2.063629   -0.457169    1.100216
     11          7           0       -1.277618   -1.538781   -0.577745
     12          6           0       -2.238924   -1.913313    0.442280
     13          6           0       -2.784908   -0.768310    1.348147
     14          6           0       -3.455518    0.285714    0.534091
     15          7           0       -2.789140    1.264143   -0.035750
     16          8           0       -3.782610    1.961748   -0.759751
     17          6           0       -4.926557    1.306880   -0.535499
     18          7           0       -4.810663    0.273742    0.239208
     19          1           0        5.721052    1.489688    0.478780
     20          1           0        4.703821    1.064433    1.844159
     21          1           0        4.024480    2.993996   -0.260686
     22          1           0        3.047751    2.524732    1.118838
     23          1           0        3.022890    1.374844   -1.693822
     24          1           0        1.650144    1.641576   -0.624989
     25          1           0        4.667866   -1.066949    0.716646
     26          1           0        4.916380   -0.308244   -0.856789
     27          1           0        2.779733   -2.194775   -0.932623
     28          1           0        2.983337   -0.982325   -2.192782
     29          1           0        0.681428   -1.979360   -2.251391
     30          1           0        0.621177   -0.252287   -1.915462
     31          1           0        0.408301   -2.504804    0.129506
     32          1           0        0.169067    0.501213    0.602169
     33          1           0        0.059090   -0.760166    1.823781
     34          1           0        2.386907   -1.432597    1.492762
     35          1           0        2.304708    0.279244    1.876463
     36          1           0       -1.548505   -0.664200   -1.023790
     37          1           0       -3.104586   -2.385486   -0.041478
     38          1           0       -1.782590   -2.673923    1.085928
     39          1           0       -3.519550   -1.179691    2.047704
     40          1           0       -1.973822   -0.316988    1.921438
     41          1           0       -5.818290    1.694897   -1.008792
 ---------------------------------------------------------------------

 SCF Done:  E(UB3LYP) =  -787.063339552     A.U. after   33 cycles
 SCF Done:  E(UB3LYP) =  -787.063339552     a.u. after    1 cycles

 The electronic state is 2-A.
 Alpha  occ. eigenvalues --  -19.09138 -14.23742 -14.20460 -14.18700 -10.14450
 Alpha  occ. eigenvalues --  -10.11734 -10.09381 -10.09244 -10.07674 -10.07323
 Alpha  occ. eigenvalues --  -10.06780 -10.06714 -10.06577 -10.06374 -10.06371
 Alpha  occ. eigenvalues --  -10.06274 -10.06140 -10.05585  -1.04220  -0.82267
 Alpha  occ. eigenvalues --   -0.80384  -0.75634  -0.75092  -0.69911  -0.65467
 Alpha  occ. eigenvalues --   -0.64260  -0.62013  -0.61096  -0.55464  -0.53168
 Alpha  occ. eigenvalues --   -0.52491  -0.51110  -0.48366  -0.47636  -0.46666
 Alpha  occ. eigenvalues --   -0.42920  -0.41192  -0.39647  -0.38167  -0.37805
 Alpha  occ. eigenvalues --   -0.36707  -0.36356  -0.34149  -0.33429  -0.33259
 Alpha  occ. eigenvalues --   -0.33034  -0.31318  -0.30943  -0.29729  -0.29262
 Alpha  occ. eigenvalues --   -0.27803  -0.27718  -0.26857  -0.25448  -0.24973
 Alpha  occ. eigenvalues --   -0.24608  -0.24232  -0.23547  -0.22935  -0.22474
 Alpha  occ. eigenvalues --   -0.22103  -0.21447  -0.20701  -0.20361  -0.19438
 Alpha  occ. eigenvalues --   -0.18555  -0.17931  -0.11570   0.04465
 Alpha virt. eigenvalues --    0.05866   0.06948   0.07545   0.07758   0.08192
 Alpha virt. eigenvalues --    0.08557   0.09316   0.09543   0.10415   0.10442
 Alpha virt. eigenvalues --    0.11025   0.11300   0.11943   0.12574   0.13125

  Beta  occ. eigenvalues --  -19.08870 -14.23488 -14.20495 -14.18697 -10.14180
  Beta  occ. eigenvalues --  -10.11657 -10.09358 -10.09238 -10.07676 -10.07326
  Beta  occ. eigenvalues --  -10.06769 -10.06697 -10.06569 -10.06364 -10.06359
  Beta  occ. eigenvalues --  -10.06274 -10.06121 -10.05573  -1.03797  -0.82079
  Beta  occ. eigenvalues --   -0.80360  -0.75581  -0.74738  -0.69882  -0.65391
  Beta  occ. eigenvalues --   -0.64239  -0.61974  -0.61064  -0.55411  -0.53020
  Beta  occ. eigenvalues --   -0.52159  -0.51033  -0.48333  -0.47466  -0.46624
  Beta  occ. eigenvalues --   -0.42885  -0.41004  -0.39573  -0.38065  -0.37391
  Beta  occ. eigenvalues --   -0.36449  -0.36063  -0.34096  -0.33390  -0.33143
  Beta  occ. eigenvalues --   -0.32954  -0.31253  -0.30777  -0.29703  -0.29217
  Beta  occ. eigenvalues --   -0.27744  -0.27689  -0.26803  -0.25374  -0.24948
  Beta  occ. eigenvalues --   -0.24573  -0.24203  -0.23503  -0.22843  -0.22281
  Beta  occ. eigenvalues --   -0.22080  -0.20851  -0.20610  -0.20279  -0.19404
  Beta  occ. eigenvalues --   -0.18412  -0.16550  -0.11541
  Beta virt. eigenvalues --    0.06381   0.07348   0.07750   0.07766   0.08398
  Beta virt. eigenvalues --    0.08773   0.09062   0.09500   0.09707   0.10478
  Beta virt. eigenvalues --    0.10661   0.11121   0.11373   0.12068   0.12672

 Mulliken charges and spin densities:
               1          2
     1  C    0.297907  -0.748368
     2  C   -0.165441  -0.352961
     3  C   -0.394451  -0.051616
     4  C   -0.119478   1.396476
     5  C    0.158630  -0.490992
     6  C   -0.448261  -0.004649
     7  C   -0.349333   0.243267
     8  C   -0.723279  -0.356611
     9  C   -0.122419   0.265441
    10  C    0.649846  -1.985881
    11  N    0.180014   0.022440
    12  C    0.276984  -0.402619
    13  C    0.066746   0.078263
    14  C   -0.494230  -0.085322
    15  N   -0.488070   0.135820
    16  O    0.245403   0.034909
    17  C   -0.095099   0.242053
    18  N   -0.048208  -0.026674
    19  H   -0.196638   0.345537
    20  H   -0.001445   0.149564
    21  H    0.023335   0.112889
    22  H   -0.012673   0.168832
    23  H    0.006375   0.146703
    24  H    0.201808  -0.036421
    25  H   -0.088842   0.224521
    26  H   -0.090039   0.238662
    27  H   -0.034793   0.190538
    28  H    0.046298   0.099393
    29  H    0.147145   0.058857
    30  H    0.141553   0.004779
    31  H    0.105677   0.037688
    32  H    0.212516  -0.051465
    33  H    0.054542   0.082624
    34  H   -0.170487   0.359862
    35  H    0.007832   0.176649
    36  H    0.198324   0.006011
    37  H    0.139315   0.036840
    38  H   -0.177860   0.325693
    39  H    0.031832   0.176293
    40  H   -0.103474   0.237758
    41  H    0.132437  -0.004784
 Sum of Mulliken charges =  -1.00000   1.00000

 Dipole moment (field-independent basis, Debye):
    X=             -1.0694    Y=              0.2173    Z=             -2.1323  Tot=              2.3954
 Quadrupole moment (field-independent basis, Debye-Ang):
   XX=           -201.0321   YY=           -147.2493   ZZ=           -138.7354
   XY=             -3.8987   XZ=              1.0988   YZ=              1.8533

 Summary of Natural Population Analysis:

                                       Natural Population
                Natural  -----------------------------------------------
    Atom  No    Charge         Core      Valence    Rydberg      Total
 -----------------------------------------------------------------------
      C    1   -0.19391      0.99965     2.18689    0.00737     3.19391
      C    2   -0.19425      0.99965     2.18646    0.00815     3.19425
      C    3   -0.19202      0.99959     2.18367    0.00875     3.19202
      C    4   -0.03759      0.99955     2.02561    0.01243     3.03759
      C    5   -0.18634      0.99959     2.17705    0.00970     3.18634
      C    6   -0.18570      0.99958     2.17616    0.00997     3.18570
      C    7   -0.19022      0.99961     2.18113    0.00949     3.19022
      C    8   -0.00361      0.99958     1.99152    0.01251     3.00361
      C    9   -0.20189      0.99960     2.19285    0.00944     3.20189
      C   10   -0.19021      0.99958     2.17978    0.01085     3.19021
      N   11   -0.34708      0.99973     2.83625    0.01110     3.84708
      C   12   -0.07955      0.99963     2.06791    0.01202     3.07955
      C   13   -0.22173      0.99957     2.21309    0.00906     3.22173
      C   14    0.17381      0.99965     1.80552    0.02102     2.82619
      N   15   -0.07478      0.99966     2.56200    0.01312     3.57478
      O   16   -0.15165      0.99987     3.14328    0.00850     4.15165
      C   17    0.23406      0.99969     1.74751    0.01874     2.76594
      N   18   -0.28229      0.99970     2.77417    0.00842     3.78229
      H   19    0.09785      0.00000     0.40106    0.00109     0.40215
      H   20    0.09646      0.00000     0.40237    0.00116     0.40354
      H   21    0.09762      0.00000     0.40154    0.00084     0.40238
      H   22    0.09663      0.00000     0.40236    0.00102     0.40337
      H   23    0.09520      0.00000     0.40378    0.00102     0.40480
      H   24    0.10418      0.00000     0.39485    0.00097     0.39582
      H   25    0.10088      0.00000     0.39812    0.00100     0.39912
      H   26    0.09530      0.00000     0.40350    0.00119     0.40470
      H   27    0.09634      0.00000     0.40260    0.00106     0.40366
      H   28    0.09768      0.00000     0.40140    0.00092     0.40232
      H   29    0.10194      0.00000     0.39701    0.00105     0.39806
      H   30    0.09391      0.00000     0.40479    0.00130     0.40609
      H   31    0.08598      0.00000     0.41209    0.00193     0.41402
      H   32    0.10095      0.00000     0.39741    0.00164     0.39905
      H   33    0.09917      0.00000     0.39959    0.00125     0.40083
      H   34    0.09707      0.00000     0.40160    0.00133     0.40293
      H   35    0.10115      0.00000     0.39770    0.00115     0.39885
      H   36    0.18038      0.00000     0.31719    0.00243     0.31962
      H   37    0.09130      0.00000     0.40765    0.00105     0.40870
      H   38    0.09439      0.00000     0.40443    0.00117     0.40561
      H   39    0.10760      0.00000     0.39104    0.00136     0.39240
      H   40    0.10949      0.00000     0.38910    0.00140     0.39051
      H   41    0.08347      0.00000     0.41564    0.00089     0.41653
 =======================================================================
   * Total *    0.00000     17.99348    49.77765    0.22886    68.00000

 Normal termination of Gaussian 16 at Fri Dec 11 21:43:49 2020.
