 Gaussian 16, Revision A.03,

 -----------------------------------------------------------
 # opt freq B3LYP/6-31G(d) empiricaldispersion=gd3bj scf=xqc
 -----------------------------------------------------------

 -------------------------------
 CID_152409150_JID_4764_neutraal
 -------------------------------
 Symbolic Z-matrix:
 Charge =  0 Multiplicity = 1

 SCF Done:  E(RB3LYP) =  -598.494687917     A.U. after   13 cycles
 SCF Done:  E(RB3LYP) =  -598.500548473     A.U. after   11 cycles
 SCF Done:  E(RB3LYP) =  -598.499040349     A.U. after   12 cycles
 SCF Done:  E(RB3LYP) =  -598.501299602     A.U. after   11 cycles
 SCF Done:  E(RB3LYP) =  -598.502026555     A.U. after   11 cycles
 SCF Done:  E(RB3LYP) =  -598.502157294     A.U. after   10 cycles
 SCF Done:  E(RB3LYP) =  -598.502201297     A.U. after   10 cycles
 SCF Done:  E(RB3LYP) =  -598.502266206     A.U. after    9 cycles
 SCF Done:  E(RB3LYP) =  -598.502278128     A.U. after    8 cycles
 SCF Done:  E(RB3LYP) =  -598.502282530     A.U. after    8 cycles
 SCF Done:  E(RB3LYP) =  -598.502283302     A.U. after    7 cycles
 SCF Done:  E(RB3LYP) =  -598.502283484     A.U. after    6 cycles
 Optimization completed.
    -- Stationary point found.
 Normal termination of Gaussian 16 at Thu Dec 10 10:10:44 2020.

 --------------------------------------------------------------------
 #N Geom=AllCheck Guess=TCheck SCRF=Check GenChk RB3LYP/6-31G(d) Freq
 --------------------------------------------------------------------

 Structure from the checkpoint file:  "JID_4764.chk"
 -------------------------------
 CID_152409150_JID_4764_neutraal
 -------------------------------
 Charge =  0 Multiplicity = 1

 SCF Done:  E(RB3LYP) =  -598.502283484     A.U. after    1 cycles

  Exact polarizability: 158.875   1.120 130.770   0.101  -2.788 119.400
 Approx polarizability: 196.600   0.545 177.049  -0.990  -3.837 184.807

                      1                      2                      3
                      A                      A                      A
 Frequencies --     46.5972                63.8284                66.2643
 Red. masses --      2.9031                 2.6273                 2.5434
 Frc consts  --      0.0037                 0.0063                 0.0066
 IR Inten    --      0.1550                 0.6068                 1.2729

                      4                      5                      6
                      A                      A                      A
 Frequencies --     75.3820               108.2187               152.3064
 Red. masses --      2.4955                 2.1866                 2.7877
 Frc consts  --      0.0084                 0.0151                 0.0381
 IR Inten    --      0.2192                 0.8527                 0.0396

                      7                      8                      9
                      A                      A                      A
 Frequencies --    176.0549               207.4692               236.3974
 Red. masses --      2.5980                 2.9007                 1.0431
 Frc consts  --      0.0474                 0.0736                 0.0343
 IR Inten    --      0.1941                 0.4845                 0.0004

                     10                     11                     12
                      A                      A                      A
 Frequencies --    254.3200               261.1166               272.4524
 Red. masses --      1.3063                 1.1926                 2.2932
 Frc consts  --      0.0498                 0.0479                 0.1003
 IR Inten    --      1.1352                 0.3619                 0.2702

                     13                     14                     15
                      A                      A                      A
 Frequencies --    295.5295               305.4759               326.5581
 Red. masses --      1.3774                 1.5683                 2.1687
 Frc consts  --      0.0709                 0.0862                 0.1363
 IR Inten    --      1.9353                 0.1418                 2.1228

                     16                     17                     18
                      A                      A                      A
 Frequencies --    333.9369               361.5805               395.5968
 Red. masses --      2.6146                 2.4411                 2.4044
 Frc consts  --      0.1718                 0.1880                 0.2217
 IR Inten    --      1.4400                 1.6447                 0.1745

                     19                     20                     21
                      A                      A                      A
 Frequencies --    404.1295               423.9892               447.8626
 Red. masses --      2.3538                 2.2260                 2.2498
 Frc consts  --      0.2265                 0.2358                 0.2659
 IR Inten    --      0.4577                 0.3374                 2.4496

                     22                     23                     24
                      A                      A                      A
 Frequencies --    499.3978               517.3309               538.3082
 Red. masses --      2.0534                 2.2476                 2.8288
 Frc consts  --      0.3017                 0.3544                 0.4830
 IR Inten    --      0.9675                15.1051                17.1952

                     25                     26                     27
                      A                      A                      A
 Frequencies --    576.1546               609.3161               658.9369
 Red. masses --      2.9977                 1.9546                 1.7425
 Frc consts  --      0.5863                 0.4275                 0.4458
 IR Inten    --      7.5420                 3.2530                45.4382

                     28                     29                     30
                      A                      A                      A
 Frequencies --    707.7900               756.3974               818.0559
 Red. masses --      2.5522                 2.6475                 1.8675
 Frc consts  --      0.7533                 0.8925                 0.7363
 IR Inten    --     39.8189                 1.8802                15.8258

                     31                     32                     33
                      A                      A                      A
 Frequencies --    831.8508               841.5320               864.2225
 Red. masses --      1.1807                 1.9471                 2.4986
 Frc consts  --      0.4814                 0.8124                 1.0995
 IR Inten    --      0.7598                 2.8085                 1.5115

                     34                     35                     36
                      A                      A                      A
 Frequencies --    882.2027               920.1198               929.0968
 Red. masses --      1.9540                 1.8822                 1.5568
 Frc consts  --      0.8960                 0.9388                 0.7918
 IR Inten    --     27.9419                 0.5981                 2.6886

                     37                     38                     39
                      A                      A                      A
 Frequencies --    938.3318               949.8356               959.1968
 Red. masses --      1.2755                 1.7646                 1.7610
 Frc consts  --      0.6617                 0.9380                 0.9546
 IR Inten    --      0.8605                 7.7687                 0.4426

                     40                     41                     42
                      A                      A                      A
 Frequencies --    966.1278               984.6890               997.5192
 Red. masses --      1.5531                 1.8134                 2.1388
 Frc consts  --      0.8541                 1.0359                 1.2539
 IR Inten    --      0.4242                 4.0970                19.0020

                     43                     44                     45
                      A                      A                      A
 Frequencies --   1048.0983              1071.3587              1072.9589
 Red. masses --      2.4385                 1.7503                 1.8211
 Frc consts  --      1.5782                 1.1837                 1.2352
 IR Inten    --      9.5383                 0.3187                 2.7013

                     46                     47                     48
                      A                      A                      A
 Frequencies --   1094.0444              1115.8087              1137.0838
 Red. masses --      1.8678                 2.9591                 2.5743
 Frc consts  --      1.3172                 2.1706                 1.9611
 IR Inten    --      8.0704                 6.9367                 7.0045

                     49                     50                     51
                      A                      A                      A
 Frequencies --   1156.6860              1159.1938              1185.1496
 Red. masses --      1.9144                 2.0494                 1.8927
 Frc consts  --      1.5091                 1.6226                 1.5663
 IR Inten    --      9.7866                 4.1889                31.5544

                     52                     53                     54
                      A                      A                      A
 Frequencies --   1196.0418              1205.4043              1224.0683
 Red. masses --      2.0306                 1.9291                 2.2200
 Frc consts  --      1.7115                 1.6515                 1.9598
 IR Inten    --     30.2769                16.9122                15.3200

                     55                     56                     57
                      A                      A                      A
 Frequencies --   1228.3928              1246.9645              1280.8816
 Red. masses --      1.8740                 1.9644                 2.1787
 Frc consts  --      1.6661                 1.7996                 2.1060
 IR Inten    --      9.8778                55.6560                11.8973

                     58                     59                     60
                      A                      A                      A
 Frequencies --   1312.3709              1321.2164              1335.3982
 Red. masses --      1.3070                 1.2269                 1.2423
 Frc consts  --      1.3263                 1.2619                 1.3053
 IR Inten    --     17.7482                 7.1947                 0.7670

                     61                     62                     63
                      A                      A                      A
 Frequencies --   1362.1904              1379.8011              1389.6859
 Red. masses --      1.4096                 1.3631                 1.2732
 Frc consts  --      1.5411                 1.5291                 1.4488
 IR Inten    --      9.7544                 7.6099                 9.8620

                     64                     65                     66
                      A                      A                      A
 Frequencies --   1395.3625              1398.3815              1405.6885
 Red. masses --      1.5571                 1.3436                 1.3015
 Frc consts  --      1.7862                 1.5481                 1.5152
 IR Inten    --      3.6099                 0.7372                 1.4691

                     67                     68                     69
                      A                      A                      A
 Frequencies --   1410.5294              1417.9232              1435.3039
 Red. masses --      1.3689                 1.3183                 1.2481
 Frc consts  --      1.6046                 1.5616                 1.5149
 IR Inten    --      8.0617                10.0419                 4.2681

                     70                     71                     72
                      A                      A                      A
 Frequencies --   1438.2433              1440.8983              1495.1195
 Red. masses --      1.2586                 1.2975                 1.1600
 Frc consts  --      1.5340                 1.5872                 1.5278
 IR Inten    --      9.3348                11.4531                31.7159

                     73                     74                     75
                      A                      A                      A
 Frequencies --   1502.1938              1508.0519              1512.2402
 Red. masses --      1.1248                 1.0899                 1.0600
 Frc consts  --      1.4955                 1.4603                 1.4282
 IR Inten    --     10.8886                 1.2567                 0.6535

                     76                     77                     78
                      A                      A                      A
 Frequencies --   1515.9269              1517.1278              1520.2912
 Red. masses --      1.0800                 1.0504                 1.0585
 Frc consts  --      1.4622                 1.4244                 1.4414
 IR Inten    --      2.2954                 1.6158                 9.8630

                     79                     80                     81
                      A                      A                      A
 Frequencies --   1524.6338              1528.4347              1531.4765
 Red. masses --      1.0541                 1.0647                 1.0733
 Frc consts  --      1.4437                 1.4654                 1.4832
 IR Inten    --      3.5284                 7.2432                 8.1252

                     82                     83                     84
                      A                      A                      A
 Frequencies --   1533.4329              1540.9690              1543.1832
 Red. masses --      1.0584                 1.1283                 1.0736
 Frc consts  --      1.4663                 1.5785                 1.5064
 IR Inten    --      6.4843                24.1589                 9.8045

                     85                     86                     87
                      A                      A                      A
 Frequencies --   1549.5901              1559.1001              2954.3472
 Red. masses --      1.0756                 1.0854                 1.0735
 Frc consts  --      1.5217                 1.5545                 5.5207
 IR Inten    --      5.2332                 9.1284                71.6170

                     88                     89                     90
                      A                      A                      A
 Frequencies --   3030.7014              3032.7664              3038.4890
 Red. masses --      1.0660                 1.0776                 1.0481
 Frc consts  --      5.7687                 5.8395                 5.7014
 IR Inten    --     22.6411                 9.1551                 7.6469

                     91                     92                     93
                      A                      A                      A
 Frequencies --   3038.8761              3042.2890              3044.9763
 Red. masses --      1.0566                 1.0693                 1.0436
 Frc consts  --      5.7492                 5.8310                 5.7009
 IR Inten    --     22.5133                44.1952                46.0999

                     94                     95                     96
                      A                      A                      A
 Frequencies --   3045.3732              3048.8990              3064.5283
 Red. masses --      1.0396                 1.0626                 1.0639
 Frc consts  --      5.6805                 5.8197                 5.8867
 IR Inten    --     24.2035                35.1343                 0.4428

                     97                     98                     99
                      A                      A                      A
 Frequencies --   3070.2781              3075.5329              3083.2681
 Red. masses --      1.0648                 1.0944                 1.0982
 Frc consts  --      5.9138                 6.0993                 6.1509
 IR Inten    --     48.1897                50.9019                40.0563

                    100                    101                    102
                      A                      A                      A
 Frequencies --   3095.7740              3100.6629              3107.6644
 Red. masses --      1.1003                 1.0997                 1.0969
 Frc consts  --      6.2128                 6.2291                 6.2413
 IR Inten    --     47.6077                12.5607                32.2226

                    103                    104                    105
                      A                      A                      A
 Frequencies --   3109.8142              3110.0648              3125.2100
 Red. masses --      1.0964                 1.0989                 1.0964
 Frc consts  --      6.2470                 6.2625                 6.3092
 IR Inten    --     91.5108                43.0668                50.0154

                    106                    107                    108
                      A                      A                      A
 Frequencies --   3134.6127              3134.8864              3143.7263
 Red. masses --      1.1032                 1.1029                 1.0997
 Frc consts  --      6.3867                 6.3863                 6.4033
 IR Inten    --     21.9629                32.5283                16.8869

                    109                    110                    111
                      A                      A                      A
 Frequencies --   3180.1875              3526.4936              3562.8060
 Red. masses --      1.0998                 1.0730                 1.0732
 Frc consts  --      6.5534                 7.8624                 8.0266
 IR Inten    --     11.2057                 1.4979                 0.8550

 - Thermochemistry -
 -------------------
 Temperature   298.150 Kelvin.  Pressure   1.00000 Atm.
 Atom     1 has atomic number  6 and mass  12.00000

 Molecular mass:   199.20485 amu.
 Principal axes and moments of inertia in atomic units:
                           1         2         3
     Eigenvalues --  1778.592734063.745674880.64730
           X            0.99999   0.00325  -0.00358
           Y           -0.00326   0.99998  -0.00497
           Z            0.00357   0.00498   0.99998
 This molecule is an asymmetric top.
 Rotational symmetry number  1.
 Warning -- assumption of classical behavior for rotation
           may cause significant error
 Rotational temperatures (Kelvin)      0.04870     0.02131     0.01775
 Rotational constants (GHZ):           1.01470     0.44411     0.36977
 Zero-point vibrational energy     954683.4 (Joules/Mol)
                                  228.17482 (Kcal/Mol)
 Warning -- explicit consideration of  26 degrees of freedom as
           vibrations may cause significant error
 Vibrational temperatures:     67.04    91.83    95.34   108.46   155.70
          (Kelvin)            219.13   253.30   298.50   340.12   365.91
                              375.69   392.00   425.20   439.51   469.84
                              480.46   520.23   569.18   581.45   610.03
                              644.37   718.52   744.32   774.51   828.96
                              876.67   948.06  1018.35  1088.29  1177.00
                             1196.85  1210.78  1243.42  1269.29  1323.85
                             1336.76  1350.05  1366.60  1380.07  1390.04
                             1416.75  1435.21  1507.98  1541.45  1543.75
                             1574.09  1605.40  1636.01  1664.21  1667.82
                             1705.17  1720.84  1734.31  1761.16  1767.38
                             1794.10  1842.90  1888.21  1900.94  1921.34
                             1959.89  1985.23  1999.45  2007.62  2011.96
                             2022.47  2029.44  2040.08  2065.08  2069.31
                             2073.13  2151.14  2161.32  2169.75  2175.78
                             2181.08  2182.81  2187.36  2193.61  2199.08
                             2203.45  2206.27  2217.11  2220.30  2229.51
                             2243.20  4250.65  4360.50  4363.47  4371.71
                             4372.26  4377.18  4381.04  4381.61  4386.69
                             4409.17  4417.45  4425.01  4436.14  4454.13
                             4461.16  4471.24  4474.33  4474.69  4496.48
                             4510.01  4510.40  4523.12  4575.58  5073.84
                             5126.08

 Zero-point correction=                           0.363620 (Hartree/Particle)
 Thermal correction to Energy=                    0.379686
 Thermal correction to Enthalpy=                  0.380631
 Thermal correction to Gibbs Free Energy=         0.321193
 Sum of electronic and zero-point Energies=           -598.138664
 Sum of electronic and thermal Energies=              -598.122597
 Sum of electronic and thermal Enthalpies=            -598.121653
 Sum of electronic and thermal Free Energies=         -598.181091

                     E (Thermal)             CV                S
                      KCal/Mol        Cal/Mol-Kelvin    Cal/Mol-Kelvin
 Total                  238.257             62.866            125.098
 Electronic               0.000              0.000              0.000
 Translational            0.889              2.981             41.772
 Rotational               0.889              2.981             31.934
 Vibrational            236.479             56.904             51.391
 Vibration     1          0.595              1.979              4.957
 Vibration     2          0.597              1.972              4.335
 Vibration     3          0.598              1.970              4.261
 Vibration     4          0.599              1.965              4.008
 Vibration     5          0.606              1.943              3.301
 Vibration     6          0.619              1.900              2.643
 Vibration     7          0.628              1.872              2.370
 Vibration     8          0.641              1.829              2.066
 Vibration     9          0.655              1.785              1.830
 Vibration    10          0.665              1.755              1.700
 Vibration    11          0.669              1.744              1.654
 Vibration    12          0.675              1.724              1.581
 Vibration    13          0.690              1.682              1.442
 Vibration    14          0.696              1.663              1.387
 Vibration    15          0.710              1.622              1.277
 Vibration    16          0.715              1.608              1.241
 Vibration    17          0.736              1.551              1.115
 Vibration    18          0.762              1.480              0.979
 Vibration    19          0.769              1.461              0.948
 Vibration    20          0.786              1.418              0.879
 Vibration    21          0.807              1.366              0.802
 Vibration    22          0.855              1.251              0.660
 Vibration    23          0.872              1.212              0.616
 Vibration    24          0.893              1.165              0.569
 Vibration    25          0.933              1.083              0.493
 Vibration    26          0.968              1.012              0.434

                           ! Non-Optimized Parameters !
 Normal termination of Gaussian 16 at Thu Dec 10 10:24:11 2020.

 ----------------------------------------------------------------------
 # B3LYP/6-311++G(d,p) empiricaldispersion=gd3bj scf=xqc pop=npa geom=c
 heck
 ----------------------------------------------------------------------

 ---------------------------------------
 CID_152409150_JID_4764_Energie_neutraal
 ---------------------------------------
 Structure from the checkpoint file:  "JID_4764.chk"
 Charge =  0 Multiplicity = 1

 SCF Done:  E(RB3LYP) =  -598.674720522     A.U. after   13 cycles
 Normal termination of Gaussian 16 at Thu Dec 10 10:31:06 2020.

 ----------------------------------------------------------------------
 # B3LYP/6-311++G(d,p) empiricaldispersion=gd3bj scf=xqc pop=npa geom=c
 heck
 ----------------------------------------------------------------------

 -------------------------------------
 CID_152409150_JID_4764_Energie_kation
 -------------------------------------
 Structure from the checkpoint file:  "JID_4764.chk"
 Charge =  1 Multiplicity = 2

 SCF Done:  E(UB3LYP) =  -598.411378425     A.U. after   22 cycles
 Normal termination of Gaussian 16 at Thu Dec 10 10:48:56 2020.
 Gaussian 16:  ES64L-G16RevA.03 25-Dec-2016

 ----------------------------------------------------------------------
 # B3LYP/6-311++G(d,p) empiricaldispersion=gd3bj scf=xqc pop=npa geom=c
 heck
 ----------------------------------------------------------------------

 ------------------------------------
 CID_152409150_JID_4764_Energie_anion
 ------------------------------------
 Structure from the checkpoint file:  "JID_4764.chk"
 Charge = -1 Multiplicity = 2

                         Standard orientation:
 ---------------------------------------------------------------------
 Center     Atomic      Atomic             Coordinates (Angstroms)
 Number     Number       Type             X           Y           Z
 ---------------------------------------------------------------------
      1          6           0        3.986687   -1.482441   -0.836920
      2          6           0        3.052823   -0.789496    0.152552
      3          7           0        1.700366   -0.753710   -0.391741
      4          6           0        0.612795   -0.237769    0.464433
      5          6           0        1.012126    0.991399    1.327570
      6          6           0        1.338961    2.225796    0.481587
      7          6           0        0.159270    2.552433   -0.438576
      8          6           0       -0.207875    1.324101   -1.272664
      9          7           0       -0.490853    0.110067   -0.477515
     10          7           0       -1.764600    0.350640    0.178757
     11          6           0       -2.847452   -0.425439   -0.452900
     12          6           0       -2.620158   -1.938641   -0.516473
     13          6           0       -4.144129   -0.068332    0.274346
     14          6           0        0.210379   -1.401369    1.383155
     15          1           0        3.629739   -2.493408   -1.055912
     16          1           0        5.005090   -1.542835   -0.437796
     17          1           0        4.033264   -0.929045   -1.783632
     18          1           0        3.036848   -1.357570    1.090125
     19          1           0        3.462640    0.205939    0.402453
     20          1           0        1.707192   -0.271861   -1.283348
     21          1           0        0.171595    1.230515    1.993062
     22          1           0        1.852654    0.727972    1.979811
     23          1           0        2.236233    2.035151   -0.123868
     24          1           0        1.575434    3.076411    1.132098
     25          1           0        0.392793    3.398032   -1.097709
     26          1           0       -0.713461    2.831995    0.163218
     27          1           0        0.596976    1.099357   -1.984804
     28          1           0       -1.100737    1.512754   -1.875078
     29          1           0       -1.691793    0.080865    1.155725
     30          1           0       -2.915032   -0.050955   -1.483241
     31          1           0       -2.619993   -2.379619    0.488475
     32          1           0       -3.414163   -2.424901   -1.095642
     33          1           0       -1.659657   -2.150735   -0.992960
     34          1           0       -4.294782    1.015453    0.288929
     35          1           0       -5.005293   -0.539914   -0.210388
     36          1           0       -4.116398   -0.423065    1.313715
     37          1           0       -0.173885   -2.229778    0.787716
     38          1           0        1.096798   -1.747593    1.922250
     39          1           0       -0.527007   -1.123607    2.143639
 ---------------------------------------------------------------------

 SCF Done:  E(UB3LYP) =  -598.659300005     A.U. after   28 cycles

 The electronic state is 2-A.
 Alpha  occ. eigenvalues --  -14.22542 -14.21886 -14.19258 -10.13553 -10.09974
 Alpha  occ. eigenvalues --  -10.09237 -10.08890 -10.06368 -10.06361 -10.06209
 Alpha  occ. eigenvalues --  -10.06206 -10.05959 -10.05821 -10.05567  -0.87993
 Alpha  occ. eigenvalues --   -0.80808  -0.73850  -0.68567  -0.67437  -0.64479
 Alpha  occ. eigenvalues --   -0.61952  -0.59229  -0.58974  -0.53352  -0.51455
 Alpha  occ. eigenvalues --   -0.49779  -0.48208  -0.44901  -0.41965  -0.37733
 Alpha  occ. eigenvalues --   -0.37479  -0.37195  -0.35433  -0.35025  -0.34176
 Alpha  occ. eigenvalues --   -0.33388  -0.32315  -0.31569  -0.30795  -0.29646
 Alpha  occ. eigenvalues --   -0.28896  -0.28269  -0.27916  -0.27436  -0.26699
 Alpha  occ. eigenvalues --   -0.26343  -0.25888  -0.25063  -0.24811  -0.24026
 Alpha  occ. eigenvalues --   -0.23828  -0.22417  -0.21758  -0.16747  -0.12405
 Alpha  occ. eigenvalues --   -0.09878   0.04369
 Alpha virt. eigenvalues --    0.06151   0.06895   0.07146   0.08262   0.08537
 Alpha virt. eigenvalues --    0.08871   0.09438   0.09533   0.10344   0.10872
 Alpha virt. eigenvalues --    0.11351   0.11463   0.11896   0.12382   0.12947

  Beta  occ. eigenvalues --  -14.22540 -14.21876 -14.19248 -10.13550 -10.09967
  Beta  occ. eigenvalues --  -10.09217 -10.08877 -10.06348 -10.06333 -10.06195
  Beta  occ. eigenvalues --  -10.06177 -10.05946 -10.05801 -10.05552  -0.87980
  Beta  occ. eigenvalues --   -0.80789  -0.73831  -0.68540  -0.67412  -0.64445
  Beta  occ. eigenvalues --   -0.61913  -0.59196  -0.58931  -0.53308  -0.51391
  Beta  occ. eigenvalues --   -0.49731  -0.48160  -0.44860  -0.41933  -0.37702
  Beta  occ. eigenvalues --   -0.37449  -0.37166  -0.35405  -0.34998  -0.34150
  Beta  occ. eigenvalues --   -0.33358  -0.32288  -0.31539  -0.30765  -0.29614
  Beta  occ. eigenvalues --   -0.28865  -0.28240  -0.27887  -0.27412  -0.26665
  Beta  occ. eigenvalues --   -0.26309  -0.25860  -0.25033  -0.24782  -0.23999
  Beta  occ. eigenvalues --   -0.23795  -0.22388  -0.21727  -0.16732  -0.12379
  Beta  occ. eigenvalues --   -0.09868
  Beta virt. eigenvalues --    0.06360   0.06949   0.07572   0.07700   0.08720
  Beta virt. eigenvalues --    0.08918   0.09225   0.09715   0.09938   0.10674
  Beta virt. eigenvalues --    0.11151   0.11638   0.11776   0.12217   0.12750

 Mulliken charges and spin densities:
               1          2
     1  C    1.063262  -1.664102
     2  C   -0.316416   0.195064
     3  N    0.008724   0.167970
     4  C   -1.769911   0.498648
     5  C   -0.313497   0.371258
     6  C    0.254908  -0.627687
     7  C    0.299137  -0.819824
     8  C   -0.183933   0.276441
     9  N    0.406000   0.052346
    10  N   -0.248146   0.041180
    11  C   -0.600822   0.425761
    12  C    0.245475  -0.735450
    13  C    0.183767  -0.672749
    14  C    1.521785  -1.821164
    15  H    0.000381   0.146789
    16  H   -0.247366   0.385273
    17  H   -0.279511   0.401967
    18  H   -0.093770   0.225541
    19  H   -0.087602   0.209968
    20  H    0.393352  -0.178145
    21  H   -0.469663   0.636990
    22  H   -0.167380   0.355975
    23  H    0.015027   0.110130
    24  H   -0.322937   0.508317
    25  H   -0.218735   0.389475
    26  H    0.218307  -0.091350
    27  H   -0.229501   0.329686
    28  H   -0.137110   0.311158
    29  H    0.647254  -0.444733
    30  H    0.099309   0.023443
    31  H    0.038618   0.097984
    32  H   -0.027518   0.165927
    33  H    0.027630   0.137122
    34  H   -0.055557   0.211602
    35  H   -0.158978   0.295569
    36  H   -0.275755   0.408279
    37  H    0.284879  -0.112871
    38  H   -0.057806   0.210596
    39  H   -0.445901   0.577616
 Sum of Mulliken charges =  -1.00000   1.00000

 Dipole moment (field-independent basis, Debye):
    X=             -1.7509    Y=             -0.5899    Z=             -1.2478  Tot=              2.2295
 Quadrupole moment (field-independent basis, Debye-Ang):
   XX=           -170.3857   YY=           -136.2642   ZZ=           -132.5996
   XY=             -1.5187   XZ=              4.2552   YZ=             -0.0145

 Summary of Natural Population Analysis:

                                       Natural Population
                Natural  -----------------------------------------------
    Atom  No    Charge         Core      Valence    Rydberg      Total
 -----------------------------------------------------------------------
      C    1   -0.28279      0.99967     2.27861    0.00451     3.28279
      C    2   -0.08900      0.99963     2.07888    0.01049     3.08900
      N    3   -0.35223      0.99969     2.83969    0.01284     3.85223
      C    4    0.17123      0.99956     1.81242    0.01679     2.82877
      C    5   -0.21056      0.99957     2.20112    0.00987     3.21056
      C    6   -0.19212      0.99962     2.18331    0.00919     3.19212
      C    7   -0.20166      0.99962     2.19406    0.00799     3.20166
      C    8   -0.08097      0.99960     2.06937    0.01200     3.08097
      N    9   -0.20551      0.99969     2.69136    0.01446     3.70551
      N   10   -0.25966      0.99974     2.74718    0.01274     3.75966
      C   11   -0.01139      0.99962     1.99989    0.01187     3.01139
      C   12   -0.29624      0.99964     2.29187    0.00473     3.29624
      C   13   -0.28791      0.99964     2.28249    0.00578     3.28791
      C   14   -0.29239      0.99960     2.28487    0.00792     3.29239
      H   15    0.09879      0.00000     0.39987    0.00134     0.40121
      H   16    0.09860      0.00000     0.40031    0.00109     0.40140
      H   17    0.09493      0.00000     0.40367    0.00141     0.40507
      H   18    0.08946      0.00000     0.40888    0.00167     0.41054
      H   19    0.07933      0.00000     0.41878    0.00189     0.42067
      H   20    0.17815      0.00000     0.31819    0.00366     0.32185
      H   21    0.10007      0.00000     0.39852    0.00142     0.39993
      H   22    0.10327      0.00000     0.39537    0.00135     0.39673
      H   23    0.09367      0.00000     0.40435    0.00198     0.40633
      H   24    0.09942      0.00000     0.39948    0.00109     0.40058
      H   25    0.09817      0.00000     0.40079    0.00104     0.40183
      H   26    0.10117      0.00000     0.39732    0.00151     0.39883
      H   27    0.08737      0.00000     0.41127    0.00136     0.41263
      H   28    0.09951      0.00000     0.39928    0.00121     0.40049
      H   29    0.17328      0.00000     0.32291    0.00381     0.32672
      H   30    0.08736      0.00000     0.41071    0.00193     0.41264
      H   31    0.09490      0.00000     0.40404    0.00106     0.40510
      H   32    0.09663      0.00000     0.40258    0.00079     0.40337
      H   33    0.10947      0.00000     0.38916    0.00138     0.39053
      H   34    0.10358      0.00000     0.39536    0.00106     0.39642
      H   35    0.09945      0.00000     0.39970    0.00085     0.40055
      H   36    0.09628      0.00000     0.40256    0.00116     0.40372
      H   37    0.10894      0.00000     0.38966    0.00139     0.39106
      H   38    0.10419      0.00000     0.39476    0.00105     0.39581
      H   39    0.09520      0.00000     0.40353    0.00127     0.40480
 =======================================================================
   * Total *   -0.00000     13.99488    41.82617    0.17895    56.00000

 Normal termination of Gaussian 16 at Thu Dec 10 11:07:58 2020.
