 Gaussian 16, Revision A.03,

 -----------------------------------------------------------
 # opt freq B3LYP/6-31G(d) empiricaldispersion=gd3bj scf=xqc
 -----------------------------------------------------------

 -------------------------------
 CID_153738322_JID_7486_neutraal
 -------------------------------
 Symbolic Z-matrix:
 Charge =  0 Multiplicity = 1

 SCF Done:  E(RB3LYP) =  -743.941894067     A.U. after   14 cycles
 SCF Done:  E(RB3LYP) =  -743.948963651     A.U. after   13 cycles
 SCF Done:  E(RB3LYP) =  -743.950581134     A.U. after   12 cycles
 SCF Done:  E(RB3LYP) =  -743.951152708     A.U. after   12 cycles
 SCF Done:  E(RB3LYP) =  -743.951292988     A.U. after   12 cycles
 SCF Done:  E(RB3LYP) =  -743.951525927     A.U. after   11 cycles
 SCF Done:  E(RB3LYP) =  -743.951678692     A.U. after   11 cycles
 SCF Done:  E(RB3LYP) =  -743.951729176     A.U. after   11 cycles
 SCF Done:  E(RB3LYP) =  -743.951838025     A.U. after   11 cycles
 SCF Done:  E(RB3LYP) =  -743.951895859     A.U. after   11 cycles
 SCF Done:  E(RB3LYP) =  -743.953056717     A.U. after   11 cycles
 SCF Done:  E(RB3LYP) =  -743.953063116     A.U. after    9 cycles
 SCF Done:  E(RB3LYP) =  -743.953063802     A.U. after    8 cycles
 SCF Done:  E(RB3LYP) =  -743.953063921     A.U. after    7 cycles
 SCF Done:  E(RB3LYP) =  -743.953063938     A.U. after    6 cycles
 Optimization completed.
    -- Stationary point found.
 Normal termination of Gaussian 16 at Sun Dec 13 20:19:36 2020.

 --------------------------------------------------------------------
 #N Geom=AllCheck Guess=TCheck SCRF=Check GenChk RB3LYP/6-31G(d) Freq
 --------------------------------------------------------------------

 Structure from the checkpoint file:  "JID_7486.chk"
 -------------------------------
 CID_153738322_JID_7486_neutraal
 -------------------------------
 Charge =  0 Multiplicity = 1

 SCF Done:  E(RB3LYP) =  -743.953063938     A.U. after    1 cycles

  Exact polarizability: 236.730   8.809 174.256  -5.045  -4.386  81.346
 Approx polarizability: 331.192  10.625 303.478 -13.757  -8.241 132.593

                      1                      2                      3
                      A                      A                      A
 Frequencies --     38.4576                62.7720                73.2888
 Red. masses --      3.3950                 4.3545                 3.2314
 Frc consts  --      0.0030                 0.0101                 0.0102
 IR Inten    --      0.6706                 1.4586                 0.9992

                      4                      5                      6
                      A                      A                      A
 Frequencies --     85.5077               112.1463               128.8242
 Red. masses --      4.1110                 2.9852                 3.9772
 Frc consts  --      0.0177                 0.0221                 0.0389
 IR Inten    --      0.8447                 0.3386                 0.3574

                      7                      8                      9
                      A                      A                      A
 Frequencies --    200.4927               212.4995               256.0023
 Red. masses --      4.1332                 3.3532                 2.3373
 Frc consts  --      0.0979                 0.0892                 0.0902
 IR Inten    --      2.4070                 4.2829                 1.8620

                     10                     11                     12
                      A                      A                      A
 Frequencies --    281.1635               293.8367               326.7366
 Red. masses --      1.7596                 4.7742                 3.6241
 Frc consts  --      0.0820                 0.2429                 0.2280
 IR Inten    --      0.6613                 2.2022                 5.5628

                     13                     14                     15
                      A                      A                      A
 Frequencies --    339.6301               386.0562               391.0547
 Red. masses --      1.3392                 3.1736                 3.1906
 Frc consts  --      0.0910                 0.2787                 0.2875
 IR Inten    --     29.7344                12.9599                11.7839

                     16                     17                     18
                      A                      A                      A
 Frequencies --    404.9828               425.6418               445.0142
 Red. masses --      4.4138                 3.2227                 3.5575
 Frc consts  --      0.4265                 0.3440                 0.4151
 IR Inten    --      8.4819                 8.7727                 3.6136

                     19                     20                     21
                      A                      A                      A
 Frequencies --    482.9603               510.6814               523.9380
 Red. masses --      4.1905                 2.5151                 1.3953
 Frc consts  --      0.5759                 0.3865                 0.2257
 IR Inten    --     12.7738                22.0355                70.2802

                     22                     23                     24
                      A                      A                      A
 Frequencies --    552.1618               566.0855               592.0909
 Red. masses --      1.3242                 4.2106                 3.2314
 Frc consts  --      0.2379                 0.7950                 0.6675
 IR Inten    --    159.1408                11.7418                33.2268

                     25                     26                     27
                      A                      A                      A
 Frequencies --    625.6776               640.6983               651.6935
 Red. masses --      4.1784                 3.3884                 4.2127
 Frc consts  --      0.9638                 0.8195                 1.0541
 IR Inten    --     13.2659                78.1615                11.0286

                     28                     29                     30
                      A                      A                      A
 Frequencies --    692.1052               715.2452               747.6861
 Red. masses --      1.8968                 5.9412                 4.7462
 Frc consts  --      0.5353                 1.7908                 1.5633
 IR Inten    --    133.1416                22.7724                17.3481

                     31                     32                     33
                      A                      A                      A
 Frequencies --    762.5129               772.5243               795.8352
 Red. masses --      2.4608                 1.6150                 1.6607
 Frc consts  --      0.8430                 0.5679                 0.6197
 IR Inten    --     20.2829                25.0579                70.2863

                     34                     35                     36
                      A                      A                      A
 Frequencies --    807.2089               822.7057               859.5713
 Red. masses --      2.8792                 1.3265                 3.2553
 Frc consts  --      1.1053                 0.5290                 1.4171
 IR Inten    --     30.0367                 6.3654                 1.4281

                     37                     38                     39
                      A                      A                      A
 Frequencies --    913.2567               921.3720               927.9515
 Red. masses --      2.2468                 1.3311                 1.4033
 Frc consts  --      1.1041                 0.6658                 0.7119
 IR Inten    --     12.4900                 1.7498                 7.0957

                     40                     41                     42
                      A                      A                      A
 Frequencies --    974.9996              1010.1940              1014.8594
 Red. masses --      1.4021                 1.4556                 3.8425
 Frc consts  --      0.7853                 0.8752                 2.3317
 IR Inten    --      0.5686                 3.1931                 4.8957

                     43                     44                     45
                      A                      A                      A
 Frequencies --   1029.5783              1057.3672              1080.9471
 Red. masses --      2.8470                 4.3590                 2.6374
 Frc consts  --      1.7781                 2.8714                 1.8156
 IR Inten    --      7.6379                81.5098                 4.6180

                     46                     47                     48
                      A                      A                      A
 Frequencies --   1106.6451              1122.7195              1125.9636
 Red. masses --      1.8663                 1.9115                 1.6059
 Frc consts  --      1.3466                 1.4196                 1.1995
 IR Inten    --      1.9818                26.1356                 7.0808

                     49                     50                     51
                      A                      A                      A
 Frequencies --   1167.8432              1184.2620              1194.0604
 Red. masses --      1.3447                 1.7146                 1.1545
 Frc consts  --      1.0806                 1.4168                 0.9699
 IR Inten    --      7.6218                25.3044                 8.2397

                     52                     53                     54
                      A                      A                      A
 Frequencies --   1202.1526              1234.5224              1289.8934
 Red. masses --      1.7235                 2.7425                 1.9885
 Frc consts  --      1.4675                 2.4626                 1.9494
 IR Inten    --     11.3202               149.2668                33.1410

                     55                     56                     57
                      A                      A                      A
 Frequencies --   1305.4496              1314.6806              1339.5450
 Red. masses --      3.5026                 3.1224                 1.6466
 Frc consts  --      3.5169                 3.1796                 1.7408
 IR Inten    --      2.8729                58.4906                 1.1933

                     58                     59                     60
                      A                      A                      A
 Frequencies --   1344.7796              1369.5988              1379.5075
 Red. masses --      1.2387                 4.2148                 3.9281
 Frc consts  --      1.3199                 4.6582                 4.4043
 IR Inten    --     17.9749                 6.5812                10.6171

                     61                     62                     63
                      A                      A                      A
 Frequencies --   1416.6478              1440.3632              1465.7681
 Red. masses --      1.2423                 1.3009                 2.1701
 Frc consts  --      1.4689                 1.5902                 2.7470
 IR Inten    --      1.1238                33.7534                41.0548

                     64                     65                     66
                      A                      A                      A
 Frequencies --   1493.8076              1514.0550              1516.1955
 Red. masses --      3.4954                 2.0569                 1.1091
 Frc consts  --      4.5956                 2.7781                 1.5022
 IR Inten    --    114.2229                38.7088                 7.4232

                     67                     68                     69
                      A                      A                      A
 Frequencies --   1522.8334              1538.4372              1545.2258
 Red. masses --      1.1216                 1.4162                 1.7563
 Frc consts  --      1.5324                 1.9748                 2.4708
 IR Inten    --      5.2281                36.9453                77.3113

                     70                     71                     72
                      A                      A                      A
 Frequencies --   1619.5606              1621.7724              1647.6746
 Red. masses --      4.6074                 1.7456                 5.3309
 Frc consts  --      7.1204                 2.7050                 8.5270
 IR Inten    --     42.3895                63.2592                99.9339

                     73                     74                     75
                      A                      A                      A
 Frequencies --   1650.4277              1662.3117              1693.7605
 Red. masses --      5.1462                 2.8194                 1.1714
 Frc consts  --      8.2591                 4.5903                 1.9799
 IR Inten    --     47.3260               140.8875                80.2831

                     76                     77                     78
                      A                      A                      A
 Frequencies --   3029.2339              3055.1802              3095.9276
 Red. masses --      1.0653                 1.0363                 1.0996
 Frc consts  --      5.7593                 5.6989                 6.2099
 IR Inten    --     34.7791                19.1102                37.0456

                     79                     80                     81
                      A                      A                      A
 Frequencies --   3122.4350              3141.4445              3167.6291
 Red. masses --      1.1011                 1.1034                 1.0892
 Frc consts  --      6.3250                 6.4157                 6.4393
 IR Inten    --     29.8381                42.6004                31.5602

                     82                     83                     84
                      A                      A                      A
 Frequencies --   3182.7646              3192.7033              3213.8997
 Red. masses --      1.0885                 1.0889                 1.0933
 Frc consts  --      6.4966                 6.5396                 6.6538
 IR Inten    --     15.8948                14.5892                15.5485

                     85                     86                     87
                      A                      A                      A
 Frequencies --   3216.8425              3234.3385              3531.7181
 Red. masses --      1.0956                 1.0935                 1.0483
 Frc consts  --      6.6801                 6.7398                 7.7036
 IR Inten    --     23.9467                 1.5161                 5.4138

                     88                     89                     90
                      A                      A                      A
 Frequencies --   3551.6231              3629.2265              3686.3565
 Red. masses --      1.0484                 1.0972                 1.0984
 Frc consts  --      7.7915                 8.5142                 8.7944
 IR Inten    --     66.9231                 8.3553                75.2070

 - Thermochemistry -
 -------------------
 Temperature   298.150 Kelvin.  Pressure   1.00000 Atm.
 Atom     1 has atomic number  6 and mass  12.00000

 Molecular mass:   229.12151 amu.
 Principal axes and moments of inertia in atomic units:
                           1         2         3
     Eigenvalues --  1902.012706140.217567561.25737
           X            0.99993  -0.00674   0.00928
           Y            0.00677   0.99997  -0.00264
           Z           -0.00926   0.00271   0.99995
 This molecule is an asymmetric top.
 Rotational symmetry number  1.
 Warning -- assumption of classical behavior for rotation
           may cause significant error
 Rotational temperatures (Kelvin)      0.04554     0.01411     0.01145
 Rotational constants (GHZ):           0.94886     0.29392     0.23868
 Zero-point vibrational energy     697409.7 (Joules/Mol)
                                  166.68493 (Kcal/Mol)
 Warning -- explicit consideration of  24 degrees of freedom as
           vibrations may cause significant error
 Vibrational temperatures:     55.33    90.31   105.45   123.03   161.35
          (Kelvin)            185.35   288.46   305.74   368.33   404.53
                              422.77   470.10   488.65   555.45   562.64
                              582.68   612.40   640.28   694.87   734.76
                              753.83   794.44   814.47   851.89   900.21
                              921.82   937.64   995.78  1029.08  1075.75
                             1097.09  1111.49  1145.03  1161.39  1183.69
                             1236.73  1313.97  1325.65  1335.12  1402.81
                             1453.44  1460.16  1481.33  1521.32  1555.24
                             1592.22  1615.34  1620.01  1680.27  1703.89
                             1717.99  1729.63  1776.20  1855.87  1878.25
                             1891.53  1927.31  1934.84  1970.55  1984.80
                             2038.24  2072.36  2108.91  2149.26  2178.39
                             2181.47  2191.02  2213.47  2223.24  2330.19
                             2333.37  2370.64  2374.60  2391.70  2436.94
                             4358.39  4395.72  4454.35  4492.49  4519.84
                             4557.51  4579.29  4593.59  4624.08  4628.32
                             4653.49  5081.35  5109.99  5221.65  5303.84

 Zero-point correction=                           0.265629 (Hartree/Particle)
 Thermal correction to Energy=                    0.280815
 Thermal correction to Enthalpy=                  0.281759
 Thermal correction to Gibbs Free Energy=         0.223317
 Sum of electronic and zero-point Energies=           -743.687435
 Sum of electronic and thermal Energies=              -743.672249
 Sum of electronic and thermal Enthalpies=            -743.671305
 Sum of electronic and thermal Free Energies=         -743.729747

                     E (Thermal)             CV                S
                      KCal/Mol        Cal/Mol-Kelvin    Cal/Mol-Kelvin
 Total                  176.214             60.310            123.002
 Electronic               0.000              0.000              0.000
 Translational            0.889              2.981             42.189
 Rotational               0.889              2.981             32.846
 Vibrational            174.436             54.348             47.967
 Vibration     1          0.594              1.982              5.337
 Vibration     2          0.597              1.972              4.368
 Vibration     3          0.599              1.967              4.063
 Vibration     4          0.601              1.959              3.760
 Vibration     5          0.607              1.939              3.231
 Vibration     6          0.611              1.924              2.964
 Vibration     7          0.638              1.839              2.129
 Vibration     8          0.644              1.822              2.022
 Vibration     9          0.666              1.753              1.689
 Vibration    10          0.681              1.708              1.527
 Vibration    11          0.689              1.685              1.452
 Vibration    12          0.710              1.622              1.276
 Vibration    13          0.720              1.596              1.214
 Vibration    14          0.755              1.500              1.015
 Vibration    15          0.759              1.489              0.996
 Vibration    16          0.770              1.459              0.945
 Vibration    17          0.787              1.414              0.873
 Vibration    18          0.804              1.372              0.811
 Vibration    19          0.839              1.288              0.702
 Vibration    20          0.866              1.226              0.632
 Vibration    21          0.879              1.197              0.601
 Vibration    22          0.908              1.135              0.540
 Vibration    23          0.922              1.105              0.512
 Vibration    24          0.950              1.049              0.463

 Optimization completed.
    -- Stationary point found.
 Normal termination of Gaussian 16 at Sun Dec 13 20:30:56 2020.

 ----------------------------------------------------------------------
 # B3LYP/6-311++G(d,p) empiricaldispersion=gd3bj scf=xqc pop=npa geom=c
 heck
 ----------------------------------------------------------------------

 ---------------------------------------
 CID_153738322_JID_7486_Energie_neutraal
 ---------------------------------------
 Structure from the checkpoint file:  "JID_7486.chk"
 Charge =  0 Multiplicity = 1

 SCF Done:  E(RB3LYP) =  -744.162500965     A.U. after   15 cycles
 Normal termination of Gaussian 16 at Sun Dec 13 20:36:19 2020.

 ----------------------------------------------------------------------
 # B3LYP/6-311++G(d,p) empiricaldispersion=gd3bj scf=xqc pop=npa geom=c
 heck
 ----------------------------------------------------------------------

 -------------------------------------
 CID_153738322_JID_7486_Energie_kation
 -------------------------------------
 Structure from the checkpoint file:  "JID_7486.chk"
 Charge =  1 Multiplicity = 2

 SCF Done:  E(UB3LYP) =  -743.908579233     A.U. after   23 cycles
 Normal termination of Gaussian 16 at Sun Dec 13 20:48:19 2020.
 Gaussian 16:  ES64L-G16RevA.03 25-Dec-2016

 ----------------------------------------------------------------------
 # B3LYP/6-311++G(d,p) empiricaldispersion=gd3bj scf=xqc pop=npa geom=c
 heck
 ----------------------------------------------------------------------

 ------------------------------------
 CID_153738322_JID_7486_Energie_anion
 ------------------------------------
 Structure from the checkpoint file:  "JID_7486.chk"
 Charge = -1 Multiplicity = 2

                         Standard orientation:
 ---------------------------------------------------------------------
 Center     Atomic      Atomic             Coordinates (Angstroms)
 Number     Number       Type             X           Y           Z
 ---------------------------------------------------------------------
      1          6           0        4.638322   -0.471824    0.954472
      2          6           0        3.660063   -1.418138    0.272949
      3          8           0        3.001913   -0.830237   -0.863946
      4          6           0        1.987621    0.062693   -0.538974
      5          6           0        0.677954   -0.446364   -0.394149
      6          6           0       -0.386156    0.439958   -0.068559
      7          6           0       -0.090146    1.811824    0.142167
      8          6           0        1.213031    2.289931   -0.037204
      9          6           0        2.239268    1.416411   -0.386426
     10          7           0       -1.092903    2.732701    0.495763
     11          6           0       -1.776270   -0.070120    0.016966
     12          6           0       -2.863937    0.663182   -0.497631
     13          6           0       -4.150321    0.145212   -0.401672
     14          6           0       -4.340340   -1.100572    0.195618
     15          6           0       -3.210663   -1.775904    0.650831
     16          7           0       -1.969030   -1.288710    0.571794
     17          7           0        0.464493   -1.783171   -0.647426
     18          1           0        5.380196   -0.106324    0.236734
     19          1           0        5.163955   -0.993722    1.762816
     20          1           0        4.118057    0.388067    1.386460
     21          1           0        4.187844   -2.288979   -0.129639
     22          1           0        2.907377   -1.774496    0.990241
     23          1           0        1.418937    3.346997    0.106969
     24          1           0        3.251714    1.779790   -0.530049
     25          1           0       -1.840251    2.340493    1.057099
     26          1           0       -0.716429    3.563367    0.937794
     27          1           0       -2.686168    1.621155   -0.971449
     28          1           0       -4.993025    0.703034   -0.801187
     29          1           0       -5.326398   -1.543493    0.292027
     30          1           0       -3.303429   -2.761883    1.103446
     31          1           0       -0.288997   -2.210990   -0.124358
     32          1           0        1.302832   -2.324595   -0.796583
 ---------------------------------------------------------------------

 SCF Done:  E(UB3LYP) =  -744.154774358     A.U. after   33 cycles
 SCF Done:  E(UB3LYP) =  -744.154786142     a.u. after    4 cycles

 The electronic state is 2-A.
 Alpha  occ. eigenvalues --  -19.02067 -14.18669 -14.17349 -14.14293 -10.12155
 Alpha  occ. eigenvalues --  -10.07588 -10.07353 -10.07228 -10.07017 -10.06033
 Alpha  occ. eigenvalues --  -10.05002 -10.03363 -10.03045 -10.02969 -10.02909
 Alpha  occ. eigenvalues --  -10.02842 -10.02204  -0.93280  -0.79933  -0.78367
 Alpha  occ. eigenvalues --   -0.77470  -0.69159  -0.66081  -0.65144  -0.63470
 Alpha  occ. eigenvalues --   -0.58465  -0.58295  -0.52415  -0.50206  -0.48607
 Alpha  occ. eigenvalues --   -0.46125  -0.45482  -0.40499  -0.39859  -0.38686
 Alpha  occ. eigenvalues --   -0.37394  -0.36680  -0.36312  -0.33490  -0.32998
 Alpha  occ. eigenvalues --   -0.32597  -0.31644  -0.30074  -0.28930  -0.28749
 Alpha  occ. eigenvalues --   -0.28327  -0.27287  -0.25968  -0.24963  -0.24604
 Alpha  occ. eigenvalues --   -0.24194  -0.22814  -0.21459  -0.20221  -0.16508
 Alpha  occ. eigenvalues --   -0.15802  -0.14644  -0.13207  -0.11108  -0.07555
 Alpha  occ. eigenvalues --   -0.06532   0.05778
 Alpha virt. eigenvalues --    0.06758   0.07838   0.08553   0.09009   0.09625
 Alpha virt. eigenvalues --    0.10004   0.10807   0.11135   0.11433   0.12178
 Alpha virt. eigenvalues --    0.12567   0.13296   0.13398   0.13686   0.13914

  Beta  occ. eigenvalues --  -19.02069 -14.18632 -14.17322 -14.13887 -10.12155
  Beta  occ. eigenvalues --  -10.07612 -10.07254 -10.07095 -10.07013 -10.06111
  Beta  occ. eigenvalues --  -10.04720 -10.03188 -10.03045 -10.03013 -10.02884
  Beta  occ. eigenvalues --  -10.02707 -10.01992  -0.93278  -0.79605  -0.78113
  Beta  occ. eigenvalues --   -0.77230  -0.69026  -0.66047  -0.64607  -0.63130
  Beta  occ. eigenvalues --   -0.58281  -0.58153  -0.52337  -0.49738  -0.48503
  Beta  occ. eigenvalues --   -0.45894  -0.45246  -0.40437  -0.39757  -0.38584
  Beta  occ. eigenvalues --   -0.37349  -0.36589  -0.36191  -0.33416  -0.32799
  Beta  occ. eigenvalues --   -0.32481  -0.31477  -0.29995  -0.28881  -0.28698
  Beta  occ. eigenvalues --   -0.28191  -0.27030  -0.25640  -0.24470  -0.24331
  Beta  occ. eigenvalues --   -0.23721  -0.22652  -0.21262  -0.19907  -0.16433
  Beta  occ. eigenvalues --   -0.15312  -0.12990  -0.12266  -0.10636  -0.06908
  Beta  occ. eigenvalues --   -0.06315
  Beta virt. eigenvalues --    0.06736   0.08011   0.08469   0.09027   0.09507
  Beta virt. eigenvalues --    0.09919   0.10776   0.10880   0.11124   0.11907
  Beta virt. eigenvalues --    0.12106   0.12468   0.13233   0.13421   0.13579

 Mulliken charges and spin densities:
               1          2
     1  C   -0.500859  -0.058117
     2  C   -0.079548  -0.051099
     3  O   -0.136552   0.004497
     4  C   -1.175175  -0.072654
     5  C   -0.063712   0.040810
     6  C    1.266966   0.005376
     7  C   -0.661606   0.015639
     8  C   -0.576443  -0.018156
     9  C    0.251442   0.153548
    10  N   -0.285471  -0.021724
    11  C    0.200265  -0.053381
    12  C    0.009991   0.081759
    13  C   -0.472735   0.045967
    14  C   -0.007979   0.132407
    15  C   -0.157461  -0.072991
    16  N   -0.055969   0.184933
    17  N   -0.338857   0.014470
    18  H    0.120166   0.029310
    19  H    0.080959   0.023417
    20  H    0.169087  -0.004337
    21  H    0.049017   0.085504
    22  H    0.141475  -0.000396
    23  H    0.028652   0.078164
    24  H    0.104875   0.011225
    25  H    0.157905   0.092569
    26  H    0.069518   0.164452
    27  H    0.199232   0.001389
    28  H    0.024900   0.081800
    29  H    0.027458   0.077095
    30  H    0.100817   0.023452
    31  H    0.259952   0.004870
    32  H    0.249689   0.000202
 Sum of Mulliken charges =  -1.00000   1.00000

 Dipole moment (field-independent basis, Debye):
    X=              4.6518    Y=             -0.5558    Z=              1.6916  Tot=              4.9809
 Quadrupole moment (field-independent basis, Debye-Ang):
   XX=           -148.3079   YY=           -117.4378   ZZ=           -118.8339
   XY=             -4.5026   XZ=              5.6224   YZ=             -0.0017

 Summary of Natural Population Analysis:

                                       Natural Population
                Natural  -----------------------------------------------
    Atom  No    Charge         Core      Valence    Rydberg      Total
 -----------------------------------------------------------------------
      C    1   -0.30164      0.99967     2.29731    0.00466     3.30164
      C    2   -0.01082      0.99958     1.99930    0.01194     3.01082
      O    3   -0.30212      0.99987     3.29158    0.01067     4.30212
      C    4    0.09412      0.99932     1.89217    0.01440     2.90588
      C    5    0.10582      0.99944     1.88145    0.01329     2.89418
      C    6   -0.07417      0.99944     2.06384    0.01089     3.07417
      C    7    0.11696      0.99947     1.87275    0.01082     2.88304
      C    8   -0.16079      0.99953     2.15131    0.00995     3.16079
      C    9   -0.07980      0.99952     2.07067    0.00961     3.07980
      N   10   -0.40405      0.99972     2.89448    0.00985     3.90405
      C   11    0.14307      0.99952     1.84237    0.01504     2.85693
      C   12   -0.13810      0.99953     2.13034    0.00823     3.13810
      C   13   -0.05342      0.99957     2.04346    0.01040     3.05342
      C   14   -0.10199      0.99956     2.09177    0.01066     3.10199
      C   15    0.00927      0.99959     1.97638    0.01476     2.99073
      N   16   -0.21185      0.99967     2.69925    0.01293     3.71185
      N   17   -0.39855      0.99970     2.89100    0.00785     3.89855
      H   18    0.09633      0.00000     0.40214    0.00152     0.40367
      H   19    0.09440      0.00000     0.40440    0.00120     0.40560
      H   20    0.10673      0.00000     0.39235    0.00092     0.39327
      H   21    0.08048      0.00000     0.41760    0.00192     0.41952
      H   22    0.08318      0.00000     0.41532    0.00149     0.41682
      H   23    0.09046      0.00000     0.40847    0.00107     0.40954
      H   24    0.09361      0.00000     0.40516    0.00123     0.40639
      H   25    0.18966      0.00000     0.30882    0.00151     0.31034
      H   26    0.17709      0.00000     0.32114    0.00176     0.32291
      H   27    0.10622      0.00000     0.39250    0.00128     0.39378
      H   28    0.08899      0.00000     0.41004    0.00097     0.41101
      H   29    0.09118      0.00000     0.40785    0.00097     0.40882
      H   30    0.07935      0.00000     0.41945    0.00120     0.42065
      H   31    0.20765      0.00000     0.29055    0.00180     0.29235
      H   32    0.18272      0.00000     0.31579    0.00149     0.31728
 =======================================================================
   * Total *   -0.00000     16.99271    43.80101    0.20629    61.00000

 Normal termination of Gaussian 16 at Sun Dec 13 21:55:25 2020.
