 Gaussian 16, Revision A.03,

 -----------------------------------------------------------
 # opt freq B3LYP/6-31G(d) empiricaldispersion=gd3bj scf=xqc
 -----------------------------------------------------------

 -------------------------------
 CID_147119349_JID_1877_neutraal
 -------------------------------
 Symbolic Z-matrix:
 Charge =  0 Multiplicity = 1

 SCF Done:  E(RB3LYP) =  -1161.39952832     A.U. after   15 cycles
 SCF Done:  E(RB3LYP) =  -1161.40500826     A.U. after   13 cycles
 SCF Done:  E(RB3LYP) =  -1161.40606802     A.U. after   12 cycles
 SCF Done:  E(RB3LYP) =  -1161.40654191     A.U. after   12 cycles
 SCF Done:  E(RB3LYP) =  -1161.40689227     A.U. after   12 cycles
 SCF Done:  E(RB3LYP) =  -1161.40712884     A.U. after   12 cycles
 SCF Done:  E(RB3LYP) =  -1161.40729882     A.U. after   12 cycles
 SCF Done:  E(RB3LYP) =  -1161.40735506     A.U. after   12 cycles
 SCF Done:  E(RB3LYP) =  -1161.40722232     A.U. after   12 cycles
 SCF Done:  E(RB3LYP) =  -1161.40751551     A.U. after   12 cycles
 SCF Done:  E(RB3LYP) =  -1161.40767502     A.U. after   13 cycles
 SCF Done:  E(RB3LYP) =  -1161.40771231     A.U. after   13 cycles
 SCF Done:  E(RB3LYP) =  -1161.40774171     A.U. after   12 cycles
 SCF Done:  E(RB3LYP) =  -1161.40774237     A.U. after    9 cycles
 SCF Done:  E(RB3LYP) =  -1161.40774264     A.U. after    9 cycles
 Optimization completed.
    -- Stationary point found.
 Normal termination of Gaussian 16 at Tue Dec  8 21:39:44 2020.

 --------------------------------------------------------------------
 #N Geom=AllCheck Guess=TCheck SCRF=Check GenChk RB3LYP/6-31G(d) Freq
 --------------------------------------------------------------------

 Structure from the checkpoint file:  "JID_1877.chk"
 -------------------------------
 CID_147119349_JID_1877_neutraal
 -------------------------------
 Charge =  0 Multiplicity = 1

 SCF Done:  E(RB3LYP) =  -1161.40774264     A.U. after    1 cycles

  Exact polarizability: 182.002 -13.806 124.655  -1.300  -0.627  64.216
 Approx polarizability: 260.296 -31.111 240.622  -4.556  -0.608 104.304

                      1                      2                      3
                      A                      A                      A
 Frequencies --     40.2626                63.6131               117.6616
 Red. masses --      5.2473                 5.1106                 5.4295
 Frc consts  --      0.0050                 0.0122                 0.0443
 IR Inten    --      1.2204                 2.9228                 0.7657

                      4                      5                      6
                      A                      A                      A
 Frequencies --    143.2535               246.4586               269.3306
 Red. masses --      3.6173                 2.5027                 3.3496
 Frc consts  --      0.0437                 0.0896                 0.1432
 IR Inten    --      0.7546                20.8032                 1.5974

                      7                      8                      9
                      A                      A                      A
 Frequencies --    281.7898               319.8514               389.6241
 Red. masses --      2.1896                 2.8112                 4.7361
 Frc consts  --      0.1024                 0.1695                 0.4236
 IR Inten    --     29.3444                24.1833                13.1307

                     10                     11                     12
                      A                      A                      A
 Frequencies --    446.5949               463.2168               533.9623
 Red. masses --      2.6650                 5.0671                 6.1108
 Frc consts  --      0.3132                 0.6406                 1.0265
 IR Inten    --      6.7925                 0.2641                 0.9540

                     13                     14                     15
                      A                      A                      A
 Frequencies --    552.2138               593.2417               626.6120
 Red. masses --      3.6701                 3.0387                 4.8510
 Frc consts  --      0.6594                 0.6301                 1.1222
 IR Inten    --      1.5293                 5.3413                21.5715

                     16                     17                     18
                      A                      A                      A
 Frequencies --    650.1498               692.2586               703.8352
 Red. masses --      4.8718                 6.8316                 1.1742
 Frc consts  --      1.2133                 1.9289                 0.3427
 IR Inten    --     15.5076                 0.0513                50.3859

                     19                     20                     21
                      A                      A                      A
 Frequencies --    745.2932               772.6408               823.3598
 Red. masses --      6.9881                 1.3857                 2.8020
 Frc consts  --      2.2870                 0.4874                 1.1192
 IR Inten    --      0.1028                37.0080                10.1310

                     22                     23                     24
                      A                      A                      A
 Frequencies --    840.8972               845.2415               882.2020
 Red. masses --      2.2362                 1.3443                 4.2351
 Frc consts  --      0.9316                 0.5659                 1.9420
 IR Inten    --    215.1579                 6.2310                12.8565

                     25                     26                     27
                      A                      A                      A
 Frequencies --    915.0094               956.7075              1014.4682
 Red. masses --      1.3397                 1.7986                 2.0769
 Frc consts  --      0.6608                 0.9699                 1.2594
 IR Inten    --      0.4307                 7.1054                21.7401

                     28                     29                     30
                      A                      A                      A
 Frequencies --   1044.6192              1080.3522              1117.4809
 Red. masses --      2.8108                 1.6133                 1.1451
 Frc consts  --      1.8072                 1.1094                 0.8425
 IR Inten    --      4.0870                 9.4303                 1.6599

                     31                     32                     33
                      A                      A                      A
 Frequencies --   1125.6827              1165.8736              1199.4840
 Red. masses --      1.8049                 1.2724                 1.4095
 Frc consts  --      1.3475                 1.0190                 1.1948
 IR Inten    --     21.1792                22.8046                17.9371

                     34                     35                     36
                      A                      A                      A
 Frequencies --   1237.6867              1262.5709              1294.7012
 Red. masses --      2.9902                 1.8559                 1.4111
 Frc consts  --      2.6988                 1.7430                 1.3937
 IR Inten    --      0.5068                25.9062                 0.4498

                     37                     38                     39
                      A                      A                      A
 Frequencies --   1327.9914              1338.0149              1397.7298
 Red. masses --      1.5675                 1.4202                 2.3761
 Frc consts  --      1.6287                 1.4980                 2.7350
 IR Inten    --      1.6297                17.9586                 0.3418

                     40                     41                     42
                      A                      A                      A
 Frequencies --   1426.6702              1492.4811              1504.1706
 Red. masses --      1.3111                 6.2866                 1.1010
 Frc consts  --      1.5723                 8.2505                 1.4677
 IR Inten    --     16.0427                10.9339                 2.5611

                     43                     44                     45
                      A                      A                      A
 Frequencies --   1583.4799              1673.2722              1683.9822
 Red. masses --      4.9547                 7.3497                 1.1091
 Frc consts  --      7.3197                12.1241                 1.8531
 IR Inten    --      2.7004                 7.7770                27.7537

                     46                     47                     48
                      A                      A                      A
 Frequencies --   2979.3810              3064.3792              3084.3921
 Red. masses --      1.0712                 1.0874                 1.0888
 Frc consts  --      5.6026                 6.0164                 6.1029
 IR Inten    --     54.2175                16.4165                40.5805

                     49                     50                     51
                      A                      A                      A
 Frequencies --   3201.5121              3223.0052              3237.3701
 Red. masses --      1.0915                 1.0885                 1.0954
 Frc consts  --      6.5917                 6.6620                 6.7638
 IR Inten    --      9.8754                11.6874                 2.0366

                     52                     53                     54
                      A                      A                      A
 Frequencies --   3271.3112              3472.5388              3564.8497
 Red. masses --      1.0972                 1.0485                 1.0939
 Frc consts  --      6.9178                 7.4489                 8.1908
 IR Inten    --      0.6438                 0.2943                 0.5700

 - Thermochemistry -
 -------------------
 Temperature   298.150 Kelvin.  Pressure   1.00000 Atm.
 Atom     1 has atomic number  6 and mass  12.00000

 Molecular mass:   183.01764 amu.
 Principal axes and moments of inertia in atomic units:
                           1         2         3
     Eigenvalues --   746.577153911.607314577.39376
           X            0.99979  -0.02067   0.00070
           Y            0.02067   0.99978  -0.00248
           Z           -0.00065   0.00249   1.00000
 This molecule is an asymmetric top.
 Rotational symmetry number  1.
 Warning -- assumption of classical behavior for rotation
           may cause significant error
 Rotational temperatures (Kelvin)      0.11601     0.02214     0.01892
 Rotational constants (GHZ):           2.41735     0.46138     0.39427
 Zero-point vibrational energy     406639.0 (Joules/Mol)
                                   97.18905 (Kcal/Mol)
 Warning -- explicit consideration of  14 degrees of freedom as
           vibrations may cause significant error
 Vibrational temperatures:     57.93    91.53   169.29   206.11   354.60
          (Kelvin)            387.51   405.43   460.19   560.58   642.55
                              666.47   768.25   794.51   853.54   901.55
                              935.42   996.01  1012.66  1072.31  1111.66
                             1184.63  1209.86  1216.11  1269.29  1316.49
                             1376.49  1459.59  1502.97  1554.39  1607.81
                             1619.61  1677.43  1725.79  1780.76  1816.56
                             1862.79  1910.68  1925.10  2011.02  2052.66
                             2147.35  2164.17  2278.27  2407.47  2422.87
                             4286.66  4408.96  4437.75  4606.26  4637.19
                             4657.85  4706.69  4996.21  5129.02

 Zero-point correction=                           0.154881 (Hartree/Particle)
 Thermal correction to Energy=                    0.165226
 Thermal correction to Enthalpy=                  0.166171
 Thermal correction to Gibbs Free Energy=         0.117812
 Sum of electronic and zero-point Energies=          -1161.252862
 Sum of electronic and thermal Energies=             -1161.242516
 Sum of electronic and thermal Enthalpies=           -1161.241572
 Sum of electronic and thermal Free Energies=        -1161.289931

                     E (Thermal)             CV                S
                      KCal/Mol        Cal/Mol-Kelvin    Cal/Mol-Kelvin
 Total                  103.681             39.571            101.780
 Electronic               0.000              0.000              0.000
 Translational            0.889              2.981             41.520
 Rotational               0.889              2.981             30.970
 Vibrational            101.904             33.610             29.291
 Vibration     1          0.594              1.981              5.246
 Vibration     2          0.597              1.972              4.342
 Vibration     3          0.608              1.935              3.138
 Vibration     4          0.616              1.910              2.760
 Vibration     5          0.661              1.769              1.756
 Vibration     6          0.674              1.730              1.601
 Vibration     7          0.681              1.707              1.523
 Vibration     8          0.706              1.636              1.311
 Vibration     9          0.758              1.492              1.002
 Vibration    10          0.806              1.368              0.806
 Vibration    11          0.821              1.332              0.757
 Vibration    12          0.889              1.175              0.578
 Vibration    13          0.908              1.135              0.540
 Vibration    14          0.951              1.046              0.461

 Optimization completed.
    -- Stationary point found.
 Normal termination of Gaussian 16 at Tue Dec  8 21:44:00 2020.

 ----------------------------------------------------------------------
 # B3LYP/6-311++G(d,p) empiricaldispersion=gd3bj scf=xqc pop=npa geom=c
 heck
 ----------------------------------------------------------------------

 ---------------------------------------
 CID_147119349_JID_1877_Energie_neutraal
 ---------------------------------------
 Structure from the checkpoint file:  "JID_1877.chk"
 Charge =  0 Multiplicity = 1

 SCF Done:  E(RB3LYP) =  -1161.56552138     A.U. after   16 cycles
 Normal termination of Gaussian 16 at Tue Dec  8 21:47:42 2020.

 ----------------------------------------------------------------------
 # B3LYP/6-311++G(d,p) empiricaldispersion=gd3bj scf=xqc pop=npa geom=c
 heck
 ----------------------------------------------------------------------

 -------------------------------------
 CID_147119349_JID_1877_Energie_kation
 -------------------------------------
 Structure from the checkpoint file:  "JID_1877.chk"
 Charge =  1 Multiplicity = 2

 SCF Done:  E(UB3LYP) =  -1161.29457914     A.U. after   23 cycles
 Normal termination of Gaussian 16 at Tue Dec  8 21:52:25 2020.
 Gaussian 16:  ES64L-G16RevA.03 25-Dec-2016

 ----------------------------------------------------------------------
 # B3LYP/6-311++G(d,p) empiricaldispersion=gd3bj scf=xqc pop=npa geom=c
 heck
 ----------------------------------------------------------------------

 ------------------------------------
 CID_147119349_JID_1877_Energie_anion
 ------------------------------------
 Structure from the checkpoint file:  "JID_1877.chk"
 Charge = -1 Multiplicity = 2

                         Standard orientation:
 ---------------------------------------------------------------------
 Center     Atomic      Atomic             Coordinates (Angstroms)
 Number     Number       Type             X           Y           Z
 ---------------------------------------------------------------------
      1          6           0       -2.341830    1.396603    0.070989
      2          6           0       -0.845601    1.402310    0.203301
      3          6           0       -0.256175    0.200555    0.049707
      4         16           0       -1.421713   -1.138948   -0.186859
      5          6           0       -2.819986   -0.040622    0.379254
      6          7           0       -4.056059   -0.497445   -0.214329
      7          6           0        1.162126   -0.104068    0.043234
      8          6           0        1.772570   -1.329218    0.191625
      9          6           0        3.194960   -1.262878    0.145264
     10          6           0        3.660038    0.009629   -0.042855
     11         16           0        2.363893    1.155452   -0.178656
     12          1           0       -2.638321    1.660423   -0.959166
     13          1           0       -2.836538    2.113832    0.737901
     14          1           0       -0.281522    2.315722    0.366803
     15          1           0       -2.899559   -0.173467    1.463362
     16          1           0       -4.848933   -0.033469    0.224264
     17          1           0       -4.073375   -0.274620   -1.208147
     18          1           0        1.211065   -2.243248    0.346628
     19          1           0        3.842571   -2.126026    0.250322
     20          1           0        4.685539    0.345027   -0.116537
 ---------------------------------------------------------------------

 SCF Done:  E(UB3LYP) =  -1161.56193226     A.U. after   32 cycles

 The electronic state is 2-A.
 Alpha  occ. eigenvalues --  -88.72990 -88.71310 -14.19010 -10.11154 -10.06168
 Alpha  occ. eigenvalues --  -10.05676 -10.05351 -10.05150 -10.04092 -10.02848
 Alpha  occ. eigenvalues --  -10.02281  -7.81643  -7.79959  -5.77941  -5.77584
 Alpha  occ. eigenvalues --   -5.77239  -5.76315  -5.75991  -5.75363  -0.79030
 Alpha  occ. eigenvalues --   -0.74347  -0.70327  -0.61751  -0.59881  -0.58409
 Alpha  occ. eigenvalues --   -0.55591  -0.46820  -0.45123  -0.41722  -0.39443
 Alpha  occ. eigenvalues --   -0.38343  -0.37368  -0.33540  -0.31552  -0.28283
 Alpha  occ. eigenvalues --   -0.27229  -0.26607  -0.25893  -0.25404  -0.24126
 Alpha  occ. eigenvalues --   -0.22849  -0.21003  -0.19036  -0.18247  -0.13684
 Alpha  occ. eigenvalues --   -0.12093  -0.10586  -0.07115   0.05016
 Alpha virt. eigenvalues --    0.06823   0.08668   0.09491   0.10012   0.10385
 Alpha virt. eigenvalues --    0.11350   0.12273   0.12678   0.13200   0.14190
 Alpha virt. eigenvalues --    0.14586   0.15146   0.15266   0.15651   0.16831

  Beta  occ. eigenvalues --  -88.72950 -88.71302 -14.18977 -10.11138 -10.06082
  Beta  occ. eigenvalues --  -10.05504 -10.05357 -10.04857 -10.04151 -10.02710
  Beta  occ. eigenvalues --  -10.02037  -7.81607  -7.79950  -5.77926  -5.77569
  Beta  occ. eigenvalues --   -5.77101  -5.76312  -5.75985  -5.75342  -0.78970
  Beta  occ. eigenvalues --   -0.74049  -0.70096  -0.61418  -0.59651  -0.58148
  Beta  occ. eigenvalues --   -0.55344  -0.46714  -0.44587  -0.41486  -0.39338
  Beta  occ. eigenvalues --   -0.38164  -0.37187  -0.33412  -0.31419  -0.28131
  Beta  occ. eigenvalues --   -0.27083  -0.26475  -0.25696  -0.24671  -0.23915
  Beta  occ. eigenvalues --   -0.22624  -0.20787  -0.18918  -0.17559  -0.13608
  Beta  occ. eigenvalues --   -0.11387  -0.09725  -0.05955
  Beta virt. eigenvalues --    0.07666   0.08611   0.09606   0.09805   0.10110
  Beta virt. eigenvalues --    0.10369   0.11454   0.12419   0.12684   0.13293
  Beta virt. eigenvalues --    0.14271   0.14732   0.15223   0.15581   0.15923

 Mulliken charges and spin densities:
               1          2
     1  C   -0.469351  -0.189460
     2  C    0.572841   0.575806
     3  C   -0.127328  -0.171738
     4  S   -0.606667  -0.098323
     5  C    0.617448  -0.652185
     6  N   -0.365932   0.054774
     7  C   -0.913561  -0.052888
     8  C    1.406527   0.277341
     9  C   -0.998264  -0.083438
    10  C    0.269262   0.201771
    11  S   -0.764315   0.080383
    12  H    0.041874   0.089339
    13  H   -0.145949   0.245732
    14  H    0.109735   0.028424
    15  H    0.106498   0.134898
    16  H   -0.206222   0.437497
    17  H    0.093583   0.109353
    18  H    0.105702   0.017414
    19  H    0.089734   0.003521
    20  H    0.184385  -0.008222
 Sum of Mulliken charges =  -1.00000   1.00000

 Dipole moment (field-independent basis, Debye):
    X=              2.7634    Y=              0.4449    Z=             -0.2992  Tot=              2.8150
 Quadrupole moment (field-independent basis, Debye-Ang):
   XX=           -135.4209   YY=            -98.2307   ZZ=            -95.5513
   XY=             -2.4427   XZ=              0.2678   YZ=             -1.0806

 Summary of Natural Population Analysis:

                                       Natural Population
                Natural  -----------------------------------------------
    Atom  No    Charge         Core      Valence    Rydberg      Total
 -----------------------------------------------------------------------
      C    1   -0.21361      0.99960     2.20254    0.01146     3.21361
      C    2   -0.07365      0.99946     2.06278    0.01142     3.07365
      C    3   -0.07934      0.99936     2.06694    0.01304     3.07934
      S    4    0.10085      4.99955     2.88038    0.01922     7.89915
      C    5   -0.05666      0.99961     2.03846    0.01858     3.05666
      N    6   -0.42381      0.99975     2.91128    0.01279     3.92381
      C    7   -0.08879      0.99941     2.07463    0.01474     3.08879
      C    8   -0.09993      0.99949     2.09210    0.00834     3.09993
      C    9   -0.15089      0.99954     2.14148    0.00986     3.15089
      C   10   -0.14815      0.99955     2.13744    0.01116     3.14815
      S   11    0.19971      4.99945     2.77943    0.02141     7.80029
      H   12    0.09711      0.00000     0.40125    0.00164     0.40289
      H   13    0.09925      0.00000     0.39911    0.00164     0.40075
      H   14    0.09865      0.00000     0.40017    0.00119     0.40135
      H   15    0.09085      0.00000     0.40783    0.00132     0.40915
      H   16    0.17739      0.00000     0.31957    0.00305     0.32261
      H   17    0.17401      0.00000     0.32344    0.00255     0.32599
      H   18    0.10385      0.00000     0.39508    0.00107     0.39615
      H   19    0.09676      0.00000     0.40220    0.00105     0.40324
      H   20    0.09639      0.00000     0.40271    0.00090     0.40361
 =======================================================================
   * Total *    0.00000     18.99477    28.83881    0.16642    48.00000

 Normal termination of Gaussian 16 at Tue Dec  8 21:58:07 2020.
