 Gaussian 16, Revision A.03,

 -----------------------------------------------------------
 # opt freq B3LYP/6-31G(d) empiricaldispersion=gd3bj scf=xqc
 -----------------------------------------------------------

 ----------------------------
 CID_819183_JID_2088_neutraal
 ----------------------------
 Symbolic Z-matrix:
 Charge =  0 Multiplicity = 1

 SCF Done:  E(RB3LYP) =  -875.347268700     A.U. after   15 cycles
 SCF Done:  E(RB3LYP) =  -875.350080511     A.U. after   13 cycles
 SCF Done:  E(RB3LYP) =  -875.351265836     A.U. after   13 cycles
 SCF Done:  E(RB3LYP) =  -875.351659348     A.U. after   12 cycles
 SCF Done:  E(RB3LYP) =  -875.351815469     A.U. after   12 cycles
 SCF Done:  E(RB3LYP) =  -875.351834837     A.U. after   11 cycles
 SCF Done:  E(RB3LYP) =  -875.351842354     A.U. after   10 cycles
 SCF Done:  E(RB3LYP) =  -875.351845156     A.U. after   10 cycles
 SCF Done:  E(RB3LYP) =  -875.351847019     A.U. after   10 cycles
 SCF Done:  E(RB3LYP) =  -875.351848165     A.U. after   10 cycles
 SCF Done:  E(RB3LYP) =  -875.351848756     A.U. after   10 cycles
 SCF Done:  E(RB3LYP) =  -875.351848921     A.U. after    8 cycles
 SCF Done:  E(RB3LYP) =  -875.351848980     A.U. after    8 cycles
 SCF Done:  E(RB3LYP) =  -875.351848991     A.U. after    8 cycles
 Optimization completed.
    -- Stationary point found.
 Normal termination of Gaussian 16 at Wed Dec  9 16:46:19 2020.

 --------------------------------------------------------------------
 #N Geom=AllCheck Guess=TCheck SCRF=Check GenChk RB3LYP/6-31G(d) Freq
 --------------------------------------------------------------------

 Structure from the checkpoint file:  "JID_2088.chk"
 ----------------------------
 CID_819183_JID_2088_neutraal
 ----------------------------
 Charge =  0 Multiplicity = 1

 SCF Done:  E(RB3LYP) =  -875.351848991     A.U. after    1 cycles

  Exact polarizability: 181.853   3.243 128.107   0.487  -2.053  44.118
 Approx polarizability: 294.009  10.425 238.780   1.090  -3.858  70.770

                      1                      2                      3
                      A                      A                      A
 Frequencies --     16.9784                94.9392               154.0104
 Red. masses --      4.1941                 5.6819                 6.4760
 Frc consts  --      0.0007                 0.0302                 0.0905
 IR Inten    --      0.4244                 1.7055                 0.4985

                      4                      5                      6
                      A                      A                      A
 Frequencies --    201.5782               268.9318               295.4992
 Red. masses --      8.0649                 1.0734                 7.3725
 Frc consts  --      0.1931                 0.0457                 0.3793
 IR Inten    --      7.2772               109.0309                 1.7923

                      7                      8                      9
                      A                      A                      A
 Frequencies --    308.5766               334.9389               388.3529
 Red. masses --      7.9531                 6.3628                 2.6431
 Frc consts  --      0.4462                 0.4206                 0.2349
 IR Inten    --      1.1048                 3.3665                 0.3442

                     10                     11                     12
                      A                      A                      A
 Frequencies --    455.6328               469.1812               554.3281
 Red. masses --      5.3560                 6.3623                 3.4728
 Frc consts  --      0.6551                 0.8252                 0.6287
 IR Inten    --      6.3805                 3.4991                 5.2948

                     13                     14                     15
                      A                      A                      A
 Frequencies --    565.2833               641.4044               671.2016
 Red. masses --      7.3453                 2.1919                 7.3382
 Frc consts  --      1.3829                 0.5313                 1.9478
 IR Inten    --      3.8050                26.3578                20.8827

                     16                     17                     18
                      A                      A                      A
 Frequencies --    688.6926               718.3842               721.1871
 Red. masses --      6.9186                 1.8876                 7.5681
 Frc consts  --      1.9334                 0.5740                 2.3192
 IR Inten    --      2.7025                25.4740                11.1286

                     19                     20                     21
                      A                      A                      A
 Frequencies --    755.5789               833.4976               849.7904
 Red. masses --      3.1893                 1.5766                 1.5127
 Frc consts  --      1.0728                 0.6453                 0.6436
 IR Inten    --      1.3972                38.7961                 1.4841

                     22                     23                     24
                      A                      A                      A
 Frequencies --    850.3173               877.6352               973.8167
 Red. masses --      3.0408                 1.2602                 1.3191
 Frc consts  --      1.2954                 0.5719                 0.7370
 IR Inten    --      4.7603                 1.7144                 1.2490

                     25                     26                     27
                      A                      A                      A
 Frequencies --    982.8294               991.9249              1013.6858
 Red. masses --      7.2236                 1.4267                 3.8494
 Frc consts  --      4.1111                 0.8271                 2.3305
 IR Inten    --     35.1919                 0.1468                30.1902

                     28                     29                     30
                      A                      A                      A
 Frequencies --   1014.1861              1111.3054              1122.5507
 Red. masses --      7.2578                 1.9965                 1.1550
 Frc consts  --      4.3983                 1.4527                 0.8575
 IR Inten    --     14.9705                 0.3934                 5.7472

                     31                     32                     33
                      A                      A                      A
 Frequencies --   1138.4413              1207.0510              1266.4210
 Red. masses --      1.5344                 1.8044                 1.2431
 Frc consts  --      1.1717                 1.5490                 1.1746
 IR Inten    --      8.8882                16.3682                 7.3252

                     34                     35                     36
                      A                      A                      A
 Frequencies --   1294.8848              1308.0353              1343.2951
 Red. masses --      5.5445                 1.8728                 2.7397
 Frc consts  --      5.4774                 1.8879                 2.9127
 IR Inten    --     35.8662                67.6502                23.6358

                     37                     38                     39
                      A                      A                      A
 Frequencies --   1375.8994              1444.3433              1467.6286
 Red. masses --      1.3907                 3.2070                 2.4252
 Frc consts  --      1.5511                 3.9417                 3.0777
 IR Inten    --      4.5149                85.5990                 0.8499

                     40                     41                     42
                      A                      A                      A
 Frequencies --   1505.3301              1548.6995              1594.9768
 Red. masses --      4.6404                 2.3041                 6.5665
 Frc consts  --      6.1953                 3.2560                 9.8422
 IR Inten    --     41.5989                22.7396                16.3041

                     43                     44                     45
                      A                      A                      A
 Frequencies --   1639.2393              1653.1740              3167.7444
 Red. masses --      5.7405                 5.1599                 1.0875
 Frc consts  --      9.0884                 8.3086                 6.4294
 IR Inten    --     91.0455               141.6077                41.3654

                     46                     47                     48
                      A                      A                      A
 Frequencies --   3170.4895              3200.9149              3207.0462
 Red. masses --      1.0912                 1.0932                 1.0919
 Frc consts  --      6.4623                 6.5991                 6.6168
 IR Inten    --     36.3946                11.4590                10.1403

                     49                     50                     51
                      A                      A                      A
 Frequencies --   3264.0948              3274.7785              3761.3472
 Red. masses --      1.0918                 1.0963                 1.0663
 Frc consts  --      6.8538                 6.9267                 8.8882
 IR Inten    --      2.3118                 0.5940                70.7105

 - Thermochemistry -
 -------------------
 Temperature   298.150 Kelvin.  Pressure   1.00000 Atm.
 Atom     1 has atomic number  6 and mass  12.00000

 Molecular mass:   177.02484 amu.
 Principal axes and moments of inertia in atomic units:
                           1         2         3
     Eigenvalues --  1007.356353100.661974097.71676
           X            0.99995   0.00982   0.00041
           Y           -0.00982   0.99994  -0.00432
           Z           -0.00045   0.00431   0.99999
 This molecule is an asymmetric top.
 Rotational symmetry number  1.
 Warning -- assumption of classical behavior for rotation
           may cause significant error
 Rotational temperatures (Kelvin)      0.08598     0.02793     0.02114
 Rotational constants (GHZ):           1.79156     0.58205     0.44043
 Zero-point vibrational energy     369407.2 (Joules/Mol)
                                   88.29043 (Kcal/Mol)
 Warning -- explicit consideration of  13 degrees of freedom as
           vibrations may cause significant error
 Vibrational temperatures:     24.43   136.60   221.59   290.03   386.93
          (Kelvin)            425.16   443.97   481.90   558.75   655.55
                              675.05   797.55   813.32   922.84   965.71
                              990.88  1033.59  1037.63  1087.11  1199.22
                             1222.66  1223.42  1262.72  1401.11  1414.07
                             1427.16  1458.47  1459.19  1598.92  1615.10
                             1637.96  1736.68  1822.10  1863.05  1881.97
                             1932.70  1979.61  2078.09  2111.59  2165.83
                             2228.23  2294.82  2358.50  2378.55  4557.68
                             4561.63  4605.40  4614.22  4696.30  4711.68
                             5411.74

 Zero-point correction=                           0.140700 (Hartree/Particle)
 Thermal correction to Energy=                    0.150542
 Thermal correction to Enthalpy=                  0.151486
 Thermal correction to Gibbs Free Energy=         0.103855
 Sum of electronic and zero-point Energies=           -875.211149
 Sum of electronic and thermal Energies=              -875.201307
 Sum of electronic and thermal Enthalpies=            -875.200363
 Sum of electronic and thermal Free Energies=         -875.247994

                     E (Thermal)             CV                S
                      KCal/Mol        Cal/Mol-Kelvin    Cal/Mol-Kelvin
 Total                   94.466             38.026            100.248
 Electronic               0.000              0.000              0.000
 Translational            0.889              2.981             41.420
 Rotational               0.889              2.981             30.927
 Vibrational             92.689             32.065             27.901
 Vibration     1          0.593              1.986              6.959
 Vibration     2          0.603              1.953              3.556
 Vibration     3          0.620              1.898              2.622
 Vibration     4          0.638              1.838              2.119
 Vibration     5          0.673              1.730              1.603
 Vibration     6          0.690              1.682              1.442
 Vibration     7          0.698              1.657              1.370
 Vibration     8          0.716              1.606              1.236
 Vibration     9          0.757              1.495              1.006
 Vibration    10          0.814              1.348              0.779
 Vibration    11          0.826              1.318              0.740
 Vibration    12          0.910              1.130              0.535
 Vibration    13          0.921              1.106              0.513

 Optimization completed.
    -- Stationary point found.
 Normal termination of Gaussian 16 at Wed Dec  9 16:50:06 2020.

 ----------------------------------------------------------------------
 # B3LYP/6-311++G(d,p) empiricaldispersion=gd3bj scf=xqc pop=npa geom=c
 heck
 ----------------------------------------------------------------------

 ------------------------------------
 CID_819183_JID_2088_Energie_neutraal
 ------------------------------------
 Structure from the checkpoint file:  "JID_2088.chk"
 Charge =  0 Multiplicity = 1

 SCF Done:  E(RB3LYP) =  -875.511540756     A.U. after   16 cycles
 Normal termination of Gaussian 16 at Wed Dec  9 16:51:27 2020.

 ----------------------------------------------------------------------
 # B3LYP/6-311++G(d,p) empiricaldispersion=gd3bj scf=xqc pop=npa geom=c
 heck
 ----------------------------------------------------------------------

 ----------------------------------
 CID_819183_JID_2088_Energie_kation
 ----------------------------------
 Structure from the checkpoint file:  "JID_2088.chk"
 Charge =  1 Multiplicity = 2

 SCF Done:  E(UB3LYP) =  -875.219431942     A.U. after   27 cycles
 Normal termination of Gaussian 16 at Wed Dec  9 16:54:28 2020.
 Gaussian 16:  ES64L-G16RevA.03 25-Dec-2016

 ----------------------------------------------------------------------
 # B3LYP/6-311++G(d,p) empiricaldispersion=gd3bj scf=xqc pop=npa geom=c
 heck
 ----------------------------------------------------------------------

 ---------------------------------
 CID_819183_JID_2088_Energie_anion
 ---------------------------------
 Structure from the checkpoint file:  "JID_2088.chk"
 Charge = -1 Multiplicity = 2

                         Standard orientation:
 ---------------------------------------------------------------------
 Center     Atomic      Atomic             Coordinates (Angstroms)
 Number     Number       Type             X           Y           Z
 ---------------------------------------------------------------------
      1          6           0       -1.550972    1.144232   -0.128677
      2          6           0       -2.940811    1.068060   -0.121515
      3          7           0       -3.641081   -0.067483   -0.002648
      4          6           0       -2.921294   -1.191055    0.117372
      5          6           0       -1.531856   -1.231855    0.126256
      6          6           0       -0.797965   -0.038071   -0.001106
      7          6           0        0.660903   -0.037445   -0.005332
      8          6           0        1.549146    1.023185    0.046971
      9          6           0        2.923111    0.633500    0.033277
     10          6           0        3.080506   -0.721147   -0.032320
     11         16           0        1.563949   -1.546255   -0.080529
     12          8           0        1.135137    2.322729    0.113508
     13          1           0       -1.060999    2.102346   -0.233693
     14          1           0       -3.527307    1.980229   -0.220170
     15          1           0       -3.489114   -2.114839    0.215719
     16          1           0       -1.029701   -2.187929    0.240325
     17          1           0        3.746709    1.339894    0.070699
     18          1           0        4.004925   -1.281072   -0.060447
     19          1           0        1.914151    2.895566    0.176950
 ---------------------------------------------------------------------

 SCF Done:  E(UB3LYP) =  -875.517238811     A.U. after   27 cycles

 The electronic state is 2-A.
 Alpha  occ. eigenvalues --  -88.71865 -19.02610 -14.13444 -10.08164 -10.04740
 Alpha  occ. eigenvalues --  -10.04282 -10.04071 -10.04013 -10.03398 -10.03003
 Alpha  occ. eigenvalues --  -10.01560 -10.01349  -7.80525  -5.76833  -5.76474
 Alpha  occ. eigenvalues --   -5.76108  -0.93548  -0.77938  -0.73082  -0.65642
 Alpha  occ. eigenvalues --   -0.60212  -0.58331  -0.57670  -0.48188  -0.47610
 Alpha  occ. eigenvalues --   -0.45101  -0.41510  -0.39187  -0.33957  -0.32754
 Alpha  occ. eigenvalues --   -0.32493  -0.31127  -0.28500  -0.27733  -0.26473
 Alpha  occ. eigenvalues --   -0.24436  -0.23959  -0.22911  -0.21235  -0.20999
 Alpha  occ. eigenvalues --   -0.18862  -0.15682  -0.11189  -0.10270  -0.10095
 Alpha  occ. eigenvalues --   -0.07055   0.05297
 Alpha virt. eigenvalues --    0.07943   0.09355   0.10427   0.11189   0.12109
 Alpha virt. eigenvalues --    0.13189   0.13343   0.13848   0.14627   0.15468
 Alpha virt. eigenvalues --    0.15773   0.16094   0.17374   0.18150   0.18321

  Beta  occ. eigenvalues --  -88.71816 -19.02537 -14.13073 -10.07944 -10.04779
  Beta  occ. eigenvalues --  -10.04251 -10.03954 -10.03621 -10.03452 -10.02742
  Beta  occ. eigenvalues --  -10.01463 -10.01305  -7.80481  -5.76814  -5.76455
  Beta  occ. eigenvalues --   -5.75940  -0.93372  -0.77456  -0.72723  -0.65084
  Beta  occ. eigenvalues --   -0.59976  -0.58065  -0.57208  -0.47800  -0.47247
  Beta  occ. eigenvalues --   -0.44785  -0.41210  -0.39064  -0.33723  -0.32588
  Beta  occ. eigenvalues --   -0.32310  -0.30934  -0.27726  -0.27613  -0.26360
  Beta  occ. eigenvalues --   -0.23817  -0.23385  -0.22698  -0.20820  -0.20223
  Beta  occ. eigenvalues --   -0.18688  -0.13940  -0.10480  -0.09838  -0.09268
  Beta  occ. eigenvalues --   -0.05431
  Beta virt. eigenvalues --    0.07904   0.09338   0.10381   0.10768   0.11146
  Beta virt. eigenvalues --    0.12050   0.13304   0.13554   0.14527   0.15191
  Beta virt. eigenvalues --    0.15598   0.15802   0.16087   0.17539   0.18248

 Mulliken charges and spin densities:
               1          2
     1  C    0.016139   0.091286
     2  C   -0.695274   0.020653
     3  N   -0.141136   0.166650
     4  C   -0.637272  -0.024038
     5  C    0.069325   0.155551
     6  C    0.585829   0.078166
     7  C    0.490879   0.022395
     8  C   -0.313276   0.142964
     9  C   -0.178467  -0.032215
    10  C   -0.304856   0.310159
    11  S   -0.616251   0.090654
    12  O   -0.240039   0.014008
    13  H    0.190563  -0.001717
    14  H    0.106640  -0.004734
    15  H    0.114616  -0.000152
    16  H    0.066687  -0.008673
    17  H    0.071916   0.002471
    18  H    0.173065  -0.022381
    19  H    0.240912  -0.001047
 Sum of Mulliken charges =  -1.00000   1.00000

 Dipole moment (field-independent basis, Debye):
    X=              4.9018    Y=              1.7401    Z=              0.1354  Tot=              5.2033
 Quadrupole moment (field-independent basis, Debye-Ang):
   XX=           -118.4020   YY=            -81.8033   ZZ=            -88.5347
   XY=              5.9038   XZ=              0.3879   YZ=             -0.0621

 Summary of Natural Population Analysis:

                                       Natural Population
                Natural  -----------------------------------------------
    Atom  No    Charge         Core      Valence    Rydberg      Total
 -----------------------------------------------------------------------
      C    1   -0.11453      0.99953     2.10708    0.00792     3.11453
      C    2    0.01849      0.99960     1.96597    0.01594     2.98151
      N    3   -0.20921      0.99971     2.69518    0.01431     3.70921
      C    4    0.00668      0.99960     1.97767    0.01605     2.99332
      C    5   -0.10832      0.99953     2.10082    0.00797     3.10832
      C    6    0.01768      0.99949     1.97106    0.01176     2.98232
      C    7   -0.12570      0.99942     2.11585    0.01043     3.12570
      C    8    0.17487      0.99929     1.81370    0.01214     2.82513
      C    9   -0.18854      0.99951     2.17828    0.01076     3.18854
      C   10   -0.10268      0.99957     2.09135    0.01176     3.10268
      S   11    0.20017      4.99946     2.77678    0.02359     7.79983
      O   12   -0.33865      0.99987     3.33256    0.00622     4.33865
      H   13    0.10689      0.00000     0.39195    0.00115     0.39311
      H   14    0.07674      0.00000     0.42182    0.00144     0.42326
      H   15    0.07772      0.00000     0.42084    0.00144     0.42228
      H   16    0.09677      0.00000     0.40205    0.00117     0.40323
      H   17    0.09177      0.00000     0.40691    0.00132     0.40823
      H   18    0.09354      0.00000     0.40540    0.00106     0.40646
      H   19    0.22630      0.00000     0.27124    0.00246     0.27370
 =======================================================================
   * Total *    0.00000     15.99458    29.84651    0.15891    46.00000

 Normal termination of Gaussian 16 at Wed Dec  9 16:57:31 2020.
