 Gaussian 16, Revision A.03,

 -----------------------------------------------------------
 # opt freq B3LYP/6-31G(d) empiricaldispersion=gd3bj scf=xqc
 -----------------------------------------------------------

 -------------------------------
 CID_151714974_JID_5272_neutraal
 -------------------------------
 Symbolic Z-matrix:
 Charge =  0 Multiplicity = 1

 SCF Done:  E(RB3LYP) =  -666.161775839     A.U. after   16 cycles
 SCF Done:  E(RB3LYP) =  -666.170387006     A.U. after   15 cycles
 SCF Done:  E(RB3LYP) =  -666.174489919     A.U. after   14 cycles
 SCF Done:  E(RB3LYP) =  -666.175841476     A.U. after   14 cycles
 SCF Done:  E(RB3LYP) =  -666.176362272     A.U. after   14 cycles
 SCF Done:  E(RB3LYP) =  -666.177369560     A.U. after   14 cycles
 SCF Done:  E(RB3LYP) =  -666.178117518     A.U. after   16 cycles
 SCF Done:  E(RB3LYP) =  -666.178463929     A.U. after   16 cycles
 SCF Done:  E(RB3LYP) =  -666.178675346     A.U. after   13 cycles
 SCF Done:  E(RB3LYP) =  -666.178769237     A.U. after   13 cycles
 SCF Done:  E(RB3LYP) =  -666.178793490     A.U. after   11 cycles
 SCF Done:  E(RB3LYP) =  -666.178798604     A.U. after   10 cycles
 SCF Done:  E(RB3LYP) =  -666.178801135     A.U. after    8 cycles
 SCF Done:  E(RB3LYP) =  -666.178801225     A.U. after    8 cycles
 SCF Done:  E(RB3LYP) =  -666.178801193     A.U. after    8 cycles
 Optimization completed.
    -- Stationary point found.
 Normal termination of Gaussian 16 at Thu Dec 10 15:23:46 2020.

 --------------------------------------------------------------------
 #N Geom=AllCheck Guess=TCheck SCRF=Check GenChk RB3LYP/6-31G(d) Freq
 --------------------------------------------------------------------

 Structure from the checkpoint file:  "JID_5272.chk"
 -------------------------------
 CID_151714974_JID_5272_neutraal
 -------------------------------
 Charge =  0 Multiplicity = 1

 SCF Done:  E(RB3LYP) =  -666.178801193     A.U. after    1 cycles

  Exact polarizability: 180.593  -2.172 121.037  -9.392  -0.585 109.619
 Approx polarizability: 253.795 -12.517 174.564 -23.931   4.244 173.532

                      1                      2                      3
                      A                      A                      A
 Frequencies --     22.1854                41.6070                61.9161
 Red. masses --      8.4101                 6.1068                 3.0164
 Frc consts  --      0.0024                 0.0062                 0.0068
 IR Inten    --      0.0411                 0.3768                 0.1475

                      4                      5                      6
                      A                      A                      A
 Frequencies --     69.5778               120.3502               158.6097
 Red. masses --      5.0745                 2.7010                 2.6334
 Frc consts  --      0.0145                 0.0230                 0.0390
 IR Inten    --      0.6032                 0.2429                 0.1393

                      7                      8                      9
                      A                      A                      A
 Frequencies --    175.0790               216.2906               227.6671
 Red. masses --      4.2897                 3.4594                 2.5096
 Frc consts  --      0.0775                 0.0954                 0.0766
 IR Inten    --      1.6341                 0.6184                 0.8650

                     10                     11                     12
                      A                      A                      A
 Frequencies --    238.0218               260.9827               281.8716
 Red. masses --      1.5361                 2.9104                 2.9830
 Frc consts  --      0.0513                 0.1168                 0.1396
 IR Inten    --      0.1998                 2.7870                 1.6444

                     13                     14                     15
                      A                      A                      A
 Frequencies --    344.5631               380.3577               388.7188
 Red. masses --      3.1364                 2.1088                 3.2210
 Frc consts  --      0.2194                 0.1798                 0.2868
 IR Inten    --      0.0305                 2.6572                 2.4076

                     16                     17                     18
                      A                      A                      A
 Frequencies --    425.3958               446.7728               455.0977
 Red. masses --      2.6932                 1.9895                 2.3268
 Frc consts  --      0.2871                 0.2340                 0.2839
 IR Inten    --      3.3197                 2.5420                 0.6135

                     19                     20                     21
                      A                      A                      A
 Frequencies --    493.1458               529.6077               539.6959
 Red. masses --      2.5439                 3.1820                 3.0775
 Frc consts  --      0.3645                 0.5258                 0.5281
 IR Inten    --      0.1228                 2.0404                 2.3138

                     22                     23                     24
                      A                      A                      A
 Frequencies --    568.5130               648.3662               678.3038
 Red. masses --     12.6766                 3.3060                 3.3195
 Frc consts  --      2.4140                 0.8188                 0.8999
 IR Inten    --     11.0018                19.0953                18.7761

                     25                     26                     27
                      A                      A                      A
 Frequencies --    773.2332               801.7536               809.5229
 Red. masses --      1.4948                 1.4957                 1.6580
 Frc consts  --      0.5266                 0.5665                 0.6402
 IR Inten    --      5.0904                 0.6642                 1.3120

                     28                     29                     30
                      A                      A                      A
 Frequencies --    830.1546               838.7916               850.3303
 Red. masses --      2.0599                 1.7319                 2.0439
 Frc consts  --      0.8364                 0.7179                 0.8707
 IR Inten    --     11.4343                 7.3186                 9.4469

                     31                     32                     33
                      A                      A                      A
 Frequencies --    884.6785               925.2678               935.0644
 Red. masses --      4.9735                 2.3262                 2.5243
 Frc consts  --      2.2934                 1.1734                 1.3004
 IR Inten    --     12.8755                13.4637                17.2114

                     34                     35                     36
                      A                      A                      A
 Frequencies --    960.7395               969.9791               977.0635
 Red. masses --      1.4519                 3.0481                 2.4508
 Frc consts  --      0.7896                 1.6897                 1.3785
 IR Inten    --      0.6199                 8.2545                36.1260

                     37                     38                     39
                      A                      A                      A
 Frequencies --    997.6995              1012.1496              1052.2725
 Red. masses --      2.0445                 1.8805                 1.9021
 Frc consts  --      1.1990                 1.1351                 1.2409
 IR Inten    --      8.9350                28.9459                13.5277

                     40                     41                     42
                      A                      A                      A
 Frequencies --   1070.2869              1088.8260              1094.9644
 Red. masses --      1.3828                 1.4038                 1.7237
 Frc consts  --      0.9333                 0.9806                 1.2176
 IR Inten    --     13.7269                 0.8628                 6.0450

                     43                     44                     45
                      A                      A                      A
 Frequencies --   1098.6154              1108.7412              1119.0998
 Red. masses --      2.1254                 1.9535                 1.8882
 Frc consts  --      1.5114                 1.4149                 1.3933
 IR Inten    --      6.1627                13.3405                10.2489

                     46                     47                     48
                      A                      A                      A
 Frequencies --   1147.5942              1155.5500              1156.8763
 Red. masses --      1.2237                 1.6229                 1.5012
 Frc consts  --      0.9495                 1.2768                 1.1838
 IR Inten    --      0.0502                 1.4601                 2.7067

                     49                     50                     51
                      A                      A                      A
 Frequencies --   1189.6436              1207.0814              1216.3386
 Red. masses --      1.7556                 1.5604                 1.7054
 Frc consts  --      1.4639                 1.3396                 1.4866
 IR Inten    --      7.2782                 5.3340                10.1621

                     52                     53                     54
                      A                      A                      A
 Frequencies --   1224.1560              1239.0269              1246.9298
 Red. masses --      1.7319                 2.0508                 2.6552
 Frc consts  --      1.5292                 1.8549                 2.4324
 IR Inten    --     19.3095                 1.0819                63.6369

                     55                     56                     57
                      A                      A                      A
 Frequencies --   1283.3366              1298.5019              1309.0970
 Red. masses --      1.7724                 1.6320                 1.3467
 Frc consts  --      1.7199                 1.6213                 1.3597
 IR Inten    --     16.8509                 5.9321                 5.7734

                     58                     59                     60
                      A                      A                      A
 Frequencies --   1343.5060              1355.6881              1370.7839
 Red. masses --      1.2607                 1.2959                 1.7624
 Frc consts  --      1.3407                 1.4033                 1.9512
 IR Inten    --      2.7788                 4.9182                 2.2345

                     61                     62                     63
                      A                      A                      A
 Frequencies --   1385.8605              1396.5698              1402.9772
 Red. masses --      1.4193                 1.4171                 1.4569
 Frc consts  --      1.6061                 1.6285                 1.6895
 IR Inten    --     29.0273                 1.9924                 0.4308

                     64                     65                     66
                      A                      A                      A
 Frequencies --   1408.3024              1417.7025              1433.1269
 Red. masses --      1.4690                 1.4618                 1.3732
 Frc consts  --      1.7166                 1.7310                 1.6617
 IR Inten    --     21.8032                26.5138                23.5483

                     67                     68                     69
                      A                      A                      A
 Frequencies --   1482.9435              1487.0330              1504.7064
 Red. masses --      1.1001                 1.1759                 1.1254
 Frc consts  --      1.4254                 1.5320                 1.5012
 IR Inten    --      0.2217                 4.0640                11.4846

                     70                     71                     72
                      A                      A                      A
 Frequencies --   1508.8253              1518.0838              1522.1283
 Red. masses --      1.1268                 1.0855                 1.1190
 Frc consts  --      1.5114                 1.4740                 1.5275
 IR Inten    --      9.6780                 2.0045                11.0167

                     73                     74                     75
                      A                      A                      A
 Frequencies --   1528.4155              1531.9253              1535.7743
 Red. masses --      1.0797                 1.1641                 1.2383
 Frc consts  --      1.4861                 1.6096                 1.7207
 IR Inten    --      8.9522                 6.7395                17.1239

                     76                     77                     78
                      A                      A                      A
 Frequencies --   1549.9603              2227.6941              2910.7675
 Red. masses --      1.0683                13.9560                 1.0821
 Frc consts  --      1.5121                40.8058                 5.4017
 IR Inten    --      4.8906               561.3949                65.4333

                     79                     80                     81
                      A                      A                      A
 Frequencies --   2951.8695              3032.3632              3033.9798
 Red. masses --      1.0623                 1.0852                 1.0812
 Frc consts  --      5.4536                 5.8791                 5.8640
 IR Inten    --     85.6917                54.9218                 6.5926

                     82                     83                     84
                      A                      A                      A
 Frequencies --   3041.3017              3045.9513              3053.0660
 Red. masses --      1.0718                 1.0676                 1.0676
 Frc consts  --      5.8412                 5.8358                 5.8631
 IR Inten    --     15.0146                 1.7281                19.4144

                     85                     86                     87
                      A                      A                      A
 Frequencies --   3058.9410              3099.5780              3101.4400
 Red. masses --      1.0631                 1.1006                 1.0829
 Frc consts  --      5.8612                 6.2297                 6.1372
 IR Inten    --     78.1506                36.9996                14.1962

                     88                     89                     90
                      A                      A                      A
 Frequencies --   3107.2200              3112.7447              3124.5304
 Red. masses --      1.1017                 1.0806                 1.0911
 Frc consts  --      6.2671                 6.1688                 6.2758
 IR Inten    --     44.8922                52.5072                29.4397

                     91                     92                     93
                      A                      A                      A
 Frequencies --   3149.1464              3151.6174              3157.8975
 Red. masses --      1.1003                 1.0541                 1.0595
 Frc consts  --      6.4292                 6.1686                 6.2252
 IR Inten    --     25.1317                21.5691                 8.4833

                     94                     95                     96
                      A                      A                      A
 Frequencies --   3231.3608              3248.2599              3459.0934
 Red. masses --      1.1188                 1.1149                 1.0742
 Frc consts  --      6.8830                 6.9310                 7.5725
 IR Inten    --      3.6152                18.0657                 0.7548

 - Thermochemistry -
 -------------------
 Temperature   298.150 Kelvin.  Pressure   1.00000 Atm.
 Atom     1 has atomic number  6 and mass  12.00000

 Molecular mass:   209.16405 amu.
 Principal axes and moments of inertia in atomic units:
                           1         2         3
     Eigenvalues --  1450.906276341.449876958.59301
           X            0.99997  -0.00706  -0.00400
           Y            0.00700   0.99989  -0.01330
           Z            0.00410   0.01327   0.99990
 This molecule is an asymmetric top.
 Rotational symmetry number  1.
 Warning -- assumption of classical behavior for rotation
           may cause significant error
 Rotational temperatures (Kelvin)      0.05970     0.01366     0.01245
 Rotational constants (GHZ):           1.24387     0.28459     0.25935
 Zero-point vibrational energy     787317.5 (Joules/Mol)
                                  188.17339 (Kcal/Mol)
 Warning -- explicit consideration of  22 degrees of freedom as
           vibrations may cause significant error
 Vibrational temperatures:     31.92    59.86    89.08   100.11   173.16
          (Kelvin)            228.20   251.90   311.19   327.56   342.46
                              375.50   405.55   495.75   547.25   559.28
                              612.05   642.81   654.78   709.53   761.99
                              776.50   817.96   932.85   975.93  1112.51
                             1153.54  1164.72  1194.41  1206.83  1223.44
                             1272.86  1331.25  1345.35  1382.29  1395.58
                             1405.78  1435.47  1456.26  1513.99  1539.90
                             1566.58  1575.41  1580.66  1595.23  1610.14
                             1651.13  1662.58  1664.49  1711.63  1736.72
                             1750.04  1761.29  1782.68  1794.05  1846.44
                             1868.25  1883.50  1933.01  1950.53  1972.25
                             1993.94  2009.35  2018.57  2026.23  2039.76
                             2061.95  2133.62  2139.51  2164.94  2170.86
                             2184.18  2190.00  2199.05  2204.10  2209.64
                             2230.05  3205.16  4187.95  4247.08  4362.89
                             4365.22  4375.75  4382.44  4392.68  4401.13
                             4459.60  4462.28  4470.60  4478.55  4495.50
                             4530.92  4534.47  4543.51  4649.21  4673.52
                             4976.86

 Zero-point correction=                           0.299873 (Hartree/Particle)
 Thermal correction to Energy=                    0.314627
 Thermal correction to Enthalpy=                  0.315571
 Thermal correction to Gibbs Free Energy=         0.256875
 Sum of electronic and zero-point Energies=           -665.878928
 Sum of electronic and thermal Energies=              -665.864174
 Sum of electronic and thermal Enthalpies=            -665.863230
 Sum of electronic and thermal Free Energies=         -665.921926

                     E (Thermal)             CV                S
                      KCal/Mol        Cal/Mol-Kelvin    Cal/Mol-Kelvin
 Total                  197.431             56.857            123.537
 Electronic               0.000              0.000              0.000
 Translational            0.889              2.981             41.918
 Rotational               0.889              2.981             32.526
 Vibrational            195.654             50.895             49.093
 Vibration     1          0.593              1.985              6.428
 Vibration     2          0.594              1.981              5.181
 Vibration     3          0.597              1.972              4.395
 Vibration     4          0.598              1.969              4.165
 Vibration     5          0.609              1.932              3.095
 Vibration     6          0.621              1.893              2.566
 Vibration     7          0.627              1.873              2.380
 Vibration     8          0.645              1.816              1.990
 Vibration     9          0.651              1.799              1.897
 Vibration    10          0.656              1.782              1.818
 Vibration    11          0.669              1.744              1.655
 Vibration    12          0.681              1.707              1.522
 Vibration    13          0.723              1.586              1.191
 Vibration    14          0.750              1.512              1.038
 Vibration    15          0.757              1.494              1.005
 Vibration    16          0.787              1.415              0.874
 Vibration    17          0.806              1.368              0.806
 Vibration    18          0.813              1.350              0.781
 Vibration    19          0.849              1.265              0.675
 Vibration    20          0.885              1.184              0.588
 Vibration    21          0.895              1.162              0.566
 Vibration    22          0.925              1.099              0.507

 Optimization completed.
    -- Stationary point found.
 Normal termination of Gaussian 16 at Thu Dec 10 15:35:06 2020.

 ----------------------------------------------------------------------
 # B3LYP/6-311++G(d,p) empiricaldispersion=gd3bj scf=xqc pop=npa geom=c
 heck
 ----------------------------------------------------------------------

 ---------------------------------------
 CID_151714974_JID_5272_Energie_neutraal
 ---------------------------------------
 Structure from the checkpoint file:  "JID_5272.chk"
 Charge =  0 Multiplicity = 1

 SCF Done:  E(RB3LYP) =  -666.362881326     A.U. after   15 cycles
 Normal termination of Gaussian 16 at Thu Dec 10 15:42:51 2020.

 ----------------------------------------------------------------------
 # B3LYP/6-311++G(d,p) empiricaldispersion=gd3bj scf=xqc pop=npa geom=c
 heck
 ----------------------------------------------------------------------

 -------------------------------------
 CID_151714974_JID_5272_Energie_kation
 -------------------------------------
 Structure from the checkpoint file:  "JID_5272.chk"
 Charge =  1 Multiplicity = 2

 SCF Done:  E(UB3LYP) =  -666.068144567     A.U. after   29 cycles
 Normal termination of Gaussian 16 at Thu Dec 10 15:59:57 2020.
 Gaussian 16:  ES64L-G16RevA.03 25-Dec-2016

 ----------------------------------------------------------------------
 # B3LYP/6-311++G(d,p) empiricaldispersion=gd3bj scf=xqc pop=npa geom=c
 heck
 ----------------------------------------------------------------------

 ------------------------------------
 CID_151714974_JID_5272_Energie_anion
 ------------------------------------
 Structure from the checkpoint file:  "JID_5272.chk"
 Charge = -1 Multiplicity = 2

                         Standard orientation:
 ---------------------------------------------------------------------
 Center     Atomic      Atomic             Coordinates (Angstroms)
 Number     Number       Type             X           Y           Z
 ---------------------------------------------------------------------
      1          6           0        2.877702    1.450628   -0.907053
      2          7           0        2.168744    0.375248   -0.212825
      3          6           0        1.369615    0.870334    0.929303
      4          6           0        0.438589    2.029853    0.530417
      5          6           0       -0.632229    1.593015   -0.476889
      6          6           0       -1.476120    0.447688    0.093272
      7          6           0       -0.585191   -0.715653    0.548725
      8          6           0        0.496413   -0.246120    1.530296
      9          7           0       -2.486205    0.088292   -0.924236
     10          7           0       -3.324918   -1.006564   -0.435903
     11          7           0       -4.471792   -0.596957   -0.169384
     12          7           0       -5.550506   -0.382517    0.133635
     13          6           0        3.109261   -0.641926    0.195277
     14          6           0        2.740187   -2.102167    0.124746
     15          6           0        3.713762   -1.520092   -0.867571
     16          1           0        3.492380    2.071741   -0.228118
     17          1           0        2.176128    2.106177   -1.428677
     18          1           0        3.541405    1.010934   -1.654593
     19          1           0        2.055009    1.242680    1.717224
     20          1           0       -0.050786    2.382805    1.447654
     21          1           0        1.002342    2.883762    0.144542
     22          1           0       -0.144515    1.252641   -1.400334
     23          1           0       -1.284599    2.432079   -0.741087
     24          1           0       -2.039248    0.828029    0.956627
     25          1           0       -0.105068   -1.144704   -0.339655
     26          1           0       -1.202743   -1.499318    0.999447
     27          1           0        1.110006   -1.090134    1.853434
     28          1           0        0.020155    0.156136    2.434696
     29          1           0       -1.994076   -0.341961   -1.709190
     30          1           0        3.778770   -0.358208    1.017922
     31          1           0        3.114791   -2.761527    0.902980
     32          1           0        1.751014   -2.351254   -0.242678
     33          1           0        3.353816   -1.378628   -1.882470
     34          1           0        4.766031   -1.777126   -0.789863
 ---------------------------------------------------------------------

 SCF Done:  E(UB3LYP) =  -666.356847717     A.U. after   33 cycles
 SCF Done:  E(UB3LYP) =  -666.356847717     a.u. after    1 cycles

 The electronic state is 2-A.
 Alpha  occ. eigenvalues --  -14.31775 -14.23703 -14.23067 -14.21964 -14.21343
 Alpha  occ. eigenvalues --  -10.10656 -10.10372 -10.09334 -10.08864 -10.07809
 Alpha  occ. eigenvalues --  -10.07745 -10.07220 -10.06773 -10.06537 -10.05765
 Alpha  occ. eigenvalues --   -0.99637  -0.86716  -0.84032  -0.76477  -0.74902
 Alpha  occ. eigenvalues --   -0.70426  -0.64882  -0.62288  -0.57831  -0.51696
 Alpha  occ. eigenvalues --   -0.51272  -0.50838  -0.48598  -0.45062  -0.42980
 Alpha  occ. eigenvalues --   -0.40800  -0.39606  -0.39285  -0.37602  -0.36787
 Alpha  occ. eigenvalues --   -0.36384  -0.33970  -0.33719  -0.32241  -0.31287
 Alpha  occ. eigenvalues --   -0.31262  -0.30824  -0.29366  -0.28503  -0.27688
 Alpha  occ. eigenvalues --   -0.27312  -0.26131  -0.24640  -0.24578  -0.23465
 Alpha  occ. eigenvalues --   -0.21842  -0.20653  -0.20038  -0.19631  -0.13419
 Alpha  occ. eigenvalues --   -0.12951  -0.11524   0.04415
 Alpha virt. eigenvalues --    0.05711   0.06887   0.07034   0.08138   0.08921
 Alpha virt. eigenvalues --    0.09309   0.09799   0.10095   0.10718   0.11604
 Alpha virt. eigenvalues --    0.12130   0.12468   0.12829   0.13240   0.13310

  Beta  occ. eigenvalues --  -14.31435 -14.23759 -14.22582 -14.21831 -14.21328
  Beta  occ. eigenvalues --  -10.10645 -10.10368 -10.09332 -10.08841 -10.07800
  Beta  occ. eigenvalues --  -10.07726 -10.07211 -10.06770 -10.06524 -10.05759
  Beta  occ. eigenvalues --   -0.98968  -0.86398  -0.84008  -0.76308  -0.74822
  Beta  occ. eigenvalues --   -0.70319  -0.64861  -0.62190  -0.57773  -0.51670
  Beta  occ. eigenvalues --   -0.51232  -0.50769  -0.48551  -0.45003  -0.42668
  Beta  occ. eigenvalues --   -0.40740  -0.39568  -0.39213  -0.36884  -0.36376
  Beta  occ. eigenvalues --   -0.35966  -0.33900  -0.33569  -0.32020  -0.31138
  Beta  occ. eigenvalues --   -0.30860  -0.30351  -0.29325  -0.28425  -0.27644
  Beta  occ. eigenvalues --   -0.27263  -0.26074  -0.24575  -0.24318  -0.23321
  Beta  occ. eigenvalues --   -0.21676  -0.20392  -0.19892  -0.19576  -0.13225
  Beta  occ. eigenvalues --   -0.12864  -0.11363
  Beta virt. eigenvalues --    0.06476   0.07259   0.07402   0.08160   0.09137
  Beta virt. eigenvalues --    0.09395   0.09632   0.10172   0.10363   0.11265
  Beta virt. eigenvalues --    0.11789   0.12303   0.12669   0.12880   0.13269

 Mulliken charges and spin densities:
               1          2
     1  C    0.666081  -1.029558
     2  N    0.097726   0.071075
     3  C    0.380820  -0.110149
     4  C   -0.296936  -0.237359
     5  C   -0.361715   0.217675
     6  C   -0.585842  -0.477083
     7  C    0.242559  -0.189338
     8  C   -0.867603   0.279299
     9  N    0.075200   0.005804
    10  N   -0.487746   0.005960
    11  N    0.475863   0.111948
    12  N   -0.328434   0.282515
    13  C   -1.042320   0.938936
    14  C   -0.091169  -0.313935
    15  C    1.095378  -1.505356
    16  H   -0.177440   0.316841
    17  H   -0.160497   0.284690
    18  H   -0.253668   0.383415
    19  H   -0.026539   0.199470
    20  H    0.094830   0.038681
    21  H    0.083660   0.089179
    22  H    0.098618   0.048008
    23  H    0.048303   0.136484
    24  H    0.152063   0.004177
    25  H    0.360282  -0.223828
    26  H    0.121136   0.091965
    27  H    0.107826   0.068933
    28  H    0.056388   0.091073
    29  H    0.009697   0.210704
    30  H   -0.323556   0.487759
    31  H    0.013601   0.134642
    32  H   -0.006536   0.130105
    33  H    0.097759   0.037216
    34  H   -0.267789   0.420050
 Sum of Mulliken charges =  -1.00000   1.00000

 Dipole moment (field-independent basis, Debye):
    X=              1.6774    Y=              0.5426    Z=              1.4518  Tot=              2.2838
 Quadrupole moment (field-independent basis, Debye-Ang):
   XX=           -208.3144   YY=           -122.3981   ZZ=           -114.8689
   XY=             -4.7783   XZ=              0.1994   YZ=              1.8413

 Summary of Natural Population Analysis:

                                       Natural Population
                Natural  -----------------------------------------------
    Atom  No    Charge         Core      Valence    Rydberg      Total
 -----------------------------------------------------------------------
      C    1   -0.17769      0.99964     2.16940    0.00866     3.17769
      N    2   -0.28742      0.99968     2.77388    0.01386     3.78742
      C    3    0.00185      0.99958     1.98635    0.01222     2.99815
      C    4   -0.19308      0.99961     2.18467    0.00880     3.19308
      C    5   -0.19600      0.99960     2.18658    0.00982     3.19600
      C    6   -0.00839      0.99958     1.99706    0.01176     3.00839
      C    7   -0.20166      0.99960     2.19404    0.00802     3.20166
      C    8   -0.19286      0.99960     2.18538    0.00787     3.19286
      N    9   -0.24006      0.99972     2.72727    0.01307     3.74006
      N   10   -0.16034      0.99973     2.64451    0.01610     3.66034
      N   11    0.13977      0.99971     2.34511    0.01541     3.36023
      N   12    0.00696      0.99982     2.47894    0.01429     3.49304
      C   13   -0.01651      0.99956     2.00306    0.01389     3.01651
      C   14   -0.20237      0.99960     2.19334    0.00943     3.20237
      C   15   -0.20146      0.99961     2.19216    0.00969     3.20146
      H   16    0.08236      0.00000     0.41618    0.00147     0.41764
      H   17    0.09457      0.00000     0.40428    0.00115     0.40543
      H   18    0.09956      0.00000     0.39928    0.00116     0.40044
      H   19    0.08442      0.00000     0.41370    0.00188     0.41558
      H   20    0.09702      0.00000     0.40194    0.00104     0.40298
      H   21    0.10138      0.00000     0.39773    0.00089     0.39862
      H   22    0.09920      0.00000     0.39932    0.00149     0.40080
      H   23    0.10301      0.00000     0.39577    0.00122     0.39699
      H   24    0.08854      0.00000     0.40958    0.00189     0.41146
      H   25    0.09718      0.00000     0.40085    0.00197     0.40282
      H   26    0.10787      0.00000     0.39096    0.00117     0.39213
      H   27    0.10407      0.00000     0.39485    0.00107     0.39593
      H   28    0.09513      0.00000     0.40383    0.00104     0.40487
      H   29    0.16837      0.00000     0.32886    0.00277     0.33163
      H   30    0.09027      0.00000     0.40769    0.00204     0.40973
      H   31    0.10063      0.00000     0.39849    0.00088     0.39937
      H   32    0.10690      0.00000     0.39183    0.00127     0.39310
      H   33    0.10498      0.00000     0.39390    0.00112     0.39502
      H   34    0.10381      0.00000     0.39491    0.00129     0.39619
 =======================================================================
   * Total *    0.00000     14.99463    41.80569    0.19967    57.00000

 Normal termination of Gaussian 16 at Thu Dec 10 16:15:59 2020.
