 Gaussian 16, Revision A.03,

 -----------------------------------------------------------
 # opt freq B3LYP/6-31G(d) empiricaldispersion=gd3bj scf=xqc
 -----------------------------------------------------------

 -------------------------------
 CID_130150012_JID_6564_neutraal
 -------------------------------
 Symbolic Z-matrix:
 Charge =  0 Multiplicity = 1

 SCF Done:  E(RB3LYP) =  -683.522244110     A.U. after   16 cycles
 SCF Done:  E(RB3LYP) =  -683.551504994     A.U. after   13 cycles
 SCF Done:  E(RB3LYP) =  -683.553455169     A.U. after   13 cycles
 SCF Done:  E(RB3LYP) =  -683.553802734     A.U. after   12 cycles
 SCF Done:  E(RB3LYP) =  -683.554059037     A.U. after   13 cycles
 SCF Done:  E(RB3LYP) =  -683.554099262     A.U. after   12 cycles
 SCF Done:  E(RB3LYP) =  -683.554371065     A.U. after   11 cycles
 SCF Done:  E(RB3LYP) =  -683.554463955     A.U. after   11 cycles
 SCF Done:  E(RB3LYP) =  -683.554638698     A.U. after   13 cycles
 SCF Done:  E(RB3LYP) =  -683.554599850     A.U. after   12 cycles
 SCF Done:  E(RB3LYP) =  -683.554667539     A.U. after   12 cycles
 SCF Done:  E(RB3LYP) =  -683.554661172     A.U. after   10 cycles
 SCF Done:  E(RB3LYP) =  -683.554668940     A.U. after   11 cycles
 SCF Done:  E(RB3LYP) =  -683.554669191     A.U. after    8 cycles
 SCF Done:  E(RB3LYP) =  -683.554669373     A.U. after    8 cycles
 Optimization completed.
    -- Stationary point found.
 Normal termination of Gaussian 16 at Thu Dec 10 23:39:47 2020.

 --------------------------------------------------------------------
 #N Geom=AllCheck Guess=TCheck SCRF=Check GenChk RB3LYP/6-31G(d) Freq
 --------------------------------------------------------------------

 Structure from the checkpoint file:  "JID_6564.chk"
 -------------------------------
 CID_130150012_JID_6564_neutraal
 -------------------------------
 Charge =  0 Multiplicity = 1

 SCF Done:  E(RB3LYP) =  -683.554669373     A.U. after    1 cycles

  Exact polarizability: 204.543 -23.792 150.938 -12.569  -8.877  82.341
 Approx polarizability: 311.291 -43.229 271.689 -29.121 -21.142 130.432

                      1                      2                      3
                      A                      A                      A
 Frequencies --     38.5073                47.5181                82.2564
 Red. masses --      5.5812                 8.7960                 4.2774
 Frc consts  --      0.0049                 0.0117                 0.0171
 IR Inten    --      6.9969                 2.0957                 3.9413

                      4                      5                      6
                      A                      A                      A
 Frequencies --    118.0321               143.7375               163.1605
 Red. masses --      2.5366                 5.6180                 1.3338
 Frc consts  --      0.0208                 0.0684                 0.0209
 IR Inten    --      3.3842                 3.0617                 0.3937

                      7                      8                      9
                      A                      A                      A
 Frequencies --    179.3265               211.1476               274.2429
 Red. masses --      3.8501                 4.8323                 3.4372
 Frc consts  --      0.0729                 0.1269                 0.1523
 IR Inten    --      3.7091                 3.8077                 1.4898

                     10                     11                     12
                      A                      A                      A
 Frequencies --    291.3799               302.5181               328.4842
 Red. masses --      3.2580                 1.0606                 4.0677
 Frc consts  --      0.1630                 0.0572                 0.2586
 IR Inten    --      2.0217                60.4222                 2.5872

                     13                     14                     15
                      A                      A                      A
 Frequencies --    369.8271               389.8884               416.0488
 Red. masses --      4.3935                 3.0860                 4.3404
 Frc consts  --      0.3540                 0.2764                 0.4427
 IR Inten    --      2.6800                 1.9769                 2.2513

                     16                     17                     18
                      A                      A                      A
 Frequencies --    454.9389               472.5018               494.4931
 Red. masses --      4.7500                 4.3520                 3.7304
 Frc consts  --      0.5792                 0.5725                 0.5374
 IR Inten    --      1.3186                 1.3224                 0.7863

                     19                     20                     21
                      A                      A                      A
 Frequencies --    509.8002               555.0806               579.3719
 Red. masses --      4.0879                 3.8674                 4.1128
 Frc consts  --      0.6260                 0.7021                 0.8134
 IR Inten    --      6.2346                 1.5828                 1.4741

                     22                     23                     24
                      A                      A                      A
 Frequencies --    623.4543               663.8699               686.8285
 Red. masses --      7.7114                 5.0684                 4.5988
 Frc consts  --      1.7660                 1.3161                 1.2782
 IR Inten    --      2.3752                 3.6790                 0.8303

                     25                     26                     27
                      A                      A                      A
 Frequencies --    735.0677               752.8867               804.9366
 Red. masses --      4.2612                 3.5754                 1.3518
 Frc consts  --      1.3566                 1.1941                 0.5161
 IR Inten    --      3.5173                 1.8091                18.7846

                     28                     29                     30
                      A                      A                      A
 Frequencies --    823.7511               824.8832               866.1538
 Red. masses --      5.4028                 5.2870                 2.9299
 Frc consts  --      2.1600                 2.1195                 1.2951
 IR Inten    --      8.8268                 9.2266                18.7161

                     31                     32                     33
                      A                      A                      A
 Frequencies --    904.3726               918.3707               933.2102
 Red. masses --      1.4100                 1.8180                 4.0307
 Frc consts  --      0.6795                 0.9034                 2.0682
 IR Inten    --    151.6832                14.2759                 7.2512

                     34                     35                     36
                      A                      A                      A
 Frequencies --    957.8776               971.8093               993.8728
 Red. masses --      2.3301                 1.4069                 1.3615
 Frc consts  --      1.2596                 0.7829                 0.7924
 IR Inten    --      6.2615                 1.0786                 2.9035

                     37                     38                     39
                      A                      A                      A
 Frequencies --    999.4205              1039.7386              1063.2173
 Red. masses --      3.1067                 1.7244                 2.3220
 Frc consts  --      1.8283                 1.0983                 1.5465
 IR Inten    --     35.5463                 9.8715                 6.5339

                     40                     41                     42
                      A                      A                      A
 Frequencies --   1067.5349              1084.4069              1145.4461
 Red. masses --      1.6570                 3.0651                 1.7392
 Frc consts  --      1.1126                 2.1237                 1.3445
 IR Inten    --      3.8704                 0.7772                 5.8412

                     43                     44                     45
                      A                      A                      A
 Frequencies --   1176.5493              1203.0698              1237.3092
 Red. masses --      1.4750                 1.3969                 1.3320
 Frc consts  --      1.2030                 1.1912                 1.2015
 IR Inten    --      7.4585                 4.1625                 3.4291

                     46                     47                     48
                      A                      A                      A
 Frequencies --   1238.6149              1260.3945              1285.7387
 Red. masses --      2.2944                 1.6923                 2.5633
 Frc consts  --      2.0739                 1.5839                 2.4966
 IR Inten    --     13.4203                 1.6888                18.1831

                     49                     50                     51
                      A                      A                      A
 Frequencies --   1296.4803              1365.8181              1375.2242
 Red. masses --      1.6514                 2.5181                 1.6826
 Frc consts  --      1.6354                 2.7676                 1.8749
 IR Inten    --     23.8609                13.6017                 4.6785

                     52                     53                     54
                      A                      A                      A
 Frequencies --   1379.5272              1411.6850              1432.7403
 Red. masses --      2.4380                 2.8261                 1.3050
 Frc consts  --      2.7337                 3.3183                 1.5784
 IR Inten    --      2.7519                 0.0541                 8.2688

                     55                     56                     57
                      A                      A                      A
 Frequencies --   1441.5100              1478.6061              1490.6860
 Red. masses --      1.6393                 2.5751                 1.7232
 Frc consts  --      2.0070                 3.3171                 2.2561
 IR Inten    --     25.2375                 5.5821                13.2536

                     58                     59                     60
                      A                      A                      A
 Frequencies --   1495.2600              1519.0492              1520.6509
 Red. masses --      1.1284                 1.4669                 1.0893
 Frc consts  --      1.4864                 1.9944                 1.4841
 IR Inten    --     13.4968                 8.8299                11.2118

                     61                     62                     63
                      A                      A                      A
 Frequencies --   1529.2323              1601.3326              1664.0607
 Red. masses --      3.5403                 6.5302                 5.9513
 Frc consts  --      4.8779                 9.8660                 9.7096
 IR Inten    --     29.5089                46.1269                30.1244

                     64                     65                     66
                      A                      A                      A
 Frequencies --   1677.4842              1707.1430              2367.1805
 Red. masses --      6.5778                 1.0899                12.5849
 Frc consts  --     10.9055                 1.8714                41.5494
 IR Inten    --     43.9250                32.0454                 5.9580

                     67                     68                     69
                      A                      A                      A
 Frequencies --   3046.0626              3063.0030              3094.7032
 Red. masses --      1.0409                 1.0617                 1.0879
 Frc consts  --      5.6905                 5.8687                 6.1386
 IR Inten    --     21.7834                10.5761                25.8508

                     70                     71                     72
                      A                      A                      A
 Frequencies --   3095.2716              3111.5676              3161.9874
 Red. masses --      1.0964                 1.1007                 1.0895
 Frc consts  --      6.1887                 6.2787                 6.4180
 IR Inten    --     17.4899                 9.2056                34.2821

                     73                     74                     75
                      A                      A                      A
 Frequencies --   3169.7958              3188.1257              3211.4393
 Red. masses --      1.0981                 1.0894                 1.0904
 Frc consts  --      6.5004                 6.5240                 6.6256
 IR Inten    --      5.4730                 7.3252                 8.2132

                     76                     77                     78
                      A                      A                      A
 Frequencies --   3216.8927              3473.6753              3558.3640
 Red. masses --      1.0959                 1.0500                 1.0923
 Frc consts  --      6.6821                 7.4648                 8.1488
 IR Inten    --     21.1083                 0.3271                 1.3104

 - Thermochemistry -
 -------------------
 Temperature   298.150 Kelvin.  Pressure   1.00000 Atm.
 Atom     1 has atomic number  6 and mass  12.00000

 Molecular mass:   212.10620 amu.
 Principal axes and moments of inertia in atomic units:
                           1         2         3
     Eigenvalues --  1947.888434824.798465837.66600
           X            0.99948  -0.03163  -0.00626
           Y            0.03142   0.99901  -0.03154
           Z            0.00725   0.03133   0.99948
 This molecule is an asymmetric top.
 Rotational symmetry number  1.
 Warning -- assumption of classical behavior for rotation
           may cause significant error
 Rotational temperatures (Kelvin)      0.04447     0.01795     0.01484
 Rotational constants (GHZ):           0.92651     0.37406     0.30915
 Zero-point vibrational energy     591132.3 (Joules/Mol)
                                  141.28401 (Kcal/Mol)
 Warning -- explicit consideration of  21 degrees of freedom as
           vibrations may cause significant error
 Vibrational temperatures:     55.40    68.37   118.35   169.82   206.81
          (Kelvin)            234.75   258.01   303.79   394.57   419.23
                              435.26   472.62   532.10   560.96   598.60
                              654.56   679.82   711.47   733.49   798.64
                              833.59   897.01   955.16   988.19  1057.60
                             1083.24  1158.12  1185.19  1186.82  1246.20
                             1301.19  1321.33  1342.68  1378.17  1398.22
                             1429.96  1437.94  1495.95  1529.73  1535.94
                             1560.22  1648.04  1692.79  1730.95  1780.21
                             1782.09  1813.43  1849.89  1865.35  1965.11
                             1978.64  1984.83  2031.10  2061.39  2074.01
                             2127.38  2144.76  2151.35  2185.57  2187.88
                             2200.22  2303.96  2394.21  2413.53  2456.20
                             3405.84  4382.60  4406.98  4452.59  4453.41
                             4476.85  4549.39  4560.63  4587.00  4620.54
                             4628.39  4997.84  5119.69

 Zero-point correction=                           0.225150 (Hartree/Particle)
 Thermal correction to Energy=                    0.239011
 Thermal correction to Enthalpy=                  0.239955
 Thermal correction to Gibbs Free Energy=         0.184059
 Sum of electronic and zero-point Energies=           -683.329519
 Sum of electronic and thermal Energies=              -683.315659
 Sum of electronic and thermal Enthalpies=            -683.314714
 Sum of electronic and thermal Free Energies=         -683.370611

                     E (Thermal)             CV                S
                      KCal/Mol        Cal/Mol-Kelvin    Cal/Mol-Kelvin
 Total                  149.982             53.495            117.644
 Electronic               0.000              0.000              0.000
 Translational            0.889              2.981             41.959
 Rotational               0.889              2.981             32.373
 Vibrational            148.204             47.533             43.312
 Vibration     1          0.594              1.981              5.334
 Vibration     2          0.595              1.979              4.918
 Vibration     3          0.600              1.961              3.836
 Vibration     4          0.608              1.934              3.132
 Vibration     5          0.616              1.909              2.754
 Vibration     6          0.623              1.888              2.513
 Vibration     7          0.629              1.868              2.335
 Vibration     8          0.643              1.824              2.034
 Vibration     9          0.677              1.721              1.569
 Vibration    10          0.687              1.690              1.466
 Vibration    11          0.694              1.669              1.403
 Vibration    12          0.712              1.619              1.268
 Vibration    13          0.742              1.534              1.081
 Vibration    14          0.758              1.492              1.001
 Vibration    15          0.779              1.435              0.905
 Vibration    16          0.813              1.350              0.781
 Vibration    17          0.829              1.311              0.731
 Vibration    18          0.850              1.262              0.672
 Vibration    19          0.865              1.228              0.634
 Vibration    20          0.911              1.129              0.534
 Vibration    21          0.936              1.076              0.487

 Optimization completed.
    -- Stationary point found.
 Normal termination of Gaussian 16 at Thu Dec 10 23:48:41 2020.

 ----------------------------------------------------------------------
 # B3LYP/6-311++G(d,p) empiricaldispersion=gd3bj scf=xqc pop=npa geom=c
 heck
 ----------------------------------------------------------------------

 ---------------------------------------
 CID_130150012_JID_6564_Energie_neutraal
 ---------------------------------------
 Structure from the checkpoint file:  "JID_6564.chk"
 Charge =  0 Multiplicity = 1

 SCF Done:  E(RB3LYP) =  -683.737776771     A.U. after   16 cycles
 Normal termination of Gaussian 16 at Thu Dec 10 23:52:24 2020.

 ----------------------------------------------------------------------
 # B3LYP/6-311++G(d,p) empiricaldispersion=gd3bj scf=xqc pop=npa geom=c
 heck
 ----------------------------------------------------------------------

 -------------------------------------
 CID_130150012_JID_6564_Energie_kation
 -------------------------------------
 Structure from the checkpoint file:  "JID_6564.chk"
 Charge =  1 Multiplicity = 2

 SCF Done:  E(UB3LYP) =  -683.416785595     A.U. after   33 cycles
 SCF Done:  E(UB3LYP) =  -683.416786050     a.u. after    3 cycles
 Normal termination of Gaussian 16 at Fri Dec 11 00:22:49 2020.
 Gaussian 16:  ES64L-G16RevA.03 25-Dec-2016

 ----------------------------------------------------------------------
 # B3LYP/6-311++G(d,p) empiricaldispersion=gd3bj scf=xqc pop=npa geom=c
 heck
 ----------------------------------------------------------------------

 ------------------------------------
 CID_130150012_JID_6564_Energie_anion
 ------------------------------------
 Structure from the checkpoint file:  "JID_6564.chk"
 Charge = -1 Multiplicity = 2

                         Standard orientation:
 ---------------------------------------------------------------------
 Center     Atomic      Atomic             Coordinates (Angstroms)
 Number     Number       Type             X           Y           Z
 ---------------------------------------------------------------------
      1          6           0       -1.082083    2.868644   -0.153537
      2          6           0       -0.255198    1.613310   -0.002070
      3          6           0       -0.843677    0.384033    0.449931
      4          6           0       -0.015162   -0.699300    0.617747
      5          6           0        1.362870   -0.592848    0.320548
      6          6           0        2.281898   -1.661121    0.452001
      7          6           0        3.598878   -1.444306    0.126324
      8          6           0        3.979805   -0.155906   -0.327202
      9          7           0        3.158213    0.866208   -0.460898
     10          6           0        1.849968    0.666621   -0.142162
     11          7           0        1.028462    1.740887   -0.281066
     12          6           0       -2.338864    0.279046    0.692598
     13          6           0       -3.082511    0.065738   -0.673537
     14          6           0       -2.796828   -1.267142   -1.202309
     15          7           0       -2.542620   -2.347195   -1.543775
     16          7           0       -2.662623   -0.738378    1.687284
     17          1           0       -1.544275    3.162053    0.797516
     18          1           0       -0.429014    3.675707   -0.487926
     19          1           0       -1.892251    2.752496   -0.883693
     20          1           0       -0.399071   -1.644567    0.987260
     21          1           0        1.932904   -2.629620    0.801636
     22          1           0        4.341431   -2.231645    0.207884
     23          1           0        5.020889    0.028922   -0.590628
     24          1           0       -2.698891    1.233844    1.086728
     25          1           0       -4.164619    0.161288   -0.522092
     26          1           0       -2.787032    0.818250   -1.412132
     27          1           0       -3.636662   -0.647170    1.968241
     28          1           0       -2.568013   -1.670833    1.286390
 ---------------------------------------------------------------------

 SCF Done:  E(UB3LYP) =  -683.755591819     A.U. after   30 cycles

 The electronic state is 2-A.
 Alpha  occ. eigenvalues --  -14.21738 -14.20518 -14.14902 -14.14763 -10.11976
 Alpha  occ. eigenvalues --  -10.11784 -10.11744 -10.08738 -10.07525 -10.05739
 Alpha  occ. eigenvalues --  -10.05322 -10.04625 -10.04582 -10.03651 -10.03469
 Alpha  occ. eigenvalues --  -10.03323  -0.82341  -0.81834  -0.80134  -0.76716
 Alpha  occ. eigenvalues --   -0.69133  -0.68023  -0.64521  -0.63714  -0.58523
 Alpha  occ. eigenvalues --   -0.55390  -0.49092  -0.48803  -0.47199  -0.43166
 Alpha  occ. eigenvalues --   -0.40255  -0.39600  -0.37427  -0.37088  -0.35842
 Alpha  occ. eigenvalues --   -0.34830  -0.32578  -0.31569  -0.30488  -0.29253
 Alpha  occ. eigenvalues --   -0.28155  -0.27744  -0.27593  -0.26968  -0.26156
 Alpha  occ. eigenvalues --   -0.25174  -0.24014  -0.23525  -0.22040  -0.21000
 Alpha  occ. eigenvalues --   -0.18179  -0.15981  -0.12653  -0.11732  -0.11527
 Alpha  occ. eigenvalues --   -0.10510   0.03355
 Alpha virt. eigenvalues --    0.05426   0.08386   0.08691   0.09000   0.09881
 Alpha virt. eigenvalues --    0.10796   0.11085   0.11395   0.11941   0.12091
 Alpha virt. eigenvalues --    0.12731   0.12775   0.12942   0.13655   0.14530

  Beta  occ. eigenvalues --  -14.21736 -14.20508 -14.14637 -14.14491 -10.11981
  Beta  occ. eigenvalues --  -10.11762 -10.11731 -10.08785 -10.07415 -10.05587
  Beta  occ. eigenvalues --  -10.05330 -10.04721 -10.04545 -10.03650 -10.03134
  Beta  occ. eigenvalues --  -10.02974  -0.82160  -0.81627  -0.80099  -0.76260
  Beta  occ. eigenvalues --   -0.68937  -0.67677  -0.64313  -0.63309  -0.58383
  Beta  occ. eigenvalues --   -0.55154  -0.48738  -0.48572  -0.46835  -0.43067
  Beta  occ. eigenvalues --   -0.40060  -0.39504  -0.37251  -0.36996  -0.35703
  Beta  occ. eigenvalues --   -0.34735  -0.32413  -0.31412  -0.30362  -0.29133
  Beta  occ. eigenvalues --   -0.28037  -0.27542  -0.27037  -0.26893  -0.25997
  Beta  occ. eigenvalues --   -0.25031  -0.23975  -0.23486  -0.21886  -0.19819
  Beta  occ. eigenvalues --   -0.16787  -0.15919  -0.12282  -0.10825  -0.10269
  Beta  occ. eigenvalues --   -0.09966
  Beta virt. eigenvalues --    0.05893   0.08323   0.08733   0.08883   0.08976
  Beta virt. eigenvalues --    0.09945   0.10838   0.11194   0.11504   0.12013
  Beta virt. eigenvalues --    0.12052   0.12623   0.12947   0.13462   0.13888

 Mulliken charges and spin densities:
               1          2
     1  C   -0.409102  -0.129160
     2  C   -0.438602   0.131644
     3  C    0.920005  -0.222541
     4  C   -0.123110   0.182552
     5  C    0.895386  -0.052903
     6  C   -0.250646   0.230201
     7  C   -0.365119   0.029458
     8  C   -0.091389   0.123124
     9  N   -0.070747   0.120378
    10  C   -1.170838  -0.067996
    11  N    0.000172   0.129705
    12  C   -0.550797   0.435586
    13  C    0.173295  -0.482175
    14  C    0.044363  -0.108044
    15  N   -0.327569   0.001080
    16  N   -0.349556  -0.036273
    17  H    0.089533   0.049998
    18  H    0.171490  -0.009069
    19  H    0.088087   0.021071
    20  H    0.082721  -0.004453
    21  H    0.100538  -0.020770
    22  H    0.116701  -0.000022
    23  H    0.146212  -0.011241
    24  H    0.089824   0.142779
    25  H   -0.299262   0.484216
    26  H    0.165717  -0.028983
    27  H    0.140463   0.110452
    28  H    0.222229  -0.018616
 Sum of Mulliken charges =  -1.00000   1.00000

 Dipole moment (field-independent basis, Debye):
    X=             -4.1491    Y=             -0.4074    Z=              1.2522  Tot=              4.3531
 Quadrupole moment (field-independent basis, Debye-Ang):
   XX=           -138.8559   YY=           -120.2738   ZZ=           -112.2009
   XY=            -13.5926   XZ=              0.7211   YZ=             -5.0886

 Summary of Natural Population Analysis:

                                       Natural Population
                Natural  -----------------------------------------------
    Atom  No    Charge         Core      Valence    Rydberg      Total
 -----------------------------------------------------------------------
      C    1   -0.30093      0.99964     2.29640    0.00489     3.30093
      C    2    0.13012      0.99953     1.85543    0.01491     2.86988
      C    3   -0.05058      0.99945     2.04022    0.01091     3.05058
      C    4   -0.00330      0.99948     1.99559    0.00823     3.00330
      C    5   -0.07592      0.99948     2.06854    0.00790     3.07592
      C    6   -0.01457      0.99954     2.00659    0.00844     3.01457
      C    7   -0.13860      0.99957     2.13027    0.00876     3.13860
      C    8    0.05654      0.99962     1.92898    0.01485     2.94346
      N    9   -0.19968      0.99968     2.68910    0.01090     3.69968
      C   10    0.17988      0.99948     1.80283    0.01781     2.82012
      N   11   -0.21046      0.99964     2.69768    0.01313     3.71046
      C   12   -0.00990      0.99957     1.99704    0.01329     3.00990
      C   13   -0.25058      0.99953     2.24250    0.00855     3.25058
      C   14    0.15954      0.99966     1.82225    0.01854     2.84046
      N   15   -0.18715      0.99979     2.67674    0.01062     3.68715
      N   16   -0.41543      0.99977     2.90530    0.01037     3.91543
      H   17    0.09772      0.00000     0.40103    0.00125     0.40228
      H   18    0.11127      0.00000     0.38737    0.00136     0.38873
      H   19    0.09193      0.00000     0.40684    0.00123     0.40807
      H   20    0.09001      0.00000     0.40824    0.00175     0.40999
      H   21    0.08764      0.00000     0.41081    0.00155     0.41236
      H   22    0.09200      0.00000     0.40685    0.00116     0.40800
      H   23    0.07557      0.00000     0.42295    0.00148     0.42443
      H   24    0.09963      0.00000     0.39840    0.00196     0.40037
      H   25    0.11510      0.00000     0.38226    0.00263     0.38490
      H   26    0.12171      0.00000     0.37705    0.00125     0.37829
      H   27    0.17273      0.00000     0.32596    0.00131     0.32727
      H   28    0.17569      0.00000     0.32255    0.00176     0.32431
 =======================================================================
   * Total *   -0.00000     15.99343    39.80577    0.20080    56.00000

 Normal termination of Gaussian 16 at Fri Dec 11 00:31:41 2020.
