 Gaussian 16, Revision A.03,

 -----------------------------------------------------------
 # opt freq B3LYP/6-31G(d) empiricaldispersion=gd3bj scf=xqc
 -----------------------------------------------------------

 -------------------------------
 CID_114218047_JID_7028_neutraal
 -------------------------------
 Symbolic Z-matrix:
 Charge =  0 Multiplicity = 1

 SCF Done:  E(RB3LYP) =  -794.414299778     A.U. after   15 cycles
 SCF Done:  E(RB3LYP) =  -794.418527053     A.U. after   13 cycles
 SCF Done:  E(RB3LYP) =  -794.412026071     A.U. after   15 cycles
 SCF Done:  E(RB3LYP) =  -794.418771180     A.U. after   13 cycles
 SCF Done:  E(RB3LYP) =  -794.420190283     A.U. after   15 cycles
 SCF Done:  E(RB3LYP) =  -794.420982394     A.U. after   12 cycles
 SCF Done:  E(RB3LYP) =  -794.421195506     A.U. after   11 cycles
 SCF Done:  E(RB3LYP) =  -794.421366409     A.U. after   13 cycles
 SCF Done:  E(RB3LYP) =  -794.421608864     A.U. after   13 cycles
 SCF Done:  E(RB3LYP) =  -794.421688092     A.U. after   12 cycles
 SCF Done:  E(RB3LYP) =  -794.422342730     A.U. after   10 cycles
 SCF Done:  E(RB3LYP) =  -794.422346173     A.U. after   10 cycles
 SCF Done:  E(RB3LYP) =  -794.422350553     A.U. after    9 cycles
 SCF Done:  E(RB3LYP) =  -794.422352437     A.U. after    9 cycles
 SCF Done:  E(RB3LYP) =  -794.422353745     A.U. after    8 cycles
 SCF Done:  E(RB3LYP) =  -794.422353988     A.U. after    8 cycles
 Optimization completed.
    -- Stationary point found.
 Normal termination of Gaussian 16 at Sun Dec 13 20:17:58 2020.

 --------------------------------------------------------------------
 #N Geom=AllCheck Guess=TCheck SCRF=Check GenChk RB3LYP/6-31G(d) Freq
 --------------------------------------------------------------------

 Structure from the checkpoint file:  "JID_7028.chk"
 -------------------------------
 CID_114218047_JID_7028_neutraal
 -------------------------------
 Charge =  0 Multiplicity = 1

 SCF Done:  E(RB3LYP) =  -794.422353988     A.U. after    1 cycles

  Exact polarizability: 153.989  -6.291 144.486  15.759   7.375 110.176
 Approx polarizability: 217.391 -20.011 227.474  28.912  22.659 176.488

                      1                      2                      3
                      A                      A                      A
 Frequencies --     30.7519                34.7105                45.7475
 Red. masses --      5.1588                 4.0266                 4.1730
 Frc consts  --      0.0029                 0.0029                 0.0051
 IR Inten    --      0.8321                 1.5660                 0.3656

                      4                      5                      6
                      A                      A                      A
 Frequencies --     65.8167                85.5240               102.4698
 Red. masses --      4.6182                 4.5267                 3.7401
 Frc consts  --      0.0118                 0.0195                 0.0231
 IR Inten    --      0.2202                 2.3286                 2.4591

                      7                      8                      9
                      A                      A                      A
 Frequencies --    112.4487               136.5831               163.4447
 Red. masses --      3.1993                 1.2736                 3.6740
 Frc consts  --      0.0238                 0.0140                 0.0578
 IR Inten    --      0.9189                 0.6229                 0.4741

                     10                     11                     12
                      A                      A                      A
 Frequencies --    204.0499               221.2757               231.5681
 Red. masses --      2.6740                 1.9572                 1.1816
 Frc consts  --      0.0656                 0.0565                 0.0373
 IR Inten    --      6.5289                12.5055                 2.2677

                     13                     14                     15
                      A                      A                      A
 Frequencies --    266.4956               290.5943               313.6607
 Red. masses --      3.2526                 1.6859                 2.7108
 Frc consts  --      0.1361                 0.0839                 0.1571
 IR Inten    --      1.5641                49.2138                 6.9568

                     16                     17                     18
                      A                      A                      A
 Frequencies --    329.4074               355.2736               382.6400
 Red. masses --      2.7888                 2.7729                 3.1722
 Frc consts  --      0.1783                 0.2062                 0.2736
 IR Inten    --     18.0290                 6.2780                13.3835

                     19                     20                     21
                      A                      A                      A
 Frequencies --    400.7044               429.2890               473.4243
 Red. masses --      3.0675                 3.5624                 3.5868
 Frc consts  --      0.2902                 0.3868                 0.4737
 IR Inten    --      1.1396                 4.3965                 0.4570

                     22                     23                     24
                      A                      A                      A
 Frequencies --    499.7355               634.9218               636.8265
 Red. masses --      3.1525                 3.9021                 3.9152
 Frc consts  --      0.4639                 0.9268                 0.9355
 IR Inten    --      4.0152                 0.9289                 0.4468

                     25                     26                     27
                      A                      A                      A
 Frequencies --    665.3600               673.7698               700.4412
 Red. masses --      4.6243                 6.4010                 3.8088
 Frc consts  --      1.2062                 1.7121                 1.1010
 IR Inten    --      3.8617                 0.2472                11.0077

                     28                     29                     30
                      A                      A                      A
 Frequencies --    727.6435               767.1565               786.0748
 Red. masses --      1.3949                 5.0491                 5.1612
 Frc consts  --      0.4351                 1.7508                 1.8790
 IR Inten    --     20.3049                19.5703                42.6262

                     31                     32                     33
                      A                      A                      A
 Frequencies --    822.4158               846.5930               859.2429
 Red. masses --      4.4990                 1.3235                 3.9246
 Frc consts  --      1.7929                 0.5589                 1.7072
 IR Inten    --      4.3785                 5.1096                33.1630

                     34                     35                     36
                      A                      A                      A
 Frequencies --    881.9411               896.2459               939.6525
 Red. masses --      1.8734                 3.2803                 5.4369
 Frc consts  --      0.8586                 1.5524                 2.8283
 IR Inten    --     68.9283                35.2537                 1.7066

                     37                     38                     39
                      A                      A                      A
 Frequencies --    974.7883              1005.8783              1019.6904
 Red. masses --      2.0849                 2.0019                 2.9751
 Frc consts  --      1.1672                 1.1934                 1.8226
 IR Inten    --     16.6267                12.0502                18.3430

                     40                     41                     42
                      A                      A                      A
 Frequencies --   1025.0695              1053.4622              1061.7356
 Red. masses --      5.2889                 3.2737                 1.8434
 Frc consts  --      3.2743                 2.1405                 1.2243
 IR Inten    --     13.6196                 2.9604                 3.1668

                     43                     44                     45
                      A                      A                      A
 Frequencies --   1078.2838              1084.7657              1112.6430
 Red. masses --      1.9850                 2.8848                 1.2365
 Frc consts  --      1.3598                 2.0000                 0.9019
 IR Inten    --     32.3354                 8.4008                 4.9194

                     46                     47                     48
                      A                      A                      A
 Frequencies --   1153.5568              1160.3720              1177.8583
 Red. masses --      1.5445                 1.3003                 1.4039
 Frc consts  --      1.2109                 1.0316                 1.1475
 IR Inten    --     28.3236                 0.1700                12.4439

                     49                     50                     51
                      A                      A                      A
 Frequencies --   1181.6702              1188.5305              1222.3900
 Red. masses --      1.6592                 1.9729                 3.1838
 Frc consts  --      1.3650                 1.6420                 2.8030
 IR Inten    --      9.7277                 4.2944                 4.1158

                     52                     53                     54
                      A                      A                      A
 Frequencies --   1260.7379              1304.8289              1312.7050
 Red. masses --      1.6609                 1.7286                 2.1119
 Frc consts  --      1.5554                 1.7340                 2.1441
 IR Inten    --      8.1794                17.2121                 1.7910

                     55                     56                     57
                      A                      A                      A
 Frequencies --   1314.5476              1320.8578              1349.0002
 Red. masses --      3.1267                 1.6588                 1.7866
 Frc consts  --      3.1834                 1.7051                 1.9155
 IR Inten    --     34.6280                 5.6386                25.0821

                     58                     59                     60
                      A                      A                      A
 Frequencies --   1382.8129              1387.7021              1402.0155
 Red. masses --      1.8188                 1.8288                 3.3302
 Frc consts  --      2.0491                 2.0749                 3.8568
 IR Inten    --     18.0268                70.1387                 2.3087

                     61                     62                     63
                      A                      A                      A
 Frequencies --   1419.2818              1458.2349              1464.9172
 Red. masses --      1.7648                 1.7107                 1.4604
 Frc consts  --      2.0945                 2.1433                 1.8465
 IR Inten    --     33.9701                 4.3973                16.9599

                     64                     65                     66
                      A                      A                      A
 Frequencies --   1480.7604              1494.3830              1499.7600
 Red. masses --      1.1937                 1.9134                 1.2538
 Frc consts  --      1.5421                 2.5176                 1.6615
 IR Inten    --      2.0816                 8.2708                13.0296

                     67                     68                     69
                      A                      A                      A
 Frequencies --   1511.9655              1523.1248              1526.6582
 Red. masses --      1.1035                 1.1327                 1.9496
 Frc consts  --      1.4863                 1.5483                 2.6772
 IR Inten    --      8.5199                 9.6095                29.0201

                     70                     71                     72
                      A                      A                      A
 Frequencies --   1530.4329              1531.5149              1543.4054
 Red. masses --      1.1222                 1.2290                 3.2893
 Frc consts  --      1.5487                 1.6984                 4.6165
 IR Inten    --      5.1702                 4.6810                 8.8267

                     73                     74                     75
                      A                      A                      A
 Frequencies --   1545.0883              1550.3012              1576.9846
 Red. masses --      1.4341                 1.0969                 3.5827
 Frc consts  --      2.0172                 1.5532                 5.2494
 IR Inten    --      3.7537                 9.8384                 6.4870

                     76                     77                     78
                      A                      A                      A
 Frequencies --   1631.3325              1690.3150              2980.5253
 Red. masses --      7.2231                 1.1257                 1.0728
 Frc consts  --     11.3255                 1.8950                 5.6150
 IR Inten    --     72.2265                39.6495                50.8658

                     79                     80                     81
                      A                      A                      A
 Frequencies --   2984.2491              3000.6654              3064.3463
 Red. masses --      1.0699                 1.0488                 1.0844
 Frc consts  --      5.6139                 5.5641                 5.9992
 IR Inten    --     45.5748                68.4327                30.5241

                     82                     83                     84
                      A                      A                      A
 Frequencies --   3067.0996              3074.4882              3074.9104
 Red. masses --      1.0683                 1.0831                 1.0416
 Frc consts  --      5.9208                 6.0323                 5.8027
 IR Inten    --     11.8011                64.8929                19.5457

                     85                     86                     87
                      A                      A                      A
 Frequencies --   3114.9747              3117.0302              3120.6731
 Red. masses --      1.1018                 1.0894                 1.1007
 Frc consts  --      6.2990                 6.2362                 6.3155
 IR Inten    --     29.6484                10.4070                 8.6176

                     88                     89                     90
                      A                      A                      A
 Frequencies --   3137.9303              3196.0145              3255.5947
 Red. masses --      1.1037                 1.0990                 1.0916
 Frc consts  --      6.4030                 6.6139                 6.8167
 IR Inten    --     14.7650                 3.7127                10.3263

                     91                     92                     93
                      A                      A                      A
 Frequencies --   3285.0470              3475.9898              3565.1915
 Red. masses --      1.1037                 1.0496                 1.0933
 Frc consts  --      7.0176                 7.4717                 8.1872
 IR Inten    --      5.5724                 1.0730                 1.0213

 - Thermochemistry -
 -------------------
 Temperature   298.150 Kelvin.  Pressure   1.00000 Atm.
 Atom     1 has atomic number  6 and mass  12.00000

 Molecular mass:   236.13856 amu.
 Principal axes and moments of inertia in atomic units:
                           1         2         3
     Eigenvalues --  2594.809094822.415315778.04227
           X            0.99981  -0.00254   0.01942
           Y            0.00255   1.00000  -0.00050
           Z           -0.01942   0.00055   0.99981
 This molecule is an asymmetric top.
 Rotational symmetry number  1.
 Warning -- assumption of classical behavior for rotation
           may cause significant error
 Rotational temperatures (Kelvin)      0.03338     0.01796     0.01499
 Rotational constants (GHZ):           0.69552     0.37424     0.31234
 Zero-point vibrational energy     723997.9 (Joules/Mol)
                                  173.03965 (Kcal/Mol)
 Warning -- explicit consideration of  22 degrees of freedom as
           vibrations may cause significant error
 Vibrational temperatures:     44.25    49.94    65.82    94.70   123.05
          (Kelvin)            147.43   161.79   196.51   235.16   293.58
                              318.37   333.17   383.43   418.10   451.29
                              473.94   511.16   550.53   576.52   617.65
                              681.15   719.01   913.51   916.25   957.30
                              969.40  1007.78  1046.92  1103.77  1130.99
                             1183.27  1218.06  1236.26  1268.92  1289.50
                             1351.95  1402.50  1447.23  1467.11  1474.85
                             1515.70  1527.60  1551.41  1560.74  1600.85
                             1659.71  1669.52  1694.68  1700.16  1710.03
                             1758.75  1813.92  1877.36  1888.69  1891.34
                             1900.42  1940.91  1989.56  1996.59  2017.19
                             2042.03  2098.07  2107.69  2130.48  2150.08
                             2157.82  2175.38  2191.44  2196.52  2201.95
                             2203.51  2220.62  2223.04  2230.54  2268.93
                             2347.12  2431.99  4288.31  4293.67  4317.29
                             4408.91  4412.87  4423.50  4424.11  4481.75
                             4484.71  4489.95  4514.78  4598.35  4684.07
                             4726.45  5001.17  5129.52

 Zero-point correction=                           0.275756 (Hartree/Particle)
 Thermal correction to Energy=                    0.292323
 Thermal correction to Enthalpy=                  0.293267
 Thermal correction to Gibbs Free Energy=         0.230039
 Sum of electronic and zero-point Energies=           -794.146598
 Sum of electronic and thermal Energies=              -794.130031
 Sum of electronic and thermal Enthalpies=            -794.129087
 Sum of electronic and thermal Free Energies=         -794.192315

                     E (Thermal)             CV                S
                      KCal/Mol        Cal/Mol-Kelvin    Cal/Mol-Kelvin
 Total                  183.435             60.724            133.074
 Electronic               0.000              0.000              0.000
 Translational            0.889              2.981             42.279
 Rotational               0.889              2.981             32.647
 Vibrational            181.658             54.762             58.148
 Vibration     1          0.594              1.984              5.780
 Vibration     2          0.594              1.983              5.540
 Vibration     3          0.595              1.979              4.993
 Vibration     4          0.597              1.971              4.275
 Vibration     5          0.601              1.959              3.760
 Vibration     6          0.605              1.947              3.407
 Vibration     7          0.607              1.939              3.226
 Vibration     8          0.614              1.917              2.851
 Vibration     9          0.623              1.887              2.510
 Vibration    10          0.640              1.834              2.096
 Vibration    11          0.648              1.809              1.949
 Vibration    12          0.653              1.793              1.867
 Vibration    13          0.672              1.735              1.619
 Vibration    14          0.687              1.691              1.470
 Vibration    15          0.702              1.648              1.343
 Vibration    16          0.712              1.617              1.263
 Vibration    17          0.731              1.564              1.143
 Vibration    18          0.752              1.507              1.029
 Vibration    19          0.767              1.469              0.960
 Vibration    20          0.791              1.406              0.861
 Vibration    21          0.830              1.309              0.728
 Vibration    22          0.855              1.251              0.659

                           ! Non-Optimized Parameters !
 Normal termination of Gaussian 16 at Sun Dec 13 20:31:13 2020.

 ----------------------------------------------------------------------
 # B3LYP/6-311++G(d,p) empiricaldispersion=gd3bj scf=xqc pop=npa geom=c
 heck
 ----------------------------------------------------------------------

 ---------------------------------------
 CID_114218047_JID_7028_Energie_neutraal
 ---------------------------------------
 Structure from the checkpoint file:  "JID_7028.chk"
 Charge =  0 Multiplicity = 1

 SCF Done:  E(RB3LYP) =  -794.643924021     A.U. after   16 cycles
 Normal termination of Gaussian 16 at Sun Dec 13 20:37:41 2020.

 ----------------------------------------------------------------------
 # B3LYP/6-311++G(d,p) empiricaldispersion=gd3bj scf=xqc pop=npa geom=c
 heck
 ----------------------------------------------------------------------

 -------------------------------------
 CID_114218047_JID_7028_Energie_kation
 -------------------------------------
 Structure from the checkpoint file:  "JID_7028.chk"
 Charge =  1 Multiplicity = 2

 SCF Done:  E(UB3LYP) =  -794.359472311     A.U. after   25 cycles
 Normal termination of Gaussian 16 at Sun Dec 13 20:51:28 2020.
 Gaussian 16:  ES64L-G16RevA.03 25-Dec-2016

 ----------------------------------------------------------------------
 # B3LYP/6-311++G(d,p) empiricaldispersion=gd3bj scf=xqc pop=npa geom=c
 heck
 ----------------------------------------------------------------------

 ------------------------------------
 CID_114218047_JID_7028_Energie_anion
 ------------------------------------
 Structure from the checkpoint file:  "JID_7028.chk"
 Charge = -1 Multiplicity = 2

                         Standard orientation:
 ---------------------------------------------------------------------
 Center     Atomic      Atomic             Coordinates (Angstroms)
 Number     Number       Type             X           Y           Z
 ---------------------------------------------------------------------
      1          6           0       -0.321178   -1.922209    0.906403
      2          7           0       -1.594818   -1.347891    0.497633
      3          6           0       -2.607687   -2.079037   -0.089797
      4          6           0       -3.618903   -1.185884   -0.340678
      5          7           0       -3.260461    0.072589    0.076159
      6          6           0       -2.040978   -0.045692    0.575947
      7          6           0       -1.242199    1.099503    1.117189
      8          7           0       -0.938509    2.113609    0.103753
      9          6           0       -0.153304    3.205787    0.659737
     10          6           0       -0.478499    1.606618   -1.177652
     11          6           0        0.697999    0.660219   -1.125274
     12          7           0        0.781596   -0.392795   -1.901606
     13          8           0        1.985517   -1.014644   -1.480051
     14          6           0        2.471531   -0.261125   -0.486000
     15          7           0        1.742410    0.784579   -0.224563
     16          6           0        3.692891   -0.708754    0.249851
     17          7           0        3.352545   -0.814733    1.673803
     18          1           0       -0.485329   -2.715357    1.642362
     19          1           0        0.196569   -2.337063    0.037740
     20          1           0        0.317060   -1.162967    1.354735
     21          1           0       -2.505492   -3.139918   -0.263619
     22          1           0       -4.582836   -1.377287   -0.792645
     23          1           0       -1.831254    1.597794    1.896420
     24          1           0       -0.326599    0.726039    1.605380
     25          1           0        0.837730    2.898954    1.031442
     26          1           0       -0.012332    3.977466   -0.104359
     27          1           0       -0.711814    3.653802    1.490218
     28          1           0       -1.300297    1.085440   -1.677040
     29          1           0       -0.214157    2.469300   -1.800047
     30          1           0        3.986429   -1.692835   -0.125945
     31          1           0        4.513122   -0.007151    0.020138
     32          1           0        4.180026   -1.089617    2.199883
     33          1           0        3.077657    0.106480    2.011138
 ---------------------------------------------------------------------

 SCF Done:  E(UB3LYP) =  -794.641569304     A.U. after   31 cycles

 The electronic state is 2-A.
 Alpha  occ. eigenvalues --  -19.09306 -14.27927 -14.24203 -14.21369 -14.19797
 Alpha  occ. eigenvalues --  -14.19737 -14.18176 -10.14535 -10.13387 -10.12260
 Alpha  occ. eigenvalues --  -10.11216 -10.11134 -10.10856 -10.10437 -10.09758
 Alpha  occ. eigenvalues --  -10.09286 -10.09225  -1.04216  -0.92540  -0.84048
 Alpha  occ. eigenvalues --   -0.81489  -0.79194  -0.78296  -0.74562  -0.67857
 Alpha  occ. eigenvalues --   -0.63509  -0.62768  -0.59971  -0.59059  -0.53305
 Alpha  occ. eigenvalues --   -0.50885  -0.49191  -0.48285  -0.45707  -0.43163
 Alpha  occ. eigenvalues --   -0.40926  -0.39577  -0.38740  -0.37516  -0.36960
 Alpha  occ. eigenvalues --   -0.36677  -0.35067  -0.33960  -0.33738  -0.33410
 Alpha  occ. eigenvalues --   -0.31160  -0.30575  -0.30481  -0.30196  -0.29498
 Alpha  occ. eigenvalues --   -0.28902  -0.27933  -0.27753  -0.26849  -0.22766
 Alpha  occ. eigenvalues --   -0.21362  -0.18487  -0.18073  -0.18028  -0.17432
 Alpha  occ. eigenvalues --   -0.13824  -0.13768  -0.12067   0.04415
 Alpha virt. eigenvalues --    0.06890   0.07355   0.08042   0.08345   0.09035
 Alpha virt. eigenvalues --    0.09449   0.10035   0.10069   0.10510   0.11312
 Alpha virt. eigenvalues --    0.11649   0.12208   0.12885   0.13535   0.13868

  Beta  occ. eigenvalues --  -19.09112 -14.27926 -14.24027 -14.21362 -14.19794
  Beta  occ. eigenvalues --  -14.19737 -14.18072 -10.14291 -10.13386 -10.12238
  Beta  occ. eigenvalues --  -10.11202 -10.11134 -10.10858 -10.10434 -10.09752
  Beta  occ. eigenvalues --  -10.09286 -10.09221  -1.03900  -0.92537  -0.83997
  Beta  occ. eigenvalues --   -0.81355  -0.79187  -0.78067  -0.74305  -0.67851
  Beta  occ. eigenvalues --   -0.63468  -0.62749  -0.59963  -0.58778  -0.53242
  Beta  occ. eigenvalues --   -0.50874  -0.49099  -0.48089  -0.45683  -0.43133
  Beta  occ. eigenvalues --   -0.40770  -0.39482  -0.38453  -0.37262  -0.36918
  Beta  occ. eigenvalues --   -0.36621  -0.34968  -0.33947  -0.33515  -0.33264
  Beta  occ. eigenvalues --   -0.31091  -0.30522  -0.30444  -0.30070  -0.29413
  Beta  occ. eigenvalues --   -0.28862  -0.27902  -0.27699  -0.26765  -0.22549
  Beta  occ. eigenvalues --   -0.20812  -0.18363  -0.18050  -0.17943  -0.16574
  Beta  occ. eigenvalues --   -0.13800  -0.13667  -0.12022
  Beta virt. eigenvalues --    0.06778   0.07328   0.08075   0.08685   0.08926
  Beta virt. eigenvalues --    0.09230   0.09649   0.10320   0.10707   0.10900
  Beta virt. eigenvalues --    0.11543   0.11859   0.12260   0.13153   0.13560

 Mulliken charges and spin densities:
               1          2
     1  C   -0.274811  -0.097699
     2  N    0.176233   0.021427
     3  C   -0.007045  -0.060721
     4  C   -0.051861   0.097578
     5  N   -0.105809   0.008506
     6  C   -0.556761   0.221653
     7  C   -0.253037  -0.406300
     8  N    0.282928   0.010954
     9  C   -0.138924  -0.202912
    10  C   -1.191607   0.087611
    11  C    0.776682  -0.301298
    12  N   -0.279165   0.101946
    13  O    0.156867   0.051373
    14  C    0.032015   0.231735
    15  N   -0.100193   0.096124
    16  C    0.761770  -1.449686
    17  N   -0.358689  -0.003930
    18  H   -0.124229   0.311155
    19  H    0.233209  -0.020375
    20  H    0.161517  -0.112275
    21  H    0.056802   0.085097
    22  H    0.128113   0.020248
    23  H    0.125019   0.031163
    24  H    0.140243   0.040698
    25  H    0.034302   0.140109
    26  H    0.116310   0.004615
    27  H    0.104042   0.016598
    28  H    0.205186   0.001796
    29  H    0.154188   0.023850
    30  H   -0.085743   0.254879
    31  H   -0.570727   0.751424
    32  H   -0.597330   0.879139
    33  H    0.050504   0.165519
 Sum of Mulliken charges =  -1.00000   1.00000

 Dipole moment (field-independent basis, Debye):
    X=             -8.7930    Y=              1.0373    Z=             -3.0880  Tot=              9.3770
 Quadrupole moment (field-independent basis, Debye-Ang):
   XX=           -192.1636   YY=           -123.0472   ZZ=           -135.5404
   XY=             11.2596   XZ=            -19.9139   YZ=              3.1924

 Summary of Natural Population Analysis:

                                       Natural Population
                Natural  -----------------------------------------------
    Atom  No    Charge         Core      Valence    Rydberg      Total
 -----------------------------------------------------------------------
      C    1   -0.18129      0.99963     2.17341    0.00825     3.18129
      N    2   -0.19997      0.99961     2.69119    0.00917     3.69997
      C    3   -0.03645      0.99956     2.02685    0.01004     3.03645
      C    4   -0.03666      0.99959     2.02288    0.01419     3.03666
      N    5   -0.25826      0.99970     2.74863    0.00993     3.75826
      C    6    0.18736      0.99960     1.79430    0.01875     2.81264
      C    7   -0.10800      0.99957     2.09629    0.01214     3.10800
      N    8   -0.26812      0.99973     2.75675    0.01163     3.76812
      C    9   -0.17830      0.99965     2.17054    0.00811     3.17830
      C   10   -0.10469      0.99956     2.09426    0.01087     3.10469
      C   11    0.16002      0.99965     1.82133    0.01900     2.83998
      N   12   -0.07869      0.99966     2.56975    0.00928     3.57869
      O   13   -0.15982      0.99985     3.15100    0.00896     4.15982
      C   14    0.32536      0.99963     1.65344    0.02158     2.67464
      N   15   -0.29229      0.99966     2.78311    0.00952     3.79229
      C   16   -0.11822      0.99959     2.10599    0.01265     3.11822
      N   17   -0.41893      0.99977     2.90749    0.01167     3.91893
      H   18    0.09661      0.00000     0.40245    0.00094     0.40339
      H   19    0.10770      0.00000     0.39121    0.00109     0.39230
      H   20    0.11432      0.00000     0.38403    0.00165     0.38568
      H   21    0.10106      0.00000     0.39803    0.00091     0.39894
      H   22    0.09387      0.00000     0.40525    0.00088     0.40613
      H   23    0.10400      0.00000     0.39476    0.00124     0.39600
      H   24    0.09540      0.00000     0.40300    0.00160     0.40460
      H   25    0.09588      0.00000     0.40274    0.00138     0.40412
      H   26    0.09203      0.00000     0.40725    0.00072     0.40797
      H   27    0.08911      0.00000     0.41004    0.00085     0.41089
      H   28    0.11231      0.00000     0.38650    0.00119     0.38769
      H   29    0.10288      0.00000     0.39617    0.00095     0.39712
      H   30    0.10015      0.00000     0.39824    0.00161     0.39985
      H   31    0.09815      0.00000     0.39786    0.00399     0.40185
      H   32    0.18565      0.00000     0.29557    0.01879     0.31435
      H   33    0.17799      0.00000     0.31857    0.00343     0.32201
 =======================================================================
   * Total *    0.00014     16.99400    45.75887    0.24698    62.99986

 Normal termination of Gaussian 16 at Sun Dec 13 21:07:56 2020.
