 Gaussian 16, Revision A.03,

 -----------------------------------------------------------
 # opt freq B3LYP/6-31G(d) empiricaldispersion=gd3bj scf=xqc
 -----------------------------------------------------------

 -------------------------------
 CID_149018737_JID_7751_neutraal
 -------------------------------
 Symbolic Z-matrix:
 Charge =  0 Multiplicity = 1

 SCF Done:  E(RB3LYP) =  -1117.64815751     A.U. after   15 cycles
 SCF Done:  E(RB3LYP) =  -1117.65724061     A.U. after   13 cycles
 SCF Done:  E(RB3LYP) =  -1117.66034944     A.U. after   13 cycles
 SCF Done:  E(RB3LYP) =  -1117.66224604     A.U. after   15 cycles
 SCF Done:  E(RB3LYP) =  -1117.66282027     A.U. after   13 cycles
 SCF Done:  E(RB3LYP) =  -1117.66297608     A.U. after   12 cycles
 SCF Done:  E(RB3LYP) =  -1117.66300823     A.U. after   10 cycles
 SCF Done:  E(RB3LYP) =  -1117.66301332     A.U. after    9 cycles
 SCF Done:  E(RB3LYP) =  -1117.66301498     A.U. after    9 cycles
 SCF Done:  E(RB3LYP) =  -1117.66301519     A.U. after    7 cycles
 SCF Done:  E(RB3LYP) =  -1117.66301525     A.U. after    7 cycles
 Optimization completed.
    -- Stationary point found.
 Normal termination of Gaussian 16 at Fri Dec 11 13:06:27 2020.

 --------------------------------------------------------------------
 #N Geom=AllCheck Guess=TCheck SCRF=Check GenChk RB3LYP/6-31G(d) Freq
 --------------------------------------------------------------------

 Structure from the checkpoint file:  "JID_7751.chk"
 -------------------------------
 CID_149018737_JID_7751_neutraal
 -------------------------------
 Charge =  0 Multiplicity = 1

 SCF Done:  E(RB3LYP) =  -1117.66301525     A.U. after    1 cycles

  Exact polarizability: 274.318   6.113 179.180  -0.002   0.006  68.531
 Approx polarizability: 459.003  12.939 304.066  -0.005   0.008 109.007

                      1                      2                      3
                      A                      A                      A
 Frequencies --     39.9295                41.0143                65.9065
 Red. masses --      1.4912                 2.5510                 4.0092
 Frc consts  --      0.0014                 0.0025                 0.0103
 IR Inten    --      0.3914                 0.0374                 0.8563

                      4                      5                      6
                      A                      A                      A
 Frequencies --     81.1331               111.8289               142.5433
 Red. masses --      3.5488                 5.4341                 3.4922
 Frc consts  --      0.0138                 0.0400                 0.0418
 IR Inten    --      7.3006                 0.3870                 0.2853

                      7                      8                      9
                      A                      A                      A
 Frequencies --    178.0063               183.9181               200.1291
 Red. masses --      1.4696                 3.5974                 5.3170
 Frc consts  --      0.0274                 0.0717                 0.1255
 IR Inten    --      0.0451                 4.6484                 0.0009

                     10                     11                     12
                      A                      A                      A
 Frequencies --    225.3037               228.0730               301.1169
 Red. masses --      2.3369                 3.9632                 5.9930
 Frc consts  --      0.0699                 0.1215                 0.3202
 IR Inten    --      0.8872                 2.1575                 3.3077

                     13                     14                     15
                      A                      A                      A
 Frequencies --    334.4588               349.7966               407.7532
 Red. masses --      6.0935                 8.4019                 8.1310
 Frc consts  --      0.4016                 0.6057                 0.7965
 IR Inten    --      1.3783                 0.3829                 0.0518

                     16                     17                     18
                      A                      A                      A
 Frequencies --    467.4741               468.8612               515.1402
 Red. masses --      4.8011                 8.4693                 7.1450
 Frc consts  --      0.6182                 1.0969                 1.1171
 IR Inten    --      3.0735                 3.3100                 7.5816

                     19                     20                     21
                      A                      A                      A
 Frequencies --    533.2307               587.9005               607.2076
 Red. masses --      6.0175                 3.5620                 7.2980
 Frc consts  --      1.0081                 0.7254                 1.5854
 IR Inten    --     14.5071                 6.0902                11.5403

                     22                     23                     24
                      A                      A                      A
 Frequencies --    625.9109               632.7777               709.8771
 Red. masses --      7.8274                 4.2123                 9.7327
 Frc consts  --      1.8067                 0.9937                 2.8897
 IR Inten    --      0.0292                10.3403                 1.2833

                     25                     26                     27
                      A                      A                      A
 Frequencies --    710.9535               714.5624               737.0593
 Red. masses --      1.1870                 6.5088                 9.3109
 Frc consts  --      0.3535                 1.9581                 2.9802
 IR Inten    --     56.0933                 6.1910                 2.2031

                     28                     29                     30
                      A                      A                      A
 Frequencies --    752.9538               785.1713               821.8557
 Red. masses --      6.7522                 8.4225                 9.4625
 Frc consts  --      2.2555                 3.0593                 3.7657
 IR Inten    --      4.1030                 0.0958                 3.7467

                     31                     32                     33
                      A                      A                      A
 Frequencies --    845.5330               847.9364               847.9682
 Red. masses --      1.3408                 1.4703                 5.9571
 Frc consts  --      0.5648                 0.6229                 2.5237
 IR Inten    --      1.8109                11.5294                32.9824

                     34                     35                     36
                      A                      A                      A
 Frequencies --    872.8938               916.7288               983.4062
 Red. masses --      4.8265                 1.3332                 6.5295
 Frc consts  --      2.1667                 0.6601                 3.7205
 IR Inten    --     13.1655                 0.4707                 6.3148

                     37                     38                     39
                      A                      A                      A
 Frequencies --   1050.8370              1069.7127              1092.3983
 Red. masses --      6.1833                 1.8292                 1.7688
 Frc consts  --      4.0229                 1.2333                 1.2437
 IR Inten    --     77.1319                14.0113                30.9339

                     40                     41                     42
                      A                      A                      A
 Frequencies --   1119.1886              1141.1094              1163.5836
 Red. masses --      1.1778                 4.0359                 1.2970
 Frc consts  --      0.8692                 3.0963                 1.0346
 IR Inten    --     11.2030                11.4392                 0.0722

                     43                     44                     45
                      A                      A                      A
 Frequencies --   1184.9883              1221.8500              1233.0662
 Red. masses --      1.2662                 1.5497                 2.3979
 Frc consts  --      1.0476                 1.3632                 2.1481
 IR Inten    --      0.8759                26.9095                72.9836

                     46                     47                     48
                      A                      A                      A
 Frequencies --   1264.8341              1285.4376              1316.0621
 Red. masses --      1.4959                 5.4832                 3.1901
 Frc consts  --      1.4100                 5.3381                 3.2554
 IR Inten    --     10.7836               102.6833                15.9626

                     49                     50                     51
                      A                      A                      A
 Frequencies --   1323.5209              1370.5530              1393.4738
 Red. masses --      4.8656                 6.2053                 3.5046
 Frc consts  --      5.0217                 6.8676                 4.0094
 IR Inten    --    109.6915               170.2088                98.6443

                     52                     53                     54
                      A                      A                      A
 Frequencies --   1407.5108              1445.4598              1472.5982
 Red. masses --      3.2588                 4.9484                 2.4598
 Frc consts  --      3.8038                 6.0915                 3.1428
 IR Inten    --    108.1219                60.7152                 0.1628

                     55                     56                     57
                      A                      A                      A
 Frequencies --   1480.5503              1499.1810              1505.2828
 Red. masses --      1.7135                 3.2964                 1.0400
 Frc consts  --      2.2130                 4.3651                 1.3884
 IR Inten    --     21.1077                54.4134                 8.1913

                     58                     59                     60
                      A                      A                      A
 Frequencies --   1507.9597              1519.1157              1526.0519
 Red. masses --      1.0483                 2.0838                 1.1281
 Frc consts  --      1.4044                 2.8332                 1.5478
 IR Inten    --      5.5232                43.4245                 8.3261

                     61                     62                     63
                      A                      A                      A
 Frequencies --   1543.1291              1548.6786              1590.3010
 Red. masses --      1.1709                 2.9716                 5.9884
 Frc consts  --      1.6428                 4.1992                 8.9231
 IR Inten    --     17.0292               166.4846                 8.5381

                     64                     65                     66
                      A                      A                      A
 Frequencies --   1598.8181              1647.5447              3070.0373
 Red. masses --      9.5286                 9.1820                 1.0292
 Frc consts  --     14.3509                14.6846                 5.7154
 IR Inten    --      9.3261                 4.1037                64.8306

                     67                     68                     69
                      A                      A                      A
 Frequencies --   3070.8802              3137.8662              3143.3402
 Red. masses --      1.0318                 1.1063                 1.1072
 Frc consts  --      5.7329                 6.4177                 6.4457
 IR Inten    --     22.9493                11.8251                21.5735

                     70                     71                     72
                      A                      A                      A
 Frequencies --   3162.9489              3174.4312              3222.1855
 Red. masses --      1.1052                 1.1072                 1.0903
 Frc consts  --      6.5143                 6.5736                 6.6693
 IR Inten    --      8.9042                19.6293                16.4413

                     73                     74                     75
                      A                      A                      A
 Frequencies --   3253.6579              3265.8128              3287.6226
 Red. masses --      1.0962                 1.0964                 1.0932
 Frc consts  --      6.8371                 6.8900                 6.9620
 IR Inten    --      0.7785                 1.1655                 0.2769

 - Thermochemistry -
 -------------------
 Temperature   298.150 Kelvin.  Pressure   1.00000 Atm.
 Atom     1 has atomic number  6 and mass  12.00000

 Molecular mass:   246.05753 amu.
 Principal axes and moments of inertia in atomic units:
                           1         2         3
     Eigenvalues --  2661.107455476.093778114.47000
           X            0.99929   0.03774   0.00000
           Y           -0.03774   0.99929  -0.00000
           Z           -0.00000   0.00000   1.00000
 This molecule is an asymmetric top.
 Rotational symmetry number  1.
 Warning -- assumption of classical behavior for rotation
           may cause significant error
 Rotational temperatures (Kelvin)      0.03255     0.01582     0.01067
 Rotational constants (GHZ):           0.67819     0.32957     0.22241
 Zero-point vibrational energy     533462.1 (Joules/Mol)
                                  127.50050 (Kcal/Mol)
 Warning -- explicit consideration of  21 degrees of freedom as
           vibrations may cause significant error
 Vibrational temperatures:     57.45    59.01    94.82   116.73   160.90
          (Kelvin)            205.09   256.11   264.62   287.94   324.16
                              328.15   433.24   481.21   503.28   586.67
                              672.59   674.59   741.17   767.20   845.86
                              873.64   900.55   910.43  1021.35  1022.90
                             1028.10  1060.46  1083.33  1129.69  1182.47
                             1216.53  1219.99  1220.04  1255.90  1318.97
                             1414.90  1511.92  1539.08  1571.72  1610.26
                             1641.80  1674.14  1704.93  1757.97  1774.11
                             1819.81  1849.46  1893.52  1904.25  1971.92
                             2004.90  2025.09  2079.69  2118.74  2130.18
                             2156.99  2165.77  2169.62  2185.67  2195.65
                             2220.22  2228.20  2288.09  2300.34  2370.45
                             4417.10  4418.31  4514.69  4522.57  4550.78
                             4567.30  4636.01  4681.29  4698.78  4730.16

 Zero-point correction=                           0.203185 (Hartree/Particle)
 Thermal correction to Energy=                    0.217777
 Thermal correction to Enthalpy=                  0.218721
 Thermal correction to Gibbs Free Energy=         0.160100
 Sum of electronic and zero-point Energies=          -1117.459830
 Sum of electronic and thermal Energies=             -1117.445238
 Sum of electronic and thermal Enthalpies=           -1117.444294
 Sum of electronic and thermal Free Energies=        -1117.502915

                     E (Thermal)             CV                S
                      KCal/Mol        Cal/Mol-Kelvin    Cal/Mol-Kelvin
 Total                  136.657             54.646            123.378
 Electronic               0.000              0.000              0.000
 Translational            0.889              2.981             42.402
 Rotational               0.889              2.981             33.136
 Vibrational            134.880             48.684             47.840
 Vibration     1          0.594              1.981              5.263
 Vibration     2          0.594              1.981              5.209
 Vibration     3          0.597              1.971              4.272
 Vibration     4          0.600              1.962              3.863
 Vibration     5          0.607              1.940              3.237
 Vibration     6          0.616              1.911              2.769
 Vibration     7          0.628              1.869              2.349
 Vibration     8          0.631              1.862              2.288
 Vibration     9          0.638              1.840              2.132
 Vibration    10          0.650              1.802              1.916
 Vibration    11          0.651              1.798              1.894
 Vibration    12          0.693              1.672              1.411
 Vibration    13          0.716              1.607              1.238
 Vibration    14          0.727              1.576              1.167
 Vibration    15          0.772              1.453              0.935
 Vibration    16          0.825              1.322              0.745
 Vibration    17          0.826              1.319              0.741
 Vibration    18          0.870              1.216              0.621
 Vibration    19          0.888              1.177              0.580
 Vibration    20          0.945              1.058              0.471
 Vibration    21          0.966              1.017              0.437

                           ! Non-Optimized Parameters !
 Normal termination of Gaussian 16 at Fri Dec 11 13:15:25 2020.

 ----------------------------------------------------------------------
 # B3LYP/6-311++G(d,p) empiricaldispersion=gd3bj scf=xqc pop=npa geom=c
 heck
 ----------------------------------------------------------------------

 ---------------------------------------
 CID_149018737_JID_7751_Energie_neutraal
 ---------------------------------------
 Structure from the checkpoint file:  "JID_7751.chk"
 Charge =  0 Multiplicity = 1

 SCF Done:  E(RB3LYP) =  -1117.87459331     A.U. after   17 cycles
 Normal termination of Gaussian 16 at Fri Dec 11 13:20:23 2020.

 ----------------------------------------------------------------------
 # B3LYP/6-311++G(d,p) empiricaldispersion=gd3bj scf=xqc pop=npa geom=c
 heck
 ----------------------------------------------------------------------

 -------------------------------------
 CID_149018737_JID_7751_Energie_kation
 -------------------------------------
 Structure from the checkpoint file:  "JID_7751.chk"
 Charge =  1 Multiplicity = 2

 SCF Done:  E(UB3LYP) =  -1117.60483900     A.U. after   23 cycles
 Normal termination of Gaussian 16 at Fri Dec 11 13:29:05 2020.
 Gaussian 16:  ES64L-G16RevA.03 25-Dec-2016

 ----------------------------------------------------------------------
 # B3LYP/6-311++G(d,p) empiricaldispersion=gd3bj scf=xqc pop=npa geom=c
 heck
 ----------------------------------------------------------------------

 ------------------------------------
 CID_149018737_JID_7751_Energie_anion
 ------------------------------------
 Structure from the checkpoint file:  "JID_7751.chk"
 Charge = -1 Multiplicity = 2

                         Standard orientation:
 ---------------------------------------------------------------------
 Center     Atomic      Atomic             Coordinates (Angstroms)
 Number     Number       Type             X           Y           Z
 ---------------------------------------------------------------------
      1          6           0       -2.874566   -2.805563   -0.000393
      2          7           0       -2.862656   -1.355227    0.000115
      3          6           0       -3.934398   -0.489344    0.000174
      4          7           0       -3.609147    0.787738    0.000202
      5          6           0       -2.231708    0.777634    0.000085
      6          7           0       -1.383279    1.815558    0.000115
      7          6           0       -0.099726    1.495883    0.000020
      8          6           0        0.400834    0.142178    0.000035
      9          7           0       -0.465082   -0.886748    0.000024
     10          6           0       -1.743340   -0.545911   -0.000002
     11          6           0        1.814712   -0.202385    0.000054
     12          6           0        2.951504    0.580253    0.000065
     13          6           0        4.154949   -0.179437    0.000057
     14          6           0        3.929714   -1.529785    0.000038
     15         16           0        2.239767   -1.908815   -0.000003
     16          8           0        0.818587    2.486700    0.000089
     17          6           0        0.316675    3.827455   -0.000369
     18          1           0       -3.911090   -3.149058    0.001542
     19          1           0       -2.363468   -3.189300    0.887243
     20          1           0       -2.366931   -3.188853   -0.890227
     21          1           0       -4.948573   -0.869159    0.000224
     22          1           0        2.915241    1.659145    0.000122
     23          1           0        5.144398    0.264408   -0.000018
     24          1           0        4.661604   -2.326538    0.000072
     25          1           0        1.203085    4.463118   -0.001288
     26          1           0       -0.293597    4.013765   -0.888390
     27          1           0       -0.292407    4.014790    0.888275
 ---------------------------------------------------------------------

 SCF Done:  E(UB3LYP) =  -1117.89646953     A.U. after   22 cycles

 The electronic state is 2-A.
 Alpha  occ. eigenvalues --  -88.72706 -19.03068 -14.23803 -14.16266 -14.15907
 Alpha  occ. eigenvalues --  -14.15202 -10.12370 -10.10911 -10.10732 -10.09212
 Alpha  occ. eigenvalues --  -10.08426 -10.06913 -10.05985 -10.05713 -10.05078
 Alpha  occ. eigenvalues --  -10.03941 -10.02268  -7.81309  -5.77600  -5.77236
 Alpha  occ. eigenvalues --   -5.76918  -0.95383  -0.89501  -0.81319  -0.78143
 Alpha  occ. eigenvalues --   -0.74270  -0.73066  -0.64140  -0.61397  -0.59545
 Alpha  occ. eigenvalues --   -0.58906  -0.57431  -0.51518  -0.49323  -0.45834
 Alpha  occ. eigenvalues --   -0.43105  -0.42069  -0.40320  -0.40075  -0.37967
 Alpha  occ. eigenvalues --   -0.36203  -0.35249  -0.35121  -0.34139  -0.31583
 Alpha  occ. eigenvalues --   -0.30552  -0.30093  -0.30054  -0.27116  -0.26091
 Alpha  occ. eigenvalues --   -0.25930  -0.24378  -0.23899  -0.22343  -0.21064
 Alpha  occ. eigenvalues --   -0.20371  -0.18746  -0.16725  -0.16253  -0.13619
 Alpha  occ. eigenvalues --   -0.11695  -0.11141  -0.10565  -0.06845   0.03266
 Alpha virt. eigenvalues --    0.07512   0.08405   0.08898   0.09972   0.10568
 Alpha virt. eigenvalues --    0.11525   0.11818   0.12057   0.12228   0.12960
 Alpha virt. eigenvalues --    0.13414   0.14487   0.14706   0.15121   0.15587

  Beta  occ. eigenvalues --  -88.72678 -19.03092 -14.23781 -14.16351 -14.15595
  Beta  occ. eigenvalues --  -14.14653 -10.12470 -10.10911 -10.10730 -10.08912
  Beta  occ. eigenvalues --  -10.08504 -10.06739 -10.05745 -10.05709 -10.04840
  Beta  occ. eigenvalues --  -10.04018 -10.02084  -7.81285  -5.77589  -5.77225
  Beta  occ. eigenvalues --   -5.76824  -0.95415  -0.89296  -0.80810  -0.77708
  Beta  occ. eigenvalues --   -0.73996  -0.72729  -0.63880  -0.61366  -0.59420
  Beta  occ. eigenvalues --   -0.58613  -0.57074  -0.50924  -0.49238  -0.45627
  Beta  occ. eigenvalues --   -0.42953  -0.41853  -0.40191  -0.39862  -0.37833
  Beta  occ. eigenvalues --   -0.35966  -0.35233  -0.35018  -0.33964  -0.31466
  Beta  occ. eigenvalues --   -0.30493  -0.29930  -0.29449  -0.26975  -0.25764
  Beta  occ. eigenvalues --   -0.25472  -0.24301  -0.23416  -0.22276  -0.20215
  Beta  occ. eigenvalues --   -0.19541  -0.18054  -0.16576  -0.15807  -0.12756
  Beta  occ. eigenvalues --   -0.11020  -0.10179  -0.10097  -0.05577
  Beta virt. eigenvalues --    0.07446   0.08387   0.08782   0.08883   0.09918
  Beta virt. eigenvalues --    0.10544   0.11929   0.12012   0.12201   0.12545
  Beta virt. eigenvalues --    0.13111   0.13398   0.14439   0.15026   0.15082

 Mulliken charges and spin densities:
               1          2
     1  C   -0.280594  -0.003751
     2  N   -0.029642  -0.014627
     3  C    0.298932   0.232405
     4  N   -0.209274  -0.056486
     5  C   -0.526184   0.128371
     6  N   -0.213587   0.144161
     7  C   -0.219359  -0.057116
     8  C   -0.848864   0.162191
     9  N   -0.053012   0.278147
    10  C    0.306274  -0.082086
    11  C   -0.638266  -0.042100
    12  C    1.668825   0.175069
    13  C   -0.987975  -0.052295
    14  C    0.106787   0.170780
    15  S   -0.492954   0.045575
    16  O   -0.147938   0.000478
    17  C   -0.279237  -0.000550
    18  H    0.105142  -0.001090
    19  H    0.168351   0.005392
    20  H    0.168204   0.005432
    21  H    0.161066  -0.018535
    22  H    0.209277  -0.009989
    23  H    0.096865   0.003147
    24  H    0.187459  -0.011573
    25  H    0.105342  -0.000046
    26  H    0.172219  -0.000453
    27  H    0.172143  -0.000455
 Sum of Mulliken charges =  -1.00000   1.00000

 Dipole moment (field-independent basis, Debye):
    X=              0.1561    Y=             -1.4030    Z=             -0.0013  Tot=              1.4116
 Quadrupole moment (field-independent basis, Debye-Ang):
   XX=           -147.7568   YY=           -114.2327   ZZ=           -115.0103
   XY=             18.9281   XZ=              0.0018   YZ=             -0.0034

 Summary of Natural Population Analysis:

                                       Natural Population
                Natural  -----------------------------------------------
    Atom  No    Charge         Core      Valence    Rydberg      Total
 -----------------------------------------------------------------------
      C    1   -0.17106      0.99966     2.16483    0.00657     3.17106
      N    2   -0.21886      0.99961     2.71098    0.00826     3.71886
      C    3    0.17536      0.99967     1.80896    0.01602     2.82464
      N    4   -0.28405      0.99971     2.76942    0.01493     3.78405
      C    5    0.17121      0.99947     1.81039    0.01893     2.82879
      N    6   -0.21978      0.99962     2.70796    0.01220     3.71978
      C    7    0.24044      0.99947     1.74292    0.01718     2.75956
      C    8    0.06331      0.99953     1.91259    0.02457     2.93669
      N    9   -0.15662      0.99964     2.64738    0.00960     3.65662
      C   10    0.13871      0.99947     1.84649    0.01533     2.86129
      C   11   -0.05820      0.99950     2.04722    0.01148     3.05820
      C   12   -0.10795      0.99948     2.09312    0.01535     3.10795
      C   13   -0.15274      0.99940     2.14029    0.01306     3.15274
      C   14   -0.16135      0.99947     2.14609    0.01579     3.16135
      S   15    0.20301      4.99947     2.77005    0.02747     7.79699
      O   16   -0.28345      0.99985     3.27271    0.01089     4.28345
      C   17   -0.10197      0.99960     2.09401    0.00836     3.10197
      H   18    0.09205      0.00000     0.40707    0.00088     0.40795
      H   19    0.09825      0.00000     0.40048    0.00127     0.40175
      H   20    0.09818      0.00000     0.40055    0.00127     0.40182
      H   21    0.07792      0.00000     0.42106    0.00102     0.42208
      H   22    0.10863      0.00000     0.38960    0.00177     0.39137
      H   23    0.09620      0.00000     0.40293    0.00087     0.40380
      H   24    0.09428      0.00000     0.40369    0.00204     0.40572
      H   25    0.08119      0.00000     0.41800    0.00081     0.41881
      H   26    0.08877      0.00000     0.40997    0.00127     0.41123
      H   27    0.08873      0.00000     0.41000    0.00127     0.41127
 =======================================================================
   * Total *    0.00018     20.99263    42.74873    0.25846    63.99982

 Normal termination of Gaussian 16 at Fri Dec 11 13:36:51 2020.
