 Gaussian 16, Revision A.03,

 -----------------------------------------------------------
 # opt freq B3LYP/6-31G(d) empiricaldispersion=gd3bj scf=xqc
 -----------------------------------------------------------

 -----------------------------
 CID_58898509_JID_152_neutraal
 -----------------------------
 Symbolic Z-matrix:
 Charge =  0 Multiplicity = 1

 SCF Done:  E(RB3LYP) =  -821.425335216     A.U. after   14 cycles
 SCF Done:  E(RB3LYP) =  -821.431320076     A.U. after   13 cycles
 SCF Done:  E(RB3LYP) =  -821.431711976     A.U. after   13 cycles
 SCF Done:  E(RB3LYP) =  -821.431994024     A.U. after   13 cycles
 SCF Done:  E(RB3LYP) =  -821.432136822     A.U. after   13 cycles
 SCF Done:  E(RB3LYP) =  -821.432306224     A.U. after   12 cycles
 SCF Done:  E(RB3LYP) =  -821.432340863     A.U. after   12 cycles
 SCF Done:  E(RB3LYP) =  -821.432348384     A.U. after   10 cycles
 SCF Done:  E(RB3LYP) =  -821.432353421     A.U. after    9 cycles
 SCF Done:  E(RB3LYP) =  -821.432354652     A.U. after    9 cycles
 SCF Done:  E(RB3LYP) =  -821.432355188     A.U. after    9 cycles
 SCF Done:  E(RB3LYP) =  -821.432355736     A.U. after    9 cycles
 SCF Done:  E(RB3LYP) =  -821.432356598     A.U. after    9 cycles
 SCF Done:  E(RB3LYP) =  -821.432357389     A.U. after   10 cycles
 SCF Done:  E(RB3LYP) =  -821.432357866     A.U. after    8 cycles
 SCF Done:  E(RB3LYP) =  -821.432358050     A.U. after    8 cycles
 Optimization completed.
    -- Stationary point found.
 Normal termination of Gaussian 16 at Tue Dec  8 10:20:05 2020.

 --------------------------------------------------------------------
 #N Geom=AllCheck Guess=TCheck SCRF=Check GenChk RB3LYP/6-31G(d) Freq
 --------------------------------------------------------------------

 Structure from the checkpoint file:  "JID_152.chk"
 -----------------------------
 CID_58898509_JID_152_neutraal
 -----------------------------
 Charge =  0 Multiplicity = 1

 SCF Done:  E(RB3LYP) =  -821.432358050     A.U. after    1 cycles

  Exact polarizability: 106.525  -0.733  88.120   2.286   2.055  71.972
 Approx polarizability: 155.357   4.769 125.852   2.149   2.863 114.074

                      1                      2                      3
                      A                      A                      A
 Frequencies --     46.5421                50.9066                81.0386
 Red. masses --      3.6371                 3.8217                 3.1250
 Frc consts  --      0.0046                 0.0058                 0.0121
 IR Inten    --     11.7310                 0.5247                 2.8915

                      4                      5                      6
                      A                      A                      A
 Frequencies --    163.6822               176.9057               201.9669
 Red. masses --      1.8316                 2.5452                 1.1043
 Frc consts  --      0.0289                 0.0469                 0.0265
 IR Inten    --      0.9806                 1.7892                 0.5155

                      7                      8                      9
                      A                      A                      A
 Frequencies --    208.2621               261.7819               292.1261
 Red. masses --      1.9060                 3.9476                 3.1124
 Frc consts  --      0.0487                 0.1594                 0.1565
 IR Inten    --      1.2634                 1.7828                 1.5669

                     10                     11                     12
                      A                      A                      A
 Frequencies --    338.9594               403.4474               430.7065
 Red. masses --      7.6379                 3.5974                 5.4161
 Frc consts  --      0.5170                 0.3450                 0.5920
 IR Inten    --      6.9473                 2.7466                 4.8275

                     13                     14                     15
                      A                      A                      A
 Frequencies --    500.5596               574.2648               586.2515
 Red. masses --      2.5339                 4.9863                 7.3952
 Frc consts  --      0.3741                 0.9689                 1.4975
 IR Inten    --      1.6361                 3.4824                11.7891

                     16                     17                     18
                      A                      A                      A
 Frequencies --    615.2817               705.7472               759.1915
 Red. masses --      3.3238                 5.3789                 2.8904
 Frc consts  --      0.7414                 1.5785                 0.9816
 IR Inten    --      2.0463                 2.3477                 2.8604

                     19                     20                     21
                      A                      A                      A
 Frequencies --    775.4436               844.4374               905.5027
 Red. masses --      2.6498                 2.9332                 2.6281
 Frc consts  --      0.9388                 1.2323                 1.2696
 IR Inten    --      4.4437                 1.3317                14.7240

                     22                     23                     24
                      A                      A                      A
 Frequencies --    941.3399               993.1183              1001.8648
 Red. masses --      2.0891                 1.1885                 1.2940
 Frc consts  --      1.0907                 0.6906                 0.7653
 IR Inten    --     11.7242                 3.4644                12.7033

                     25                     26                     27
                      A                      A                      A
 Frequencies --   1031.5432              1043.3949              1121.3837
 Red. masses --      1.6119                 2.3564                 2.1095
 Frc consts  --      1.0106                 1.5115                 1.5629
 IR Inten    --      4.2319                 1.9538                 8.9031

                     28                     29                     30
                      A                      A                      A
 Frequencies --   1148.6421              1165.1105              1208.8166
 Red. masses --      1.9657                 1.8241                 3.7261
 Frc consts  --      1.5280                 1.4590                 3.2079
 IR Inten    --      7.7210                 1.7494               145.3022

                     31                     32                     33
                      A                      A                      A
 Frequencies --   1235.2926              1256.2640              1261.7433
 Red. masses --      1.5168                 1.5682                 1.4653
 Frc consts  --      1.3637                 1.4582                 1.3744
 IR Inten    --      5.2517                 3.8182                12.9195

                     34                     35                     36
                      A                      A                      A
 Frequencies --   1311.2949              1357.4365              1385.1849
 Red. masses --      1.4637                 1.6565                 1.1577
 Frc consts  --      1.4829                 1.7983                 1.3088
 IR Inten    --      5.1479                 5.4914                 0.6828

                     37                     38                     39
                      A                      A                      A
 Frequencies --   1430.3269              1435.0120              1499.5575
 Red. masses --      1.0780                 1.2229                 1.0514
 Frc consts  --      1.2994                 1.4838                 1.3930
 IR Inten    --     18.7952                 5.3525                 8.5747

                     40                     41                     42
                      A                      A                      A
 Frequencies --   1521.0559              1523.4451              1527.8948
 Red. masses --      1.0538                 1.0472                 1.0453
 Frc consts  --      1.4364                 1.4320                 1.4377
 IR Inten    --     12.8074                 7.6889                 8.6004

                     43                     44                     45
                      A                      A                      A
 Frequencies --   1833.6939              1867.0519              3002.1463
 Red. masses --     12.5262                12.8518                 1.0801
 Frc consts  --     24.8155                26.3954                 5.7357
 IR Inten    --    314.8023                47.2739                 7.4127

                     46                     47                     48
                      A                      A                      A
 Frequencies --   3028.1569              3061.1530              3066.2201
 Red. masses --      1.0821                 1.0376                 1.0323
 Frc consts  --      5.8463                 5.7286                 5.7183
 IR Inten    --      5.3749                18.1205                21.7984

                     49                     50                     51
                      A                      A                      A
 Frequencies --   3069.0308              3109.1287              3130.4147
 Red. masses --      1.0616                 1.1010                 1.0995
 Frc consts  --      5.8911                 6.2706                 6.3481
 IR Inten    --      0.1947                 0.0463                17.9619

                     52                     53                     54
                      A                      A                      A
 Frequencies --   3148.4279              3151.8579              3172.9650
 Red. masses --      1.1025                 1.1037                 1.1066
 Frc consts  --      6.4388                 6.4600                 6.5638
 IR Inten    --     10.3248                 9.5464                 3.0361

 - Thermochemistry -
 -------------------
 Temperature   298.150 Kelvin.  Pressure   1.00000 Atm.
 Atom     1 has atomic number  6 and mass  12.00000

 Molecular mass:   158.04015 amu.
 Principal axes and moments of inertia in atomic units:
                           1         2         3
     Eigenvalues --  1083.458901957.982652661.01530
           X            0.99956   0.00938   0.02811
           Y           -0.00963   0.99991   0.00904
           Z           -0.02802  -0.00930   0.99956
 This molecule is an asymmetric top.
 Rotational symmetry number  1.
 Warning -- assumption of classical behavior for rotation
           may cause significant error
 Rotational temperatures (Kelvin)      0.07994     0.04424     0.03255
 Rotational constants (GHZ):           1.66572     0.92174     0.67822
 Zero-point vibrational energy     418471.5 (Joules/Mol)
                                  100.01709 (Kcal/Mol)
 Warning -- explicit consideration of  16 degrees of freedom as
           vibrations may cause significant error
 Vibrational temperatures:     66.96    73.24   116.60   235.50   254.53
          (Kelvin)            290.59   299.64   376.65   420.30   487.69
                              580.47   619.69   720.19   826.24   843.49
                              885.25  1015.41  1092.31  1115.69  1214.96
                             1302.82  1354.38  1428.88  1441.46  1484.16
                             1501.21  1613.42  1652.64  1676.33  1739.22
                             1777.31  1807.48  1815.37  1886.66  1953.05
                             1992.97  2057.92  2064.66  2157.53  2188.46
                             2191.90  2198.30  2638.28  2686.27  4319.42
                             4356.84  4404.32  4411.61  4415.65  4473.34
                             4503.97  4529.89  4534.82  4565.19

 Zero-point correction=                           0.159387 (Hartree/Particle)
 Thermal correction to Energy=                    0.170340
 Thermal correction to Enthalpy=                  0.171284
 Thermal correction to Gibbs Free Energy=         0.121860
 Sum of electronic and zero-point Energies=           -821.272971
 Sum of electronic and thermal Energies=              -821.262018
 Sum of electronic and thermal Enthalpies=            -821.261074
 Sum of electronic and thermal Free Energies=         -821.310498

                     E (Thermal)             CV                S
                      KCal/Mol        Cal/Mol-Kelvin    Cal/Mol-Kelvin
 Total                  106.890             39.123            104.022
 Electronic               0.000              0.000              0.000
 Translational            0.889              2.981             41.082
 Rotational               0.889              2.981             30.113
 Vibrational            105.112             33.161             32.827
 Vibration     1          0.595              1.979              4.959
 Vibration     2          0.595              1.977              4.782
 Vibration     3          0.600              1.962              3.866
 Vibration     4          0.623              1.887              2.507
 Vibration     5          0.628              1.871              2.361
 Vibration     6          0.639              1.837              2.115
 Vibration     7          0.642              1.828              2.059
 Vibration     8          0.669              1.743              1.650
 Vibration     9          0.688              1.688              1.462
 Vibration    10          0.719              1.598              1.217
 Vibration    11          0.769              1.463              0.950
 Vibration    12          0.792              1.403              0.856
 Vibration    13          0.856              1.249              0.657
 Vibration    14          0.931              1.087              0.496
 Vibration    15          0.943              1.061              0.474
 Vibration    16          0.975              1.000              0.424

                           ! Non-Optimized Parameters !
 Normal termination of Gaussian 16 at Tue Dec  8 10:23:29 2020.

 ----------------------------------------------------------------------
 # B3LYP/6-311++G(d,p) empiricaldispersion=gd3bj scf=xqc pop=npa geom=c
 heck
 ----------------------------------------------------------------------

 -------------------------------------
 CID_58898509_JID_152_Energie_neutraal
 -------------------------------------
 Structure from the checkpoint file:  "JID_152.chk"
 Charge =  0 Multiplicity = 1

 SCF Done:  E(RB3LYP) =  -821.583908212     A.U. after   14 cycles
 Normal termination of Gaussian 16 at Tue Dec  8 10:24:40 2020.

 ----------------------------------------------------------------------
 # B3LYP/6-311++G(d,p) empiricaldispersion=gd3bj scf=xqc pop=npa geom=c
 heck
 ----------------------------------------------------------------------

 -----------------------------------
 CID_58898509_JID_152_Energie_kation
 -----------------------------------
 Structure from the checkpoint file:  "JID_152.chk"
 Charge =  1 Multiplicity = 2

 SCF Done:  E(UB3LYP) =  -821.265386271     A.U. after   23 cycles
 Normal termination of Gaussian 16 at Tue Dec  8 10:27:47 2020.
 Gaussian 16:  ES64L-G16RevA.03 25-Dec-2016

 ----------------------------------------------------------------------
 # B3LYP/6-311++G(d,p) empiricaldispersion=gd3bj scf=xqc pop=npa geom=c
 heck
 ----------------------------------------------------------------------

 ----------------------------------
 CID_58898509_JID_152_Energie_anion
 ----------------------------------
 Structure from the checkpoint file:  "JID_152.chk"
 Charge = -1 Multiplicity = 2

                         Standard orientation:
 ---------------------------------------------------------------------
 Center     Atomic      Atomic             Coordinates (Angstroms)
 Number     Number       Type             X           Y           Z
 ---------------------------------------------------------------------
      1          6           0       -1.227269   -2.197408   -0.290915
      2          6           0       -0.796454   -0.825489    0.209955
      3          6           0        0.308684   -0.125050   -0.610278
      4          6           0        0.110483    1.378314   -0.335875
      5          8           0        0.963964    2.232407   -0.376648
      6          6           0       -1.353426    1.599264    0.037825
      7          6           0       -1.932216    0.203755    0.258070
      8          8           0       -3.101971   -0.055548    0.427959
      9         16           0        2.007963   -0.754866   -0.423917
     10          6           0        2.411790   -0.155873    1.253246
     11          1           0       -0.387872   -2.897441   -0.254255
     12          1           0       -1.581851   -2.135879   -1.326202
     13          1           0       -2.045880   -2.585704    0.320541
     14          1           0       -0.442789   -0.912901    1.250646
     15          1           0        0.088299   -0.269169   -1.679250
     16          1           0       -1.891001    2.119827   -0.764435
     17          1           0       -1.443127    2.226480    0.932589
     18          1           0        2.432003    0.935116    1.276287
     19          1           0        1.711387   -0.541146    2.000532
     20          1           0        3.407925   -0.541291    1.483559
 ---------------------------------------------------------------------

 SCF Done:  E(UB3LYP) =  -821.589111775     A.U. after   27 cycles

 The electronic state is 2-A.
 Alpha  occ. eigenvalues --  -88.71033 -18.95624 -18.95434 -10.09262 -10.09205
 Alpha  occ. eigenvalues --  -10.07233 -10.06758 -10.05017 -10.03832 -10.03112
 Alpha  occ. eigenvalues --   -7.79650  -5.76068  -5.75682  -5.75004  -0.89481
 Alpha  occ. eigenvalues --   -0.89109  -0.70820  -0.64877  -0.61438  -0.56974
 Alpha  occ. eigenvalues --   -0.51083  -0.47442  -0.39387  -0.39243  -0.34953
 Alpha  occ. eigenvalues --   -0.32301  -0.31077  -0.30645  -0.30522  -0.29823
 Alpha  occ. eigenvalues --   -0.28164  -0.26759  -0.25414  -0.24896  -0.23781
 Alpha  occ. eigenvalues --   -0.23218  -0.20541  -0.20329  -0.18944  -0.12419
 Alpha  occ. eigenvalues --   -0.09432  -0.08897   0.05207
 Alpha virt. eigenvalues --    0.08345   0.09344   0.10551   0.10950   0.11425
 Alpha virt. eigenvalues --    0.12575   0.12825   0.13075   0.13780   0.14091
 Alpha virt. eigenvalues --    0.15248   0.16289   0.16681   0.17444   0.17850

  Beta  occ. eigenvalues --  -88.71008 -18.95397 -18.95182 -10.08953 -10.08855
  Beta  occ. eigenvalues --  -10.07255 -10.06719 -10.05045 -10.03800 -10.03197
  Beta  occ. eigenvalues --   -7.79623  -5.76049  -5.75628  -5.74984  -0.88978
  Beta  occ. eigenvalues --   -0.88608  -0.70528  -0.64680  -0.61180  -0.56831
  Beta  occ. eigenvalues --   -0.50909  -0.47035  -0.38751  -0.38737  -0.34606
  Beta  occ. eigenvalues --   -0.32035  -0.30783  -0.30489  -0.29836  -0.29592
  Beta  occ. eigenvalues --   -0.27926  -0.26414  -0.24987  -0.24558  -0.23356
  Beta  occ. eigenvalues --   -0.23047  -0.19725  -0.19038  -0.18774  -0.12228
  Beta  occ. eigenvalues --   -0.09300  -0.08706
  Beta virt. eigenvalues --    0.08364   0.09402   0.10204   0.10655   0.11835
  Beta virt. eigenvalues --    0.12334   0.12622   0.13373   0.13611   0.13936
  Beta virt. eigenvalues --    0.15014   0.15322   0.16330   0.16791   0.17384

 Mulliken charges and spin densities:
               1          2
     1  C   -0.574893  -0.178426
     2  C    0.340431  -0.041644
     3  C    0.472703   0.087409
     4  C   -0.408157   0.221933
     5  O   -0.373855   0.103064
     6  C   -0.063594  -0.242430
     7  C   -0.264669   0.202383
     8  O   -0.381114   0.093554
     9  S   -0.175109   0.109245
    10  C   -0.296986  -0.348855
    11  H    0.116736   0.009040
    12  H    0.110093   0.013579
    13  H    0.105767   0.039137
    14  H   -0.016923   0.200375
    15  H    0.213441   0.025096
    16  H    0.115418   0.089157
    17  H   -0.022194   0.233035
    18  H    0.113119   0.091733
    19  H   -0.091383   0.235359
    20  H    0.081167   0.057259
 Sum of Mulliken charges =  -1.00000   1.00000

 Dipole moment (field-independent basis, Debye):
    X=              1.6839    Y=             -2.5310    Z=             -1.0920  Tot=              3.2302
 Quadrupole moment (field-independent basis, Debye-Ang):
   XX=           -106.3667   YY=            -93.5070   ZZ=            -79.8880
   XY=             -2.6664   XZ=              5.4832   YZ=              1.5614

 Summary of Natural Population Analysis:

                                       Natural Population
                Natural  -----------------------------------------------
    Atom  No    Charge         Core      Valence    Rydberg      Total
 -----------------------------------------------------------------------
      C    1   -0.28306      0.99965     2.27504    0.00837     3.28306
      C    2   -0.15579      0.99954     2.14549    0.01075     3.15579
      C    3   -0.20942      0.99948     2.19682    0.01311     3.20942
      C    4    0.33346      0.99964     1.64295    0.02394     2.66654
      O    5   -0.27526      0.99987     3.26862    0.00677     4.27526
      C    6   -0.28479      0.99956     2.27750    0.00773     3.28479
      C    7    0.33697      0.99965     1.63965    0.02373     2.66303
      O    8   -0.28365      0.99987     3.27691    0.00687     4.28365
      S    9    0.09436      4.99961     2.88627    0.01976     7.90564
      C   10   -0.35453      0.99962     2.34811    0.00680     3.35453
      H   11    0.09868      0.00000     0.40000    0.00131     0.40132
      H   12    0.09382      0.00000     0.40535    0.00083     0.40618
      H   13    0.10421      0.00000     0.39489    0.00090     0.39579
      H   14    0.11056      0.00000     0.38725    0.00218     0.38944
      H   15    0.11607      0.00000     0.38316    0.00077     0.38393
      H   16    0.12316      0.00000     0.37582    0.00102     0.37684
      H   17    0.12398      0.00000     0.37399    0.00203     0.37602
      H   18    0.11217      0.00000     0.38648    0.00135     0.38783
      H   19    0.09917      0.00000     0.39910    0.00173     0.40083
      H   20    0.09988      0.00000     0.39924    0.00088     0.40012
 =======================================================================
   * Total *    0.00000     13.99649    27.86265    0.14086    42.00000

 Normal termination of Gaussian 16 at Tue Dec  8 10:31:25 2020.
