 Gaussian 16, Revision A.03,

 -----------------------------------------------------------
 # opt freq B3LYP/6-31G(d) empiricaldispersion=gd3bj scf=xqc
 -----------------------------------------------------------

 ------------------------------
 CID_82289715_JID_7108_neutraal
 ------------------------------
 Symbolic Z-matrix:
 Charge =  0 Multiplicity = 1

 SCF Done:  E(RB3LYP) =  -734.124885058     A.U. after   15 cycles
 SCF Done:  E(RB3LYP) =  -734.128602272     A.U. after   13 cycles
 SCF Done:  E(RB3LYP) =  -734.129508219     A.U. after   13 cycles
 SCF Done:  E(RB3LYP) =  -734.130333674     A.U. after   12 cycles
 SCF Done:  E(RB3LYP) =  -734.130891696     A.U. after   13 cycles
 SCF Done:  E(RB3LYP) =  -734.131395342     A.U. after   13 cycles
 SCF Done:  E(RB3LYP) =  -734.132014620     A.U. after   12 cycles
 SCF Done:  E(RB3LYP) =  -734.131993000     A.U. after   13 cycles
 SCF Done:  E(RB3LYP) =  -734.132672246     A.U. after   12 cycles
 SCF Done:  E(RB3LYP) =  -734.132807549     A.U. after   13 cycles
 SCF Done:  E(RB3LYP) =  -734.133064077     A.U. after   10 cycles
 SCF Done:  E(RB3LYP) =  -734.133067787     A.U. after   10 cycles
 SCF Done:  E(RB3LYP) =  -734.133068121     A.U. after    9 cycles
 SCF Done:  E(RB3LYP) =  -734.133068322     A.U. after    9 cycles
 SCF Done:  E(RB3LYP) =  -734.133068454     A.U. after    8 cycles
 Optimization completed.
    -- Stationary point found.
 Normal termination of Gaussian 16 at Fri Dec 11 12:02:44 2020.

 --------------------------------------------------------------------
 #N Geom=AllCheck Guess=TCheck SCRF=Check GenChk RB3LYP/6-31G(d) Freq
 --------------------------------------------------------------------

 Structure from the checkpoint file:  "JID_7108.chk"
 ------------------------------
 CID_82289715_JID_7108_neutraal
 ------------------------------
 Charge =  0 Multiplicity = 1

 SCF Done:  E(RB3LYP) =  -734.133068454     A.U. after    1 cycles

  Exact polarizability: 238.710  -3.716 151.804  -2.023  -3.683 108.003
 Approx polarizability: 315.431 -15.276 256.121  -3.905  -9.841 155.880

                      1                      2                      3
                      A                      A                      A
 Frequencies --     19.1938                32.0336                58.3182
 Red. masses --      3.7426                 3.7800                 3.2249
 Frc consts  --      0.0008                 0.0023                 0.0065
 IR Inten    --      0.0452                 0.5495                 0.2267

                      4                      5                      6
                      A                      A                      A
 Frequencies --     84.2909                90.1394               111.4757
 Red. masses --      3.4523                 3.6616                 2.8783
 Frc consts  --      0.0145                 0.0175                 0.0211
 IR Inten    --      0.5896                 0.9802                 1.5418

                      7                      8                      9
                      A                      A                      A
 Frequencies --    161.8599               168.6287               193.5099
 Red. masses --      2.3942                 1.3824                 1.2180
 Frc consts  --      0.0370                 0.0232                 0.0269
 IR Inten    --      0.6342                 0.2272                 0.7917

                     10                     11                     12
                      A                      A                      A
 Frequencies --    209.5983               218.2957               230.0169
 Red. masses --      1.1414                 3.6220                 3.2807
 Frc consts  --      0.0295                 0.1017                 0.1023
 IR Inten    --      0.0812                 1.4819                 0.3380

                     13                     14                     15
                      A                      A                      A
 Frequencies --    266.8271               271.6945               304.0435
 Red. masses --      1.1357                 2.2124                 2.7632
 Frc consts  --      0.0476                 0.0962                 0.1505
 IR Inten    --      0.1676                 1.0285                 0.1586

                     16                     17                     18
                      A                      A                      A
 Frequencies --    309.7817               319.6438               346.1053
 Red. masses --      4.4872                 3.3580                 2.4654
 Frc consts  --      0.2537                 0.2021                 0.1740
 IR Inten    --      3.0833                 5.6201                 1.1936

                     19                     20                     21
                      A                      A                      A
 Frequencies --    359.2990               399.2734               420.3983
 Red. masses --      2.6379                 2.7837                 2.9497
 Frc consts  --      0.2006                 0.2615                 0.3071
 IR Inten    --      2.8934                 0.2330                 0.0521

                     22                     23                     24
                      A                      A                      A
 Frequencies --    436.0076               458.2672               486.6080
 Red. masses --      3.2372                 2.8502                 4.1660
 Frc consts  --      0.3626                 0.3527                 0.5812
 IR Inten    --      0.0785                 5.0458                 8.5404

                     25                     26                     27
                      A                      A                      A
 Frequencies --    519.2871               536.5423               595.8991
 Red. masses --      2.9924                 2.9018                 4.8244
 Frc consts  --      0.4754                 0.4922                 1.0094
 IR Inten    --      0.8720                 2.8082                10.1532

                     28                     29                     30
                      A                      A                      A
 Frequencies --    640.1269               688.2606               710.2198
 Red. masses --      6.4508                 5.3837                 4.3254
 Frc consts  --      1.5574                 1.5026                 1.2855
 IR Inten    --      2.9203                16.4206                 1.0879

                     31                     32                     33
                      A                      A                      A
 Frequencies --    746.4147               773.5557               801.4639
 Red. masses --      4.8795                 3.2305                 1.3753
 Frc consts  --      1.6017                 1.1390                 0.5205
 IR Inten    --      2.0994                14.2082                 7.7738

                     34                     35                     36
                      A                      A                      A
 Frequencies --    818.6082               835.7281               848.5105
 Red. masses --      2.3414                 1.2734                 2.7810
 Frc consts  --      0.9244                 0.5240                 1.1797
 IR Inten    --      1.8368                 5.5341                 2.1366

                     37                     38                     39
                      A                      A                      A
 Frequencies --    865.8465               890.1753               929.7515
 Red. masses --      1.7059                 2.3954                 1.8254
 Frc consts  --      0.7535                 1.1184                 0.9297
 IR Inten    --     34.3023                 5.6287                12.9026

                     40                     41                     42
                      A                      A                      A
 Frequencies --    931.1558               949.1124               959.1020
 Red. masses --      1.6410                 1.5405                 3.2512
 Frc consts  --      0.8383                 0.8176                 1.7621
 IR Inten    --      0.0534                54.6530                52.9446

                     43                     44                     45
                      A                      A                      A
 Frequencies --    965.9348               966.8037               981.5455
 Red. masses --      1.6642                 1.3141                 1.1978
 Frc consts  --      0.9149                 0.7237                 0.6799
 IR Inten    --      3.3881                 6.3145                 0.4359

                     46                     47                     48
                      A                      A                      A
 Frequencies --    989.0030              1010.0774              1038.1253
 Red. masses --      1.3243                 3.0774                 2.0769
 Frc consts  --      0.7632                 1.8499                 1.3187
 IR Inten    --      0.7893                59.8229                 9.9940

                     49                     50                     51
                      A                      A                      A
 Frequencies --   1049.7687              1062.0827              1066.6948
 Red. masses --      1.3941                 1.4033                 1.4040
 Frc consts  --      0.9051                 0.9326                 0.9412
 IR Inten    --     14.2244                 1.5301                 1.8424

                     52                     53                     54
                      A                      A                      A
 Frequencies --   1078.1822              1082.1591              1140.9267
 Red. masses --      1.8540                 1.3874                 1.6414
 Frc consts  --      1.2698                 0.9573                 1.2589
 IR Inten    --      8.5501                 1.6244                 8.4459

                     55                     56                     57
                      A                      A                      A
 Frequencies --   1148.7914              1203.4513              1204.8088
 Red. masses --      1.2635                 1.3268                 1.3257
 Frc consts  --      0.9824                 1.1322                 1.1338
 IR Inten    --     16.7260                 0.0232               322.3604

                     58                     59                     60
                      A                      A                      A
 Frequencies --   1229.5042              1253.3928              1278.8267
 Red. masses --      2.0901                 3.0076                 2.7582
 Frc consts  --      1.8616                 2.7838                 2.6576
 IR Inten    --    233.4562               108.1754                17.6740

                     61                     62                     63
                      A                      A                      A
 Frequencies --   1284.3691              1303.6019              1315.5874
 Red. masses --      2.6968                 4.0431                 3.3150
 Frc consts  --      2.6211                 4.0481                 3.3804
 IR Inten    --     28.2393               182.6180                35.6714

                     64                     65                     66
                      A                      A                      A
 Frequencies --   1342.6689              1365.1917              1374.8221
 Red. masses --      1.3822                 4.3935                 4.8293
 Frc consts  --      1.4681                 4.8244                 5.3781
 IR Inten    --     15.4619               147.8910                12.0515

                     67                     68                     69
                      A                      A                      A
 Frequencies --   1430.2573              1431.8757              1444.5506
 Red. masses --      1.2793                 1.2483                 1.2614
 Frc consts  --      1.5419                 1.5080                 1.5509
 IR Inten    --      8.9076                13.8524                10.5830

                     70                     71                     72
                      A                      A                      A
 Frequencies --   1457.1097              1470.1612              1493.8743
 Red. masses --      1.2836                 2.8638                 1.0870
 Frc consts  --      1.6057                 3.6469                 1.4292
 IR Inten    --     35.3225                33.3390                 2.5376

                     73                     74                     75
                      A                      A                      A
 Frequencies --   1502.8140              1515.9561              1517.7720
 Red. masses --      1.0486                 1.0466                 1.0479
 Frc consts  --      1.3953                 1.4171                 1.4223
 IR Inten    --      0.9123                 0.1272                 0.0153

                     76                     77                     78
                      A                      A                      A
 Frequencies --   1519.5000              1529.7594              1530.3476
 Red. masses --      1.0492                 1.2408                 1.0671
 Frc consts  --      1.4272                 1.7108                 1.4725
 IR Inten    --      2.4031                 2.3532                10.8206

                     79                     80                     81
                      A                      A                      A
 Frequencies --   1530.9177              1538.7515              1547.6563
 Red. masses --      1.0633                 1.1179                 1.1901
 Frc consts  --      1.4683                 1.5595                 1.6795
 IR Inten    --      2.2382                 7.7264                10.9706

                     82                     83                     84
                      A                      A                      A
 Frequencies --   1558.0809              1618.3528              1664.8996
 Red. masses --      2.0720                 6.4859                 5.8884
 Frc consts  --      2.9635                10.0084                 9.6166
 IR Inten    --     58.2356                79.5593               273.9205

                     85                     86                     87
                      A                      A                      A
 Frequencies --   1754.8566              3049.7233              3062.4973
 Red. masses --     12.1981                 1.0362                 1.0350
 Frc consts  --     22.1322                 5.6782                 5.7191
 IR Inten    --    154.3426                29.3115                12.6661

                     88                     89                     90
                      A                      A                      A
 Frequencies --   3066.5344              3073.0014              3111.2882
 Red. masses --      1.0380                 1.0383                 1.1023
 Frc consts  --      5.7511                 5.7768                 6.2867
 IR Inten    --     17.1294                15.9543                19.0511

                     91                     92                     93
                      A                      A                      A
 Frequencies --   3129.0165              3131.2096              3131.6724
 Red. masses --      1.1006                 1.1024                 1.1027
 Frc consts  --      6.3486                 6.3681                 6.3718
 IR Inten    --     34.5485                 3.9784                 6.7123

                     94                     95                     96
                      A                      A                      A
 Frequencies --   3136.6086              3141.5740              3142.3666
 Red. masses --      1.0537                 1.1032                 1.1027
 Frc consts  --      6.1079                 6.4153                 6.4152
 IR Inten    --     14.1226                26.4483                52.4948

                     97                     98                     99
                      A                      A                      A
 Frequencies --   3156.9124              3159.5308              3160.9082
 Red. masses --      1.0563                 1.0995                 1.0992
 Frc consts  --      6.2022                 6.4668                 6.4706
 IR Inten    --     21.9213                 1.4575                51.5473

                    100                    101                    102
                      A                      A                      A
 Frequencies --   3210.9210              3215.4341              3217.2163
 Red. masses --      1.0880                 1.1062                 1.1008
 Frc consts  --      6.6092                 6.7387                 6.7131
 IR Inten    --      5.4083                11.0338                 1.5451

                    103                    104                    105
                      A                      A                      A
 Frequencies --   3226.9909              3244.7302              3268.0217
 Red. masses --      1.0941                 1.1161                 1.0901
 Frc consts  --      6.7126                 6.9234                 6.8596
 IR Inten    --      5.8560                 6.8098                14.1241

 - Thermochemistry -
 -------------------
 Temperature   298.150 Kelvin.  Pressure   1.00000 Atm.
 Atom     1 has atomic number  6 and mass  12.00000

 Molecular mass:   232.14633 amu.
 Principal axes and moments of inertia in atomic units:
                           1         2         3
     Eigenvalues --  1504.799668927.559379574.72263
           X            0.99999   0.00409   0.00250
           Y           -0.00411   0.99998   0.00550
           Z           -0.00248  -0.00551   0.99998
 This molecule is an asymmetric top.
 Rotational symmetry number  1.
 Warning -- assumption of classical behavior for rotation
           may cause significant error
 Rotational temperatures (Kelvin)      0.05756     0.00970     0.00905
 Rotational constants (GHZ):           1.19932     0.20215     0.18849
 Zero-point vibrational energy     836339.5 (Joules/Mol)
                                  199.88993 (Kcal/Mol)
 Warning -- explicit consideration of  27 degrees of freedom as
           vibrations may cause significant error
 Vibrational temperatures:     27.62    46.09    83.91   121.28   129.69
          (Kelvin)            160.39   232.88   242.62   278.42   301.57
                              314.08   330.94   383.90   390.91   437.45
                              445.71   459.90   497.97   516.95   574.47
                              604.86   627.32   659.34   700.12   747.14
                              771.96   857.37   921.00   990.25  1021.85
                             1073.92  1112.97  1153.13  1177.79  1202.43
                             1220.82  1245.76  1280.76  1337.70  1339.73
                             1365.56  1379.93  1389.76  1391.01  1412.23
                             1422.95  1453.28  1493.63  1510.38  1528.10
                             1534.74  1551.26  1556.99  1641.54  1652.85
                             1731.50  1733.45  1768.98  1803.35  1839.95
                             1847.92  1875.59  1892.84  1931.80  1964.21
                             1978.06  2057.82  2060.15  2078.39  2096.46
                             2115.23  2149.35  2162.21  2181.12  2183.74
                             2186.22  2200.98  2201.83  2202.65  2213.92
                             2226.73  2241.73  2328.45  2395.42  2524.85
                             4387.87  4406.25  4412.06  4421.36  4476.45
                             4501.96  4505.11  4505.78  4512.88  4520.02
                             4521.16  4542.09  4545.86  4547.84  4619.80
                             4626.29  4628.86  4642.92  4668.44  4701.95

 Zero-point correction=                           0.318545 (Hartree/Particle)
 Thermal correction to Energy=                    0.336160
 Thermal correction to Enthalpy=                  0.337105
 Thermal correction to Gibbs Free Energy=         0.272436
 Sum of electronic and zero-point Energies=           -733.814524
 Sum of electronic and thermal Energies=              -733.796908
 Sum of electronic and thermal Enthalpies=            -733.795964
 Sum of electronic and thermal Free Energies=         -733.860633

                     E (Thermal)             CV                S
                      KCal/Mol        Cal/Mol-Kelvin    Cal/Mol-Kelvin
 Total                  210.944             67.435            136.107
 Electronic               0.000              0.000              0.000
 Translational            0.889              2.981             42.228
 Rotational               0.889              2.981             33.219
 Vibrational            209.166             61.473             60.659
 Vibration     1          0.593              1.986              6.716
 Vibration     2          0.594              1.983              5.699
 Vibration     3          0.596              1.974              4.513
 Vibration     4          0.601              1.960              3.788
 Vibration     5          0.602              1.956              3.657
 Vibration     6          0.607              1.940              3.243
 Vibration     7          0.622              1.889              2.528
 Vibration     8          0.625              1.881              2.451
 Vibration     9          0.635              1.849              2.194
 Vibration    10          0.642              1.826              2.047
 Vibration    11          0.646              1.813              1.973
 Vibration    12          0.652              1.795              1.879
 Vibration    13          0.672              1.734              1.617
 Vibration    14          0.675              1.725              1.585
 Vibration    15          0.695              1.666              1.395
 Vibration    16          0.699              1.655              1.363
 Vibration    17          0.706              1.636              1.312
 Vibration    18          0.724              1.583              1.184
 Vibration    19          0.734              1.556              1.125
 Vibration    20          0.765              1.472              0.965
 Vibration    21          0.783              1.426              0.891
 Vibration    22          0.796              1.392              0.839
 Vibration    23          0.816              1.343              0.771
 Vibration    24          0.843              1.280              0.692
 Vibration    25          0.874              1.207              0.612
 Vibration    26          0.892              1.169              0.573
 Vibration    27          0.954              1.041              0.457

 Optimization completed.
    -- Stationary point found.
 Normal termination of Gaussian 16 at Fri Dec 11 12:15:12 2020.

 ----------------------------------------------------------------------
 # B3LYP/6-311++G(d,p) empiricaldispersion=gd3bj scf=xqc pop=npa geom=c
 heck
 ----------------------------------------------------------------------

 --------------------------------------
 CID_82289715_JID_7108_Energie_neutraal
 --------------------------------------
 Structure from the checkpoint file:  "JID_7108.chk"
 Charge =  0 Multiplicity = 1

 SCF Done:  E(RB3LYP) =  -734.332156625     A.U. after   15 cycles
 Normal termination of Gaussian 16 at Fri Dec 11 12:20:41 2020.

 ----------------------------------------------------------------------
 # B3LYP/6-311++G(d,p) empiricaldispersion=gd3bj scf=xqc pop=npa geom=c
 heck
 ----------------------------------------------------------------------

 ------------------------------------
 CID_82289715_JID_7108_Energie_kation
 ------------------------------------
 Structure from the checkpoint file:  "JID_7108.chk"
 Charge =  1 Multiplicity = 2

 SCF Done:  E(UB3LYP) =  -734.036576609     A.U. after   27 cycles
 Normal termination of Gaussian 16 at Fri Dec 11 12:34:12 2020.
 Gaussian 16:  ES64L-G16RevA.03 25-Dec-2016

 ----------------------------------------------------------------------
 # B3LYP/6-311++G(d,p) empiricaldispersion=gd3bj scf=xqc pop=npa geom=c
 heck
 ----------------------------------------------------------------------

 -----------------------------------
 CID_82289715_JID_7108_Energie_anion
 -----------------------------------
 Structure from the checkpoint file:  "JID_7108.chk"
 Charge = -1 Multiplicity = 2

                         Standard orientation:
 ---------------------------------------------------------------------
 Center     Atomic      Atomic             Coordinates (Angstroms)
 Number     Number       Type             X           Y           Z
 ---------------------------------------------------------------------
      1          6           0       -3.375188   -1.232720   -1.498662
      2          6           0       -3.578542   -0.511957   -0.174849
      3          6           0       -4.948929   -0.521491    0.439984
      4          6           0       -3.845848   -1.323705    1.082705
      5          6           0       -2.772930    0.760255    0.014707
      6          8           0       -3.325831    1.838243    0.193157
      7          6           0       -1.288011    0.667334   -0.018084
      8          6           0       -0.539036    1.847614   -0.172128
      9          6           0        0.842475    1.814770   -0.187736
     10          6           0        1.535023    0.598024   -0.030188
     11          6           0        0.798102   -0.583231    0.145194
     12          6           0       -0.594656   -0.537075    0.144515
     13          8           0        2.884626    0.727929   -0.062289
     14          6           0        3.850553   -0.354999    0.042034
     15          6           0        3.777531   -1.026251    1.418714
     16          6           0        3.698888   -1.342763   -1.120602
     17          6           0        5.182029    0.390805   -0.091515
     18          1           0       -3.681499   -0.592885   -2.334560
     19          1           0       -3.987609   -2.140658   -1.531683
     20          1           0       -2.332618   -1.520252   -1.663602
     21          1           0       -5.270839    0.392140    0.928383
     22          1           0       -5.731936   -1.058932   -0.087601
     23          1           0       -3.859417   -2.407105    0.987298
     24          1           0       -3.433593   -0.962649    2.021349
     25          1           0       -1.073721    2.785418   -0.279960
     26          1           0        1.428521    2.718791   -0.317302
     27          1           0        1.286310   -1.535680    0.287707
     28          1           0       -1.145008   -1.458625    0.300170
     29          1           0        2.858353   -1.594543    1.571061
     30          1           0        4.620418   -1.715785    1.534303
     31          1           0        3.843572   -0.267969    2.205026
     32          1           0        3.720257   -0.802456   -2.072101
     33          1           0        4.533709   -2.051381   -1.108861
     34          1           0        2.772078   -1.917294   -1.076782
     35          1           0        5.230112    0.911847   -1.052351
     36          1           0        5.283615    1.131313    0.707463
     37          1           0        6.020179   -0.310328   -0.029442
 ---------------------------------------------------------------------

 SCF Done:  E(UB3LYP) =  -734.331979467     A.U. after   33 cycles
 SCF Done:  E(UB3LYP) =  -734.331979467     a.u. after    1 cycles

 The electronic state is 2-A.
 Alpha  occ. eigenvalues --  -19.02971 -18.94366 -10.14299 -10.10327 -10.08874
 Alpha  occ. eigenvalues --  -10.07056 -10.06747 -10.06713 -10.06630 -10.06441
 Alpha  occ. eigenvalues --  -10.06059 -10.06050 -10.04882 -10.04606 -10.04348
 Alpha  occ. eigenvalues --  -10.04058 -10.03312  -0.94748  -0.88326  -0.75498
 Alpha  occ. eigenvalues --   -0.73350  -0.70620  -0.62609  -0.62451  -0.60702
 Alpha  occ. eigenvalues --   -0.60210  -0.59609  -0.53199  -0.49732  -0.49160
 Alpha  occ. eigenvalues --   -0.48684  -0.44757  -0.41498  -0.40211  -0.38535
 Alpha  occ. eigenvalues --   -0.36627  -0.36474  -0.35752  -0.33953  -0.32079
 Alpha  occ. eigenvalues --   -0.31608  -0.31542  -0.31420  -0.30450  -0.29651
 Alpha  occ. eigenvalues --   -0.29415  -0.29038  -0.27867  -0.27593  -0.26712
 Alpha  occ. eigenvalues --   -0.26383  -0.25746  -0.25443  -0.24719  -0.23985
 Alpha  occ. eigenvalues --   -0.22083  -0.20351  -0.19701  -0.18737  -0.17073
 Alpha  occ. eigenvalues --   -0.13447  -0.10660  -0.10139   0.04305
 Alpha virt. eigenvalues --    0.05730   0.07496   0.08227   0.08557   0.08805
 Alpha virt. eigenvalues --    0.09576   0.09890   0.10598   0.10750   0.11020
 Alpha virt. eigenvalues --    0.11263   0.11450   0.12181   0.12459   0.12925

  Beta  occ. eigenvalues --  -19.02904 -18.93954 -10.14300 -10.10059 -10.08572
  Beta  occ. eigenvalues --  -10.07080 -10.06732 -10.06686 -10.06611 -10.06413
  Beta  occ. eigenvalues --  -10.06051 -10.06041 -10.04956 -10.04460 -10.04418
  Beta  occ. eigenvalues --  -10.03934 -10.03275  -0.94576  -0.87567  -0.75425
  Beta  occ. eigenvalues --   -0.73178  -0.70526  -0.62371  -0.62265  -0.60621
  Beta  occ. eigenvalues --   -0.60166  -0.59534  -0.52792  -0.49673  -0.48943
  Beta  occ. eigenvalues --   -0.48547  -0.44575  -0.41325  -0.40139  -0.38444
  Beta  occ. eigenvalues --   -0.36541  -0.36368  -0.35636  -0.33844  -0.31960
  Beta  occ. eigenvalues --   -0.31489  -0.31376  -0.31195  -0.30360  -0.29552
  Beta  occ. eigenvalues --   -0.29363  -0.28931  -0.27783  -0.27347  -0.26643
  Beta  occ. eigenvalues --   -0.26201  -0.25439  -0.24971  -0.24596  -0.22879
  Beta  occ. eigenvalues --   -0.22003  -0.20272  -0.19127  -0.18321  -0.16851
  Beta  occ. eigenvalues --   -0.13014  -0.10238  -0.09269
  Beta virt. eigenvalues --    0.06463   0.07456   0.08471   0.08669   0.09071
  Beta virt. eigenvalues --    0.09366   0.09723   0.09853   0.10675   0.10826
  Beta virt. eigenvalues --    0.10990   0.11198   0.11614   0.12402   0.12604

 Mulliken charges and spin densities:
               1          2
     1  C   -0.607463  -0.050790
     2  C    1.119978   0.038356
     3  C   -0.343082   0.000538
     4  C   -0.420082   0.023141
     5  C   -0.912702   0.029500
     6  O   -0.327680   0.145978
     7  C    0.746727  -0.043628
     8  C   -0.008403   0.149089
     9  C   -0.086802  -0.114410
    10  C   -0.087410  -0.013048
    11  C   -0.324710  -0.019120
    12  C   -0.526660   0.018331
    13  O   -0.002485   0.005446
    14  C   -0.853213   0.891101
    15  C    0.489217  -0.957581
    16  C    0.125836  -0.570780
    17  C   -0.197963  -0.233986
    18  H    0.146453   0.008857
    19  H    0.082051   0.025130
    20  H    0.135060  -0.008440
    21  H    0.187218   0.000145
    22  H    0.116917  -0.000179
    23  H    0.118802   0.000633
    24  H    0.162875  -0.000124
    25  H    0.186298  -0.009395
    26  H    0.132206   0.003199
    27  H    0.134269  -0.024754
    28  H    0.163346   0.022759
    29  H   -0.117120   0.243907
    30  H   -0.346300   0.511382
    31  H    0.122865   0.037410
    32  H    0.165017  -0.011036
    33  H   -0.166926   0.327051
    34  H    0.039376   0.094814
    35  H    0.068500   0.077219
    36  H    0.031032   0.116889
    37  H   -0.145044   0.286397
 Sum of Mulliken charges =  -1.00000   1.00000

 Dipole moment (field-independent basis, Debye):
    X=             -1.2265    Y=             -2.1770    Z=             -1.5806  Tot=              2.9567
 Quadrupole moment (field-independent basis, Debye-Ang):
   XX=           -191.8869   YY=           -130.9631   ZZ=           -121.0227
   XY=             22.4863   XZ=             -2.8598   YZ=              1.6290

 Summary of Natural Population Analysis:

                                       Natural Population
                Natural  -----------------------------------------------
    Atom  No    Charge         Core      Valence    Rydberg      Total
 -----------------------------------------------------------------------
      C    1   -0.27542      0.99963     2.27143    0.00437     3.27542
      C    2   -0.08081      0.99953     2.06877    0.01251     3.08081
      C    3   -0.19383      0.99960     2.18601    0.00822     3.19383
      C    4   -0.19016      0.99961     2.18477    0.00578     3.19016
      C    5    0.31233      0.99955     1.66633    0.02179     2.68767
      O    6   -0.26410      0.99988     3.25840    0.00581     4.26410
      C    7   -0.08157      0.99947     2.06964    0.01246     3.08157
      C    8   -0.04717      0.99954     2.03951    0.00812     3.04717
      C    9   -0.14334      0.99954     2.13504    0.00876     3.14334
      C   10    0.20841      0.99939     1.77825    0.01395     2.79159
      C   11   -0.17130      0.99953     2.16403    0.00774     3.17130
      C   12   -0.05400      0.99955     2.04560    0.00885     3.05400
      O   13   -0.28748      0.99984     3.27643    0.01121     4.28748
      C   14    0.13385      0.99954     1.85292    0.01369     2.86615
      C   15   -0.29817      0.99960     2.29207    0.00649     3.29817
      C   16   -0.29780      0.99961     2.29204    0.00615     3.29780
      C   17   -0.28585      0.99961     2.27897    0.00727     3.28585
      H   18    0.09923      0.00000     0.39993    0.00083     0.40077
      H   19    0.09142      0.00000     0.40766    0.00092     0.40858
      H   20    0.10417      0.00000     0.39498    0.00084     0.39583
      H   21    0.11214      0.00000     0.38675    0.00112     0.38786
      H   22    0.09309      0.00000     0.40595    0.00096     0.40691
      H   23    0.09365      0.00000     0.40520    0.00115     0.40635
      H   24    0.10376      0.00000     0.39530    0.00095     0.39624
      H   25    0.10586      0.00000     0.39306    0.00108     0.39414
      H   26    0.09982      0.00000     0.39919    0.00099     0.40018
      H   27    0.09589      0.00000     0.40258    0.00153     0.40411
      H   28    0.09523      0.00000     0.40298    0.00179     0.40477
      H   29    0.10383      0.00000     0.39504    0.00113     0.39617
      H   30    0.10259      0.00000     0.39610    0.00132     0.39741
      H   31    0.10393      0.00000     0.39529    0.00079     0.39607
      H   32    0.10291      0.00000     0.39637    0.00072     0.39709
      H   33    0.10151      0.00000     0.39763    0.00086     0.39849
      H   34    0.10383      0.00000     0.39522    0.00095     0.39617
      H   35    0.10148      0.00000     0.39761    0.00091     0.39852
      H   36    0.10270      0.00000     0.39636    0.00095     0.39730
      H   37    0.09939      0.00000     0.39968    0.00093     0.40061
 =======================================================================
   * Total *   -0.00000     16.99300    45.82311    0.18388    63.00000

 Normal termination of Gaussian 16 at Fri Dec 11 12:53:48 2020.
