 Gaussian 16, Revision A.03,

 -----------------------------------------------------------
 # opt freq B3LYP/6-31G(d) empiricaldispersion=gd3bj scf=xqc
 -----------------------------------------------------------

 -------------------------------
 CID_148300338_JID_5145_neutraal
 -------------------------------
 Symbolic Z-matrix:
 Charge =  0 Multiplicity = 1

 SCF Done:  E(RB3LYP) =  -1691.14528406     A.U. after   16 cycles
 SCF Done:  E(RB3LYP) =  -1691.17152553     A.U. after   14 cycles
 SCF Done:  E(RB3LYP) =  -1691.16177240     A.U. after   15 cycles
 SCF Done:  E(RB3LYP) =  -1691.17181307     A.U. after   14 cycles
 SCF Done:  E(RB3LYP) =  -1691.17416866     A.U. after   12 cycles
 SCF Done:  E(RB3LYP) =  -1691.17173365     A.U. after   15 cycles
 SCF Done:  E(RB3LYP) =  -1691.17669780     A.U. after   13 cycles
 SCF Done:  E(RB3LYP) =  -1691.17716732     A.U. after   12 cycles
 SCF Done:  E(RB3LYP) =  -1691.17750612     A.U. after   12 cycles
 SCF Done:  E(RB3LYP) =  -1691.17757186     A.U. after   13 cycles
 SCF Done:  E(RB3LYP) =  -1691.17827113     A.U. after   10 cycles
 SCF Done:  E(RB3LYP) =  -1691.17828637     A.U. after   11 cycles
 SCF Done:  E(RB3LYP) =  -1691.17829135     A.U. after   11 cycles
 SCF Done:  E(RB3LYP) =  -1691.17829107     A.U. after   11 cycles
 SCF Done:  E(RB3LYP) =  -1691.17829262     A.U. after   11 cycles
 SCF Done:  E(RB3LYP) =  -1691.17829290     A.U. after    9 cycles
 Optimization completed.
    -- Stationary point found.
 Normal termination of Gaussian 16 at Thu Dec 10 14:52:38 2020.

 --------------------------------------------------------------------
 #N Geom=AllCheck Guess=TCheck SCRF=Check GenChk RB3LYP/6-31G(d) Freq
 --------------------------------------------------------------------

 Structure from the checkpoint file:  "JID_5145.chk"
 -------------------------------
 CID_148300338_JID_5145_neutraal
 -------------------------------
 Charge =  0 Multiplicity = 1

 SCF Done:  E(RB3LYP) =  -1691.17829290     A.U. after    1 cycles

  Exact polarizability: 209.496   3.048 167.750   7.155 -12.908 105.964
 Approx polarizability: 292.391   0.702 314.361  15.056 -38.453 167.424

                      1                      2                      3
                      A                      A                      A
 Frequencies --     22.6484                29.6909                57.4363
 Red. masses --      5.8779                 7.6061                 7.0110
 Frc consts  --      0.0018                 0.0040                 0.0136
 IR Inten    --      1.2049                 0.4793                 0.8996

                      4                      5                      6
                      A                      A                      A
 Frequencies --     62.2573                70.2875                96.1955
 Red. masses --      7.6866                 8.0118                 4.3458
 Frc consts  --      0.0176                 0.0233                 0.0237
 IR Inten    --      3.8427                 2.4737                 1.7241

                      7                      8                      9
                      A                      A                      A
 Frequencies --    126.6406               141.2307               165.0191
 Red. masses --      6.6851                 7.5029                 4.5867
 Frc consts  --      0.0632                 0.0882                 0.0736
 IR Inten    --      3.9224                 5.7350                 3.0822

                     10                     11                     12
                      A                      A                      A
 Frequencies --    183.8938               196.4371               217.4116
 Red. masses --      1.5190                 2.3468                 7.3664
 Frc consts  --      0.0303                 0.0534                 0.2051
 IR Inten    --      5.0623                 1.6958                 4.7738

                     13                     14                     15
                      A                      A                      A
 Frequencies --    226.7209               255.9998               292.4067
 Red. masses --      6.7012                 4.0217                 3.3165
 Frc consts  --      0.2029                 0.1553                 0.1671
 IR Inten    --      0.6793                 1.4230                 3.7497

                     16                     17                     18
                      A                      A                      A
 Frequencies --    349.8964               384.4861               424.8285
 Red. masses --      5.7520                 2.8473                 6.8884
 Frc consts  --      0.4149                 0.2480                 0.7325
 IR Inten    --      2.5262                 0.2706                 1.0803

                     19                     20                     21
                      A                      A                      A
 Frequencies --    435.0271               490.8832               503.5204
 Red. masses --      5.0894                10.4491                18.3888
 Frc consts  --      0.5675                 1.4835                 2.7469
 IR Inten    --      1.5833                 2.1381                 0.7891

                     22                     23                     24
                      A                      A                      A
 Frequencies --    520.3984               570.4992               595.6673
 Red. masses --     10.5571                 6.8811                 5.3578
 Frc consts  --      1.6845                 1.3195                 1.1201
 IR Inten    --      0.7220                 3.6136                 2.3404

                     25                     26                     27
                      A                      A                      A
 Frequencies --    630.7700               681.6029               684.8133
 Red. masses --      3.7648                 2.8530                 5.7462
 Frc consts  --      0.8825                 0.7809                 1.5877
 IR Inten    --      6.7448                 5.0529                 2.4637

                     28                     29                     30
                      A                      A                      A
 Frequencies --    728.5805               758.4042               786.3616
 Red. masses --      5.4216                 2.7539                 1.7300
 Frc consts  --      1.6956                 0.9332                 0.6303
 IR Inten    --      3.4875                16.3173                 8.4209

                     31                     32                     33
                      A                      A                      A
 Frequencies --    826.8387               882.5793               886.5423
 Red. masses --      4.4991                 3.4124                 1.4569
 Frc consts  --      1.8123                 1.5661                 0.6746
 IR Inten    --      3.5990                13.6533                16.4598

                     34                     35                     36
                      A                      A                      A
 Frequencies --    901.3328               928.5215               980.8150
 Red. masses --      2.2150                 2.5683                 2.8471
 Frc consts  --      1.0602                 1.3046                 1.6137
 IR Inten    --      0.9950                14.1115                 1.5706

                     37                     38                     39
                      A                      A                      A
 Frequencies --    994.9790               999.0640              1037.5226
 Red. masses --      1.2337                 1.2273                 2.1523
 Frc consts  --      0.7196                 0.7217                 1.3650
 IR Inten    --      6.7904                 7.3171                 0.7522

                     40                     41                     42
                      A                      A                      A
 Frequencies --   1091.6331              1142.7169              1177.8751
 Red. masses --      3.0376                 3.7897                 1.1727
 Frc consts  --      2.1327                 2.9156                 0.9586
 IR Inten    --      1.9290                21.9478                 1.4840

                     43                     44                     45
                      A                      A                      A
 Frequencies --   1198.8038              1233.2100              1272.8631
 Red. masses --      1.6736                 1.3495                 1.1576
 Frc consts  --      1.4171                 1.2092                 1.1050
 IR Inten    --      3.0314                15.9936                17.4719

                     46                     47                     48
                      A                      A                      A
 Frequencies --   1277.9896              1323.9817              1370.3729
 Red. masses --      1.2484                 1.4463                 1.6034
 Frc consts  --      1.2014                 1.4938                 1.7741
 IR Inten    --      3.9279                 3.9206                 1.7005

                     49                     50                     51
                      A                      A                      A
 Frequencies --   1388.2218              1389.4774              1428.7665
 Red. masses --      1.1529                 1.3416                 2.7938
 Frc consts  --      1.3091                 1.5261                 3.3602
 IR Inten    --      1.9309                 2.1502                 3.4907

                     52                     53                     54
                      A                      A                      A
 Frequencies --   1486.8422              1487.8935              1491.0516
 Red. masses --      4.7166                 1.1281                 1.0772
 Frc consts  --      6.1435                 1.4714                 1.4110
 IR Inten    --     10.9226                17.7509                 9.5881

                     55                     56                     57
                      A                      A                      A
 Frequencies --   1507.6035              1512.4514              1599.4189
 Red. masses --      1.0911                 1.0555                 5.7906
 Frc consts  --      1.4611                 1.4225                 8.7277
 IR Inten    --     14.9056                12.1996                 0.2356

                     58                     59                     60
                      A                      A                      A
 Frequencies --   2344.7726              2365.2938              3061.9292
 Red. masses --     12.6637                12.5954                 1.0830
 Frc consts  --     41.0215                41.5174                 5.9823
 IR Inten    --     38.6970                 5.8899                 9.2612

                     61                     62                     63
                      A                      A                      A
 Frequencies --   3069.4766              3080.1666              3096.3943
 Red. masses --      1.0304                 1.0603                 1.0577
 Frc consts  --      5.7201                 5.9272                 5.9747
 IR Inten    --     14.2213                 4.3077                10.3948

                     64                     65                     66
                      A                      A                      A
 Frequencies --   3123.1216              3153.2243              3156.5951
 Red. masses --      1.1042                 1.1090                 1.1033
 Frc consts  --      6.3458                 6.4968                 6.4772
 IR Inten    --      2.6955                 4.3459                 3.2212

                     67                     68                     69
                      A                      A                      A
 Frequencies --   3179.2520              3251.9048              3260.9281
 Red. masses --      1.1086                 1.0940                 1.0938
 Frc consts  --      6.6019                 6.8159                 6.8526
 IR Inten    --      2.6298                 1.7080                 1.0758

 - Thermochemistry -
 -------------------
 Temperature   298.150 Kelvin.  Pressure   1.00000 Atm.
 Atom     1 has atomic number  6 and mass  12.00000

 Molecular mass:   254.00061 amu.
 Principal axes and moments of inertia in atomic units:
                           1         2         3
     Eigenvalues --  2277.548958836.221419518.44062
           X            0.99991   0.01334   0.00125
           Y           -0.01331   0.99962  -0.02408
           Z           -0.00157   0.02406   0.99971
 This molecule is an asymmetric top.
 Rotational symmetry number  1.
 Warning -- assumption of classical behavior for rotation
           may cause significant error
 Rotational temperatures (Kelvin)      0.03803     0.00980     0.00910
 Rotational constants (GHZ):           0.79241     0.20424     0.18960
 Zero-point vibrational energy     476427.4 (Joules/Mol)
                                  113.86888 (Kcal/Mol)
 Warning -- explicit consideration of  24 degrees of freedom as
           vibrations may cause significant error
 Vibrational temperatures:     32.59    42.72    82.64    89.57   101.13
          (Kelvin)            138.40   182.21   203.20   237.43   264.58
                              282.63   312.81   326.20   368.33   420.71
                              503.42   553.19   611.23   625.91   706.27
                              724.45   748.74   820.82   857.03   907.54
                              980.67   985.29  1048.26  1091.17  1131.40
                             1189.64  1269.83  1275.54  1296.82  1335.94
                             1411.17  1431.55  1437.43  1492.76  1570.62
                             1644.11  1694.70  1724.81  1774.31  1831.37
                             1838.74  1904.91  1971.66  1997.34  1999.15
                             2055.68  2139.23  2140.75  2145.29  2169.11
                             2176.08  2301.21  3373.60  3403.13  4405.43
                             4416.29  4431.67  4455.02  4493.48  4536.79
                             4541.64  4574.23  4678.77  4691.75

 Zero-point correction=                           0.181462 (Hartree/Particle)
 Thermal correction to Energy=                    0.197838
 Thermal correction to Enthalpy=                  0.198782
 Thermal correction to Gibbs Free Energy=         0.134689
 Sum of electronic and zero-point Energies=          -1690.996831
 Sum of electronic and thermal Energies=             -1690.980455
 Sum of electronic and thermal Enthalpies=           -1690.979511
 Sum of electronic and thermal Free Energies=        -1691.043604

                     E (Thermal)             CV                S
                      KCal/Mol        Cal/Mol-Kelvin    Cal/Mol-Kelvin
 Total                  124.145             57.467            134.896
 Electronic               0.000              0.000              0.000
 Translational            0.889              2.981             42.497
 Rotational               0.889              2.981             33.615
 Vibrational            122.368             51.505             58.785
 Vibration     1          0.593              1.985              6.387
 Vibration     2          0.593              1.984              5.850
 Vibration     3          0.596              1.975              4.543
 Vibration     4          0.597              1.972              4.384
 Vibration     5          0.598              1.968              4.145
 Vibration     6          0.603              1.952              3.530
 Vibration     7          0.611              1.926              2.996
 Vibration     8          0.615              1.912              2.787
 Vibration     9          0.623              1.885              2.491
 Vibration    10          0.631              1.862              2.289
 Vibration    11          0.636              1.845              2.166
 Vibration    12          0.646              1.815              1.981
 Vibration    13          0.650              1.800              1.905
 Vibration    14          0.666              1.753              1.689
 Vibration    15          0.688              1.688              1.460
 Vibration    16          0.727              1.575              1.167
 Vibration    17          0.753              1.503              1.021
 Vibration    18          0.787              1.416              0.876
 Vibration    19          0.796              1.394              0.842
 Vibration    20          0.847              1.270              0.681
 Vibration    21          0.859              1.242              0.649
 Vibration    22          0.875              1.205              0.609
 Vibration    23          0.927              1.095              0.503
 Vibration    24          0.953              1.041              0.457

 Optimization completed.
    -- Stationary point found.
 Normal termination of Gaussian 16 at Thu Dec 10 14:59:33 2020.

 ----------------------------------------------------------------------
 # B3LYP/6-311++G(d,p) empiricaldispersion=gd3bj scf=xqc pop=npa geom=c
 heck
 ----------------------------------------------------------------------

 ---------------------------------------
 CID_148300338_JID_5145_Energie_neutraal
 ---------------------------------------
 Structure from the checkpoint file:  "JID_5145.chk"
 Charge =  0 Multiplicity = 1

 SCF Done:  E(RB3LYP) =  -1691.39137939     A.U. after   16 cycles
 Normal termination of Gaussian 16 at Thu Dec 10 15:02:31 2020.

 ----------------------------------------------------------------------
 # B3LYP/6-311++G(d,p) empiricaldispersion=gd3bj scf=xqc pop=npa geom=c
 heck
 ----------------------------------------------------------------------

 -------------------------------------
 CID_148300338_JID_5145_Energie_kation
 -------------------------------------
 Structure from the checkpoint file:  "JID_5145.chk"
 Charge =  1 Multiplicity = 2

 SCF Done:  E(UB3LYP) =  -1691.07506211     A.U. after   31 cycles
 Normal termination of Gaussian 16 at Thu Dec 10 15:10:49 2020.
 Gaussian 16:  ES64L-G16RevA.03 25-Dec-2016

 ----------------------------------------------------------------------
 # B3LYP/6-311++G(d,p) empiricaldispersion=gd3bj scf=xqc pop=npa geom=c
 heck
 ----------------------------------------------------------------------

 ------------------------------------
 CID_148300338_JID_5145_Energie_anion
 ------------------------------------
 Structure from the checkpoint file:  "JID_5145.chk"
 Charge = -1 Multiplicity = 2

                         Standard orientation:
 ---------------------------------------------------------------------
 Center     Atomic      Atomic             Coordinates (Angstroms)
 Number     Number       Type             X           Y           Z
 ---------------------------------------------------------------------
      1          6           0        4.133386    1.527251   -0.027191
      2         16           0        3.947369    0.182778   -1.261903
      3         16           0        2.832731   -1.236638   -0.232644
      4          6           0        1.086616   -0.709187   -0.552442
      5          6           0        0.175232   -1.054911    0.638183
      6          6           0        0.606204   -0.334040    1.946959
      7          6           0        0.746321    1.111081    1.770268
      8          7           0        0.872565    2.247296    1.567752
      9          6           0       -1.269287   -0.781620    0.285300
     10          6           0       -2.237325   -1.756546    0.264059
     11         16           0       -3.792672   -1.158553   -0.189000
     12          6           0       -3.143300    0.457654   -0.360945
     13          6           0       -1.796209    0.495775   -0.078513
     14          6           0       -3.972288    1.537153   -0.749136
     15          7           0       -4.662907    2.417975   -1.070043
     16          1           0        4.741034    2.296577   -0.514543
     17          1           0        4.654732    1.162217    0.859980
     18          1           0        3.166283    1.951386    0.248884
     19          1           0        1.089594    0.367919   -0.735691
     20          1           0        0.722091   -1.209554   -1.452370
     21          1           0        0.267342   -2.127274    0.847392
     22          1           0       -0.126187   -0.532752    2.736092
     23          1           0        1.574147   -0.725660    2.275861
     24          1           0       -2.112750   -2.807415    0.490900
     25          1           0       -1.218839    1.410603   -0.122977
 ---------------------------------------------------------------------

 SCF Done:  E(UB3LYP) =  -1691.41407477     A.U. after   27 cycles

 The electronic state is 2-A.
 Alpha  occ. eigenvalues --  -88.76142 -88.75818 -88.74425 -14.22034 -14.16716
 Alpha  occ. eigenvalues --  -10.12299 -10.12202 -10.10778 -10.10463 -10.10379
 Alpha  occ. eigenvalues --  -10.07886 -10.07182 -10.06380 -10.06156 -10.04975
 Alpha  occ. eigenvalues --   -7.84651  -7.84365  -7.83085  -5.81115  -5.80824
 Alpha  occ. eigenvalues --   -5.80688  -5.80372  -5.79969  -5.79695  -5.79398
 Alpha  occ. eigenvalues --   -5.79028  -5.78683  -0.82005  -0.77566  -0.76054
 Alpha  occ. eigenvalues --   -0.73661  -0.70988  -0.65538  -0.63308  -0.61699
 Alpha  occ. eigenvalues --   -0.58795  -0.53430  -0.49708  -0.48069  -0.43759
 Alpha  occ. eigenvalues --   -0.41754  -0.39894  -0.37748  -0.36179  -0.35018
 Alpha  occ. eigenvalues --   -0.34065  -0.31827  -0.30915  -0.30386  -0.29468
 Alpha  occ. eigenvalues --   -0.28072  -0.27885  -0.27295  -0.26576  -0.25468
 Alpha  occ. eigenvalues --   -0.24026  -0.23546  -0.23181  -0.22319  -0.22286
 Alpha  occ. eigenvalues --   -0.21532  -0.19561  -0.14982  -0.14235  -0.13455
 Alpha  occ. eigenvalues --   -0.11931   0.03120
 Alpha virt. eigenvalues --    0.05354   0.06980   0.07821   0.08841   0.09660
 Alpha virt. eigenvalues --    0.09869   0.10106   0.10857   0.11163   0.11647
 Alpha virt. eigenvalues --    0.11969   0.12751   0.12789   0.13299   0.13602

  Beta  occ. eigenvalues --  -88.76084 -88.75765 -88.74348 -14.22012 -14.16469
  Beta  occ. eigenvalues --  -10.12297 -10.12204 -10.10765 -10.10467 -10.10381
  Beta  occ. eigenvalues --  -10.07613 -10.07183 -10.06446 -10.05741 -10.04817
  Beta  occ. eigenvalues --   -7.84592  -7.84305  -7.83016  -5.80995  -5.80744
  Beta  occ. eigenvalues --   -5.80621  -5.80303  -5.79929  -5.79651  -5.79366
  Beta  occ. eigenvalues --   -5.78997  -5.78424  -0.81973  -0.77193  -0.75792
  Beta  occ. eigenvalues --   -0.73430  -0.70786  -0.65472  -0.63029  -0.61096
  Beta  occ. eigenvalues --   -0.58568  -0.53211  -0.49359  -0.47574  -0.43568
  Beta  occ. eigenvalues --   -0.41580  -0.39790  -0.37692  -0.36032  -0.34901
  Beta  occ. eigenvalues --   -0.34041  -0.31693  -0.30781  -0.30275  -0.29298
  Beta  occ. eigenvalues --   -0.27986  -0.27713  -0.26756  -0.25901  -0.25325
  Beta  occ. eigenvalues --   -0.23954  -0.23368  -0.22814  -0.22031  -0.21992
  Beta  occ. eigenvalues --   -0.20413  -0.19403  -0.14756  -0.14065  -0.12345
  Beta  occ. eigenvalues --   -0.09995
  Beta virt. eigenvalues --    0.06089   0.06922   0.07841   0.08645   0.08884
  Beta virt. eigenvalues --    0.09661   0.09911   0.10089   0.10942   0.11171
  Beta virt. eigenvalues --    0.11781   0.11997   0.12776   0.12801   0.13325

 Mulliken charges and spin densities:
               1          2
     1  C   -0.619958  -0.001653
     2  S    0.104326   0.111467
     3  S   -0.157619   0.015496
     4  C   -0.618423  -0.007976
     5  C    0.507075  -0.162158
     6  C   -0.556132   0.140943
     7  C    0.062100  -0.095758
     8  N   -0.329005   0.019231
     9  C   -0.346588  -0.055282
    10  C    0.753678   0.240268
    11  S   -0.633962   0.133857
    12  C    1.110529   0.162870
    13  C   -0.329797   0.200817
    14  C   -1.112030  -0.025783
    15  N   -0.300703   0.132174
    16  H    0.139228   0.003367
    17  H    0.153879   0.000746
    18  H    0.177187   0.001033
    19  H    0.091617  -0.007795
    20  H    0.246794   0.006172
    21  H    0.081273   0.101929
    22  H    0.197095  -0.006897
    23  H    0.017344   0.111978
    24  H    0.214012  -0.009821
    25  H    0.148081  -0.009225
 Sum of Mulliken charges =  -1.00000   1.00000

 Dipole moment (field-independent basis, Debye):
    X=              7.5702    Y=             -4.4641    Z=              3.0756  Tot=              9.3111
 Quadrupole moment (field-independent basis, Debye-Ang):
   XX=           -193.3624   YY=           -141.3009   ZZ=           -123.4734
   XY=             23.6587   XZ=             -4.7775   YZ=             -0.9886

 Summary of Natural Population Analysis:

                                       Natural Population
                Natural  -----------------------------------------------
    Atom  No    Charge         Core      Valence    Rydberg      Total
 -----------------------------------------------------------------------
      C    1   -0.35391      0.99962     2.34898    0.00531     3.35391
      S    2    0.04463      4.99971     2.93217    0.02349     7.95537
      S    3    0.03316      4.99967     2.94448    0.02269     7.96684
      C    4   -0.24792      0.99957     2.23687    0.01148     3.24792
      C    5   -0.10737      0.99954     2.09530    0.01254     3.10737
      C    6   -0.24749      0.99953     2.24047    0.00749     3.24749
      C    7    0.16197      0.99966     1.81999    0.01838     2.83803
      N    8   -0.18812      0.99979     2.67775    0.01058     3.68812
      C    9   -0.07883      0.99947     2.06528    0.01408     3.07883
      C   10   -0.10745      0.99947     2.09866    0.00933     3.10745
      S   11    0.23445      4.99944     2.74510    0.02100     7.76555
      C   12   -0.12989      0.99938     2.11616    0.01435     3.12989
      C   13   -0.07724      0.99945     2.06837    0.00941     3.07724
      C   14    0.13728      0.99962     1.84672    0.01638     2.86272
      N   15   -0.16531      0.99979     2.65472    0.01079     3.66531
      H   16    0.10198      0.00000     0.39709    0.00092     0.39802
      H   17    0.09958      0.00000     0.39942    0.00100     0.40042
      H   18    0.11150      0.00000     0.38655    0.00195     0.38850
      H   19    0.11054      0.00000     0.38804    0.00143     0.38946
      H   20    0.10925      0.00000     0.38955    0.00120     0.39075
      H   21    0.10474      0.00000     0.39340    0.00186     0.39526
      H   22    0.12277      0.00000     0.37621    0.00103     0.37723
      H   23    0.12449      0.00000     0.37357    0.00194     0.37551
      H   24    0.09785      0.00000     0.40095    0.00120     0.40215
      H   25    0.10934      0.00000     0.38935    0.00131     0.39066
 =======================================================================
   * Total *    0.00000     26.99371    38.78516    0.22113    66.00000

 Normal termination of Gaussian 16 at Thu Dec 10 15:18:59 2020.
