 Gaussian 16, Revision A.03,

 -----------------------------------------------------------
 # opt freq B3LYP/6-31G(d) empiricaldispersion=gd3bj scf=xqc
 -----------------------------------------------------------

 -------------------------------
 CID_121210993_JID_6730_neutraal
 -------------------------------
 Symbolic Z-matrix:
 Charge =  0 Multiplicity = 1

 SCF Done:  E(RB3LYP) =  -699.567475506     A.U. after   15 cycles
 SCF Done:  E(RB3LYP) =  -699.571779703     A.U. after   13 cycles
 SCF Done:  E(RB3LYP) =  -699.572610341     A.U. after   12 cycles
 SCF Done:  E(RB3LYP) =  -699.573182656     A.U. after   12 cycles
 SCF Done:  E(RB3LYP) =  -699.574341628     A.U. after   15 cycles
 SCF Done:  E(RB3LYP) =  -699.575167926     A.U. after   13 cycles
 SCF Done:  E(RB3LYP) =  -699.575899635     A.U. after   12 cycles
 SCF Done:  E(RB3LYP) =  -699.576144049     A.U. after   12 cycles
 SCF Done:  E(RB3LYP) =  -699.576242390     A.U. after   11 cycles
 SCF Done:  E(RB3LYP) =  -699.576260642     A.U. after   11 cycles
 SCF Done:  E(RB3LYP) =  -699.576265235     A.U. after    9 cycles
 SCF Done:  E(RB3LYP) =  -699.576265604     A.U. after    8 cycles
 SCF Done:  E(RB3LYP) =  -699.576265872     A.U. after    8 cycles
 SCF Done:  E(RB3LYP) =  -699.576265906     A.U. after    7 cycles
 Optimization completed.
    -- Stationary point found.
 Normal termination of Gaussian 16 at Thu Dec 10 23:20:57 2020.

 --------------------------------------------------------------------
 #N Geom=AllCheck Guess=TCheck SCRF=Check GenChk RB3LYP/6-31G(d) Freq
 --------------------------------------------------------------------

 Structure from the checkpoint file:  "JID_6730.chk"
 -------------------------------
 CID_121210993_JID_6730_neutraal
 -------------------------------
 Charge =  0 Multiplicity = 1

 SCF Done:  E(RB3LYP) =  -699.576265906     A.U. after    1 cycles

  Exact polarizability: 236.051  -5.597 137.568   0.005   0.004  71.719
 Approx polarizability: 337.828 -23.147 250.873   0.011   0.008 105.088

                      1                      2                      3
                      A                      A                      A
 Frequencies --     42.0109                45.9649                82.4655
 Red. masses --      4.6252                 3.8898                 4.3590
 Frc consts  --      0.0048                 0.0048                 0.0175
 IR Inten    --      0.4042                 0.0115                 0.2011

                      4                      5                      6
                      A                      A                      A
 Frequencies --     91.4319               136.4396               136.9623
 Red. masses --      6.1617                 6.4404                 3.4185
 Frc consts  --      0.0303                 0.0706                 0.0378
 IR Inten    --      0.1542                 6.7574                 0.6530

                      7                      8                      9
                      A                      A                      A
 Frequencies --    160.4435               236.9788               242.3973
 Red. masses --      6.8724                 1.0654                 1.6723
 Frc consts  --      0.1042                 0.0353                 0.0579
 IR Inten    --      7.5705                 0.0000                 1.5788

                     10                     11                     12
                      A                      A                      A
 Frequencies --    269.6806               269.7681               274.5476
 Red. masses --      4.8365                 3.5497                 1.7475
 Frc consts  --      0.2072                 0.1522                 0.0776
 IR Inten    --      2.2942                 1.8371                 3.2783

                     13                     14                     15
                      A                      A                      A
 Frequencies --    337.8640               401.5651               419.0983
 Red. masses --      5.0411                 4.0945                 4.6521
 Frc consts  --      0.3390                 0.3890                 0.4814
 IR Inten    --      0.6956                 0.3193                12.5720

                     16                     17                     18
                      A                      A                      A
 Frequencies --    422.2938               499.2356               500.0570
 Red. masses --      3.3110                 4.8380                 6.7890
 Frc consts  --      0.3479                 0.7104                 1.0002
 IR Inten    --      0.0920                 3.5150                13.1025

                     19                     20                     21
                      A                      A                      A
 Frequencies --    550.2239               573.1343               625.8146
 Red. masses --      6.8764                 4.9210                 9.1901
 Frc consts  --      1.2266                 0.9524                 2.1206
 IR Inten    --      0.2158                 6.2412                 0.1809

                     22                     23                     24
                      A                      A                      A
 Frequencies --    655.4557               680.8086               689.5874
 Red. masses --      7.4570                 6.4975                 3.3215
 Frc consts  --      1.8875                 1.7744                 0.9306
 IR Inten    --      0.2014                 0.4627                 2.4541

                     25                     26                     27
                      A                      A                      A
 Frequencies --    717.4649               783.6292               784.0631
 Red. masses --      4.7154                 6.8471                 2.6066
 Frc consts  --      1.4301                 2.4773                 0.9441
 IR Inten    --      0.0807                 6.6801                 0.6482

                     28                     29                     30
                      A                      A                      A
 Frequencies --    851.4735               875.7127               905.9667
 Red. masses --      1.3492                 1.6307                 2.4571
 Frc consts  --      0.5763                 0.7368                 1.1882
 IR Inten    --     31.9394                 2.0117                 3.1285

                     31                     32                     33
                      A                      A                      A
 Frequencies --    955.0078               966.8577               969.0722
 Red. masses --      1.2537                 1.3632                 1.3735
 Frc consts  --      0.6737                 0.7508                 0.7600
 IR Inten    --      1.1854                 0.1214                 0.4820

                     34                     35                     36
                      A                      A                      A
 Frequencies --    981.6139               996.1846              1036.9331
 Red. masses --      1.4702                 8.6253                 5.3709
 Frc consts  --      0.8347                 5.0431                 3.4025
 IR Inten    --      0.1011                27.5034                20.0024

                     37                     38                     39
                      A                      A                      A
 Frequencies --   1073.6080              1089.5706              1115.5792
 Red. masses --      2.0606                 2.2805                 1.7116
 Frc consts  --      1.3994                 1.5951                 1.2551
 IR Inten    --     18.5665                28.7303                 0.1957

                     40                     41                     42
                      A                      A                      A
 Frequencies --   1162.8679              1200.7993              1207.4003
 Red. masses --      2.2065                 2.2468                 2.2963
 Frc consts  --      1.7580                 1.9088                 1.9723
 IR Inten    --      6.4357                 6.7792                27.3028

                     43                     44                     45
                      A                      A                      A
 Frequencies --   1215.7157              1242.3508              1256.8186
 Red. masses --      2.6049                 2.5679                 8.4927
 Frc consts  --      2.2683                 2.3352                 7.9039
 IR Inten    --      0.5395                92.2950                 0.8053

                     46                     47                     48
                      A                      A                      A
 Frequencies --   1294.3719              1321.9670              1372.9864
 Red. masses --      3.2335                 1.7476                 1.3583
 Frc consts  --      3.1919                 1.7994                 1.5086
 IR Inten    --      3.1628                15.4405                 2.1606

                     49                     50                     51
                      A                      A                      A
 Frequencies --   1373.1869              1415.4390              1429.1196
 Red. masses --      3.8124                 2.1926                 2.2367
 Frc consts  --      4.2355                 2.5882                 2.6915
 IR Inten    --    104.4658                 2.4735                31.0940

                     52                     53                     54
                      A                      A                      A
 Frequencies --   1434.1906              1451.1016              1469.6795
 Red. masses --      1.2475                 1.3613                 2.4804
 Frc consts  --      1.5118                 1.6889                 3.1566
 IR Inten    --     10.4239                13.3112                 5.2470

                     55                     56                     57
                      A                      A                      A
 Frequencies --   1508.1596              1515.7460              1524.6617
 Red. masses --      2.9604                 1.0426                 1.0493
 Frc consts  --      3.9673                 1.4112                 1.4371
 IR Inten    --      4.2945                 0.2624                 0.5186

                     58                     59                     60
                      A                      A                      A
 Frequencies --   1530.2411              1536.4696              1542.3476
 Red. masses --      1.2730                 2.5361                 1.0615
 Frc consts  --      1.7563                 3.5275                 1.4878
 IR Inten    --     27.6977                18.5910                 1.5892

                     61                     62                     63
                      A                      A                      A
 Frequencies --   1582.1802              1591.8206              1634.8731
 Red. masses --      6.3537                 8.5063                 5.2627
 Frc consts  --      9.3711                12.6993                 8.2876
 IR Inten    --      2.5079                24.5538                14.9241

                     64                     65                     66
                      A                      A                      A
 Frequencies --   2350.7193              3065.2569              3068.9664
 Red. masses --     12.6577                 1.0349                 1.0355
 Frc consts  --     41.2102                 5.7289                 5.7465
 IR Inten    --     59.9876                16.2311                14.2766

                     67                     68                     69
                      A                      A                      A
 Frequencies --   3113.5853              3136.3984              3140.1573
 Red. masses --      1.0879                 1.1027                 1.1029
 Frc consts  --      6.2139                 6.3911                 6.4076
 IR Inten    --      0.4392                 5.8259                34.0963

                     70                     71                     72
                      A                      A                      A
 Frequencies --   3147.0025              3153.3830              3178.5821
 Red. masses --      1.1042                 1.1010                 1.0878
 Frc consts  --      6.4429                 6.4507                 6.4751
 IR Inten    --      6.5929                18.4628                 6.6771

                     73                     74                     75
                      A                      A                      A
 Frequencies --   3197.5163              3209.4750              3310.0270
 Red. masses --      1.0956                 1.0927                 1.0981
 Frc consts  --      6.5999                 6.6313                 7.0888
 IR Inten    --     54.5567                 1.5278                 2.6185

 - Thermochemistry -
 -------------------
 Temperature   298.150 Kelvin.  Pressure   1.00000 Atm.
 Atom     1 has atomic number  6 and mass  12.00000

 Molecular mass:   213.10145 amu.
 Principal axes and moments of inertia in atomic units:
                           1         2         3
     Eigenvalues --  1359.475836555.252747517.56359
           X            0.99972   0.02379  -0.00000
           Y           -0.02379   0.99972   0.00001
           Z            0.00000  -0.00001   1.00000
 This molecule is an asymmetric top.
 Rotational symmetry number  1.
 Warning -- assumption of classical behavior for rotation
           may cause significant error
 Rotational temperatures (Kelvin)      0.06371     0.01321     0.01152
 Rotational constants (GHZ):           1.32753     0.27531     0.24007
 Zero-point vibrational energy     558252.5 (Joules/Mol)
                                  133.42555 (Kcal/Mol)
 Warning -- explicit consideration of  20 degrees of freedom as
           vibrations may cause significant error
 Vibrational temperatures:     60.44    66.13   118.65   131.55   196.31
          (Kelvin)            197.06   230.84   340.96   348.76   388.01
                              388.14   395.01   486.11   577.76   602.99
                              607.59   718.29   719.47   791.65   824.61
                              900.41   943.05   979.53   992.16  1032.27
                             1127.47  1128.09  1225.08  1259.96  1303.48
                             1374.04  1391.09  1394.28  1412.32  1433.29
                             1491.92  1544.68  1567.65  1605.07  1673.11
                             1727.68  1737.18  1749.14  1787.47  1808.28
                             1862.31  1902.02  1975.42  1975.71  2036.50
                             2056.18  2063.48  2087.81  2114.54  2169.91
                             2180.82  2193.65  2201.68  2210.64  2219.09
                             2276.40  2290.27  2352.22  3382.16  4410.22
                             4415.56  4479.75  4512.58  4517.99  4527.83
                             4537.01  4573.27  4600.51  4617.72  4762.39

 Zero-point correction=                           0.212627 (Hartree/Particle)
 Thermal correction to Energy=                    0.226563
 Thermal correction to Enthalpy=                  0.227507
 Thermal correction to Gibbs Free Energy=         0.170977
 Sum of electronic and zero-point Energies=           -699.363639
 Sum of electronic and thermal Energies=              -699.349703
 Sum of electronic and thermal Enthalpies=            -699.348759
 Sum of electronic and thermal Free Energies=         -699.405289

                     E (Thermal)             CV                S
                      KCal/Mol        Cal/Mol-Kelvin    Cal/Mol-Kelvin
 Total                  142.170             52.270            118.979
 Electronic               0.000              0.000              0.000
 Translational            0.889              2.981             41.973
 Rotational               0.889              2.981             32.571
 Vibrational            140.393             46.308             44.434
 Vibration     1          0.595              1.980              5.162
 Vibration     2          0.595              1.979              4.984
 Vibration     3          0.600              1.961              3.831
 Vibration     4          0.602              1.955              3.629
 Vibration     5          0.614              1.917              2.853
 Vibration     6          0.614              1.916              2.846
 Vibration     7          0.622              1.891              2.545
 Vibration     8          0.656              1.784              1.825
 Vibration     9          0.659              1.775              1.785
 Vibration    10          0.674              1.729              1.598
 Vibration    11          0.674              1.729              1.598
 Vibration    12          0.677              1.720              1.567
 Vibration    13          0.718              1.600              1.222
 Vibration    14          0.767              1.467              0.957
 Vibration    15          0.782              1.429              0.895
 Vibration    16          0.785              1.422              0.884
 Vibration    17          0.855              1.252              0.660
 Vibration    18          0.855              1.250              0.658
 Vibration    19          0.906              1.139              0.544
 Vibration    20          0.929              1.089              0.498

 Optimization completed.
    -- Stationary point found.
 Normal termination of Gaussian 16 at Thu Dec 10 23:28:49 2020.

 ----------------------------------------------------------------------
 # B3LYP/6-311++G(d,p) empiricaldispersion=gd3bj scf=xqc pop=npa geom=c
 heck
 ----------------------------------------------------------------------

 ---------------------------------------
 CID_121210993_JID_6730_Energie_neutraal
 ---------------------------------------
 Structure from the checkpoint file:  "JID_6730.chk"
 Charge =  0 Multiplicity = 1

 SCF Done:  E(RB3LYP) =  -699.754932968     A.U. after   16 cycles
 Normal termination of Gaussian 16 at Thu Dec 10 23:31:57 2020.

 ----------------------------------------------------------------------
 # B3LYP/6-311++G(d,p) empiricaldispersion=gd3bj scf=xqc pop=npa geom=c
 heck
 ----------------------------------------------------------------------

 -------------------------------------
 CID_121210993_JID_6730_Energie_kation
 -------------------------------------
 Structure from the checkpoint file:  "JID_6730.chk"
 Charge =  1 Multiplicity = 2

 SCF Done:  E(UB3LYP) =  -699.437362785     A.U. after   27 cycles
 Normal termination of Gaussian 16 at Thu Dec 10 23:38:47 2020.
 Gaussian 16:  ES64L-G16RevA.03 25-Dec-2016

 ----------------------------------------------------------------------
 # B3LYP/6-311++G(d,p) empiricaldispersion=gd3bj scf=xqc pop=npa geom=c
 heck
 ----------------------------------------------------------------------

 ------------------------------------
 CID_121210993_JID_6730_Energie_anion
 ------------------------------------
 Structure from the checkpoint file:  "JID_6730.chk"
 Charge = -1 Multiplicity = 2

                         Standard orientation:
 ---------------------------------------------------------------------
 Center     Atomic      Atomic             Coordinates (Angstroms)
 Number     Number       Type             X           Y           Z
 ---------------------------------------------------------------------
      1          6           0       -3.437688   -1.207776    1.278480
      2          6           0       -2.608122   -1.353426    0.000189
      3          6           0       -3.437619   -1.208125   -1.278185
      4          7           0       -1.474507   -0.409835    0.000091
      5          6           0       -1.489216    0.966449   -0.000053
      6          6           0       -0.165243    1.384401   -0.000064
      7          6           0        0.581775    0.190102    0.000057
      8          7           0       -0.226595   -0.884768    0.000185
      9          6           0        2.039759    0.050974    0.000034
     10          7           0        2.760150    1.184963    0.000353
     11          6           0        4.087886    1.046270    0.000311
     12          6           0        4.702854   -0.206298   -0.000035
     13          7           0        3.991756   -1.341387   -0.000383
     14          6           0        2.665192   -1.207886   -0.000372
     15          6           0       -2.680939    1.731883   -0.000220
     16          7           0       -3.661980    2.358392   -0.000494
     17          1           0       -3.948315   -0.241305    1.317850
     18          1           0       -2.803764   -1.307759    2.164632
     19          1           0       -4.199676   -1.993170    1.307715
     20          1           0       -2.110973   -2.326038    0.000350
     21          1           0       -3.948237   -0.241661   -1.317854
     22          1           0       -2.803653   -1.308355   -2.164278
     23          1           0       -4.199630   -1.993507   -1.307267
     24          1           0        0.207950    2.396039   -0.000062
     25          1           0        4.678142    1.960183    0.000535
     26          1           0        5.786315   -0.299991   -0.000076
     27          1           0        2.068247   -2.115397   -0.000673
 ---------------------------------------------------------------------

 SCF Done:  E(UB3LYP) =  -699.769499634     A.U. after   28 cycles

 The electronic state is 2-A.
 Alpha  occ. eigenvalues --  -14.28025 -14.22029 -14.18933 -14.15525 -14.15349
 Alpha  occ. eigenvalues --  -10.13159 -10.10705 -10.09144 -10.08011 -10.08011
 Alpha  occ. eigenvalues --  -10.07504 -10.06666 -10.06116 -10.05943 -10.05777
 Alpha  occ. eigenvalues --  -10.04106  -0.94593  -0.82602  -0.79064  -0.75877
 Alpha  occ. eigenvalues --   -0.74871  -0.69226  -0.66634  -0.62139  -0.61101
 Alpha  occ. eigenvalues --   -0.54397  -0.53215  -0.50667  -0.49986  -0.46348
 Alpha  occ. eigenvalues --   -0.42440  -0.38343  -0.36786  -0.36745  -0.36419
 Alpha  occ. eigenvalues --   -0.34915  -0.32201  -0.31905  -0.31753  -0.30460
 Alpha  occ. eigenvalues --   -0.29607  -0.28376  -0.28083  -0.26851  -0.26769
 Alpha  occ. eigenvalues --   -0.25303  -0.24488  -0.24427  -0.22140  -0.19230
 Alpha  occ. eigenvalues --   -0.18454  -0.16157  -0.15531  -0.14078  -0.10492
 Alpha  occ. eigenvalues --   -0.09868   0.04216
 Alpha virt. eigenvalues --    0.06698   0.06954   0.08968   0.09223   0.09892
 Alpha virt. eigenvalues --    0.10295   0.10296   0.11311   0.12138   0.12463
 Alpha virt. eigenvalues --    0.12775   0.13221   0.13590   0.13867   0.14777

  Beta  occ. eigenvalues --  -14.27989 -14.22088 -14.18703 -14.15017 -14.14845
  Beta  occ. eigenvalues --  -10.13160 -10.10585 -10.09104 -10.08009 -10.08009
  Beta  occ. eigenvalues --  -10.07534 -10.06572 -10.06092 -10.05972 -10.05719
  Beta  occ. eigenvalues --  -10.03860  -0.94567  -0.81963  -0.78716  -0.75615
  Beta  occ. eigenvalues --   -0.74222  -0.68990  -0.66414  -0.61882  -0.61096
  Beta  occ. eigenvalues --   -0.54183  -0.52682  -0.50523  -0.49604  -0.46111
  Beta  occ. eigenvalues --   -0.42332  -0.38230  -0.36655  -0.36599  -0.36261
  Beta  occ. eigenvalues --   -0.34750  -0.32064  -0.31725  -0.31624  -0.30344
  Beta  occ. eigenvalues --   -0.29520  -0.28320  -0.27269  -0.26725  -0.26257
  Beta  occ. eigenvalues --   -0.24936  -0.24253  -0.23619  -0.22021  -0.18449
  Beta  occ. eigenvalues --   -0.17392  -0.14954  -0.14854  -0.12988  -0.09731
  Beta  occ. eigenvalues --   -0.09314
  Beta virt. eigenvalues --    0.06663   0.08095   0.08962   0.09182   0.09867
  Beta virt. eigenvalues --    0.09970   0.10243   0.11269   0.11404   0.12112
  Beta virt. eigenvalues --    0.12493   0.12726   0.13224   0.13642   0.13870

 Mulliken charges and spin densities:
               1          2
     1  C   -0.487029   0.001417
     2  C   -0.235590   0.002250
     3  C   -0.486941   0.001389
     4  N    0.287831   0.009370
     5  C    0.403364   0.071265
     6  C   -0.143451   0.251758
     7  C   -0.339339  -0.051231
     8  N    0.129561  -0.023669
     9  C   -0.369389   0.056657
    10  N   -0.088220   0.241893
    11  C    0.150014   0.047255
    12  C   -0.292299   0.067498
    13  N   -0.120219   0.215859
    14  C   -0.216371   0.015239
    15  C   -0.585438  -0.006215
    16  N   -0.341431   0.119547
    17  H    0.175204   0.003251
    18  H    0.156967   0.000324
    19  H    0.116340  -0.000255
    20  H    0.179366   0.000240
    21  H    0.175177   0.003263
    22  H    0.156967   0.000326
    23  H    0.116340  -0.000253
    24  H    0.206908  -0.016531
    25  H    0.130223  -0.003225
    26  H    0.127602  -0.006244
    27  H    0.193853  -0.001177
 Sum of Mulliken charges =  -1.00000   1.00000

 Dipole moment (field-independent basis, Debye):
    X=             -4.7194    Y=             -3.4200    Z=              0.0008  Tot=              5.8283
 Quadrupole moment (field-independent basis, Debye-Ang):
   XX=           -156.8160   YY=           -117.3638   ZZ=           -101.3837
   XY=             25.8921   XZ=             -0.0027   YZ=              0.0008

 Summary of Natural Population Analysis:

                                       Natural Population
                Natural  -----------------------------------------------
    Atom  No    Charge         Core      Valence    Rydberg      Total
 -----------------------------------------------------------------------
      C    1   -0.29158      0.99965     2.28762    0.00431     3.29158
      C    2   -0.00348      0.99961     1.99459    0.00928     3.00348
      C    3   -0.29158      0.99965     2.28762    0.00431     3.29158
      N    4   -0.09713      0.99962     2.58195    0.01555     3.59713
      C    5    0.01753      0.99942     1.97097    0.01208     2.98247
      C    6   -0.06620      0.99949     2.05871    0.00800     3.06620
      C    7    0.05514      0.99956     1.93104    0.01426     2.94486
      N    8   -0.15441      0.99971     2.64376    0.01094     3.65441
      C    9    0.08036      0.99940     1.90578    0.01446     2.91964
      N   10   -0.15770      0.99968     2.64686    0.01116     3.65770
      C   11    0.01066      0.99948     1.97577    0.01409     2.98934
      C   12   -0.00730      0.99963     1.99093    0.01673     3.00730
      N   13   -0.16034      0.99970     2.64741    0.01323     3.66034
      C   14    0.00241      0.99959     1.98297    0.01503     2.99759
      C   15    0.13830      0.99964     1.84557    0.01649     2.86170
      N   16   -0.16180      0.99979     2.65142    0.01059     3.66180
      H   17    0.10843      0.00000     0.39065    0.00092     0.39157
      H   18    0.10432      0.00000     0.39486    0.00082     0.39568
      H   19    0.09521      0.00000     0.40391    0.00088     0.40479
      H   20    0.10668      0.00000     0.39222    0.00111     0.39332
      H   21    0.10844      0.00000     0.39065    0.00092     0.39156
      H   22    0.10432      0.00000     0.39486    0.00082     0.39568
      H   23    0.09521      0.00000     0.40391    0.00088     0.40479
      H   24    0.11469      0.00000     0.38435    0.00096     0.38531
      H   25    0.07931      0.00000     0.41877    0.00192     0.42069
      H   26    0.07968      0.00000     0.41879    0.00154     0.42032
      H   27    0.09097      0.00000     0.40743    0.00160     0.40903
 =======================================================================
   * Total *    0.00013     15.99364    39.80336    0.20286    55.99987

 Normal termination of Gaussian 16 at Thu Dec 10 23:46:14 2020.
