 Gaussian 16, Revision A.03,

 -----------------------------------------------------------
 # opt freq B3LYP/6-31G(d) empiricaldispersion=gd3bj scf=xqc
 -----------------------------------------------------------

 ------------------------------
 CID_54979445_JID_9436_neutraal
 ------------------------------
 Symbolic Z-matrix:
 Charge =  0 Multiplicity = 1

 SCF Done:  E(RB3LYP) =  -1223.63633623     A.U. after   15 cycles
 SCF Done:  E(RB3LYP) =  -1223.64104362     A.U. after   13 cycles
 SCF Done:  E(RB3LYP) =  -1223.64045475     A.U. after   14 cycles
 SCF Done:  E(RB3LYP) =  -1223.64138696     A.U. after   13 cycles
 SCF Done:  E(RB3LYP) =  -1223.64304080     A.U. after   14 cycles
 SCF Done:  E(RB3LYP) =  -1223.64381573     A.U. after   13 cycles
 SCF Done:  E(RB3LYP) =  -1223.64096240     A.U. after   15 cycles
 SCF Done:  E(RB3LYP) =  -1223.64337615     A.U. after   13 cycles
 SCF Done:  E(RB3LYP) =  -1223.64425214     A.U. after   11 cycles
 SCF Done:  E(RB3LYP) =  -1223.64444606     A.U. after   12 cycles
 SCF Done:  E(RB3LYP) =  -1223.64503073     A.U. after   10 cycles
 SCF Done:  E(RB3LYP) =  -1223.64503253     A.U. after   10 cycles
 SCF Done:  E(RB3LYP) =  -1223.64503277     A.U. after    8 cycles
 SCF Done:  E(RB3LYP) =  -1223.64503302     A.U. after    8 cycles
 SCF Done:  E(RB3LYP) =  -1223.64503312     A.U. after    7 cycles
 Optimization completed.
    -- Stationary point found.
 Normal termination of Gaussian 16 at Mon Dec 14 17:04:12 2020.

 --------------------------------------------------------------------
 #N Geom=AllCheck Guess=TCheck SCRF=Check GenChk RB3LYP/6-31G(d) Freq
 --------------------------------------------------------------------

 Structure from the checkpoint file:  "JID_9436.chk"
 ------------------------------
 CID_54979445_JID_9436_neutraal
 ------------------------------
 Charge =  0 Multiplicity = 1

 SCF Done:  E(RB3LYP) =  -1223.64503312     A.U. after    1 cycles

  Exact polarizability: 189.359  23.508 155.772  13.540  -8.489 166.468
 Approx polarizability: 253.481  49.200 253.643  17.282 -31.320 288.586

                      1                      2                      3
                      A                      A                      A
 Frequencies --     21.4942                23.9411                39.3700
 Red. masses --      5.4150                 5.7920                 4.3767
 Frc consts  --      0.0015                 0.0020                 0.0040
 IR Inten    --      0.3407                 2.1868                 0.1514

                      4                      5                      6
                      A                      A                      A
 Frequencies --     48.5707                49.1378                61.4071
 Red. masses --      4.0887                 2.7603                 4.8969
 Frc consts  --      0.0057                 0.0039                 0.0109
 IR Inten    --      0.0195                 0.6235                 0.2233

                      7                      8                      9
                      A                      A                      A
 Frequencies --     81.2494                99.4705               117.6393
 Red. masses --      3.8272                 5.8284                 3.9284
 Frc consts  --      0.0149                 0.0340                 0.0320
 IR Inten    --      0.4979                 1.5017                 2.8848

                     10                     11                     12
                      A                      A                      A
 Frequencies --    129.4332               139.0885               163.4142
 Red. masses --      1.1090                 1.1021                 3.8269
 Frc consts  --      0.0109                 0.0126                 0.0602
 IR Inten    --      0.8522                 0.6102                 4.2269

                     13                     14                     15
                      A                      A                      A
 Frequencies --    175.7351               203.8036               221.1899
 Red. masses --      3.4208                 4.4434                 4.1263
 Frc consts  --      0.0622                 0.1087                 0.1189
 IR Inten    --      4.4637                 3.6192                 1.3168

                     16                     17                     18
                      A                      A                      A
 Frequencies --    236.7143               251.0678               286.3151
 Red. masses --      1.3131                 2.8655                 3.3483
 Frc consts  --      0.0433                 0.1064                 0.1617
 IR Inten    --      2.7408                 0.6555                 1.3965

                     19                     20                     21
                      A                      A                      A
 Frequencies --    298.8609               319.1301               388.5772
 Red. masses --      3.5363                 3.1043                 4.8492
 Frc consts  --      0.1861                 0.1863                 0.4314
 IR Inten    --      6.8089                 3.4720                 0.5820

                     22                     23                     24
                      A                      A                      A
 Frequencies --    390.7304               424.8695               437.8889
 Red. masses --      4.3914                 2.4059                 3.6530
 Frc consts  --      0.3950                 0.2559                 0.4127
 IR Inten    --     12.6705                 5.9221                 1.3108

                     25                     26                     27
                      A                      A                      A
 Frequencies --    443.4793               462.0873               492.4415
 Red. masses --      4.0230                 3.1692                 3.8412
 Frc consts  --      0.4662                 0.3987                 0.5488
 IR Inten    --      2.1497                 9.0698                 4.1080

                     28                     29                     30
                      A                      A                      A
 Frequencies --    523.4831               562.0697               569.1150
 Red. masses --      3.9678                 5.5622                 3.5565
 Frc consts  --      0.6406                 1.0353                 0.6787
 IR Inten    --      0.5405                 0.3545                 9.3310

                     31                     32                     33
                      A                      A                      A
 Frequencies --    602.2448               671.8327               692.0527
 Red. masses --      4.6565                 4.6061                 6.0715
 Frc consts  --      0.9951                 1.2249                 1.7133
 IR Inten    --      2.6818                27.4275                 6.6461

                     34                     35                     36
                      A                      A                      A
 Frequencies --    705.3135               723.8199               763.8751
 Red. masses --      4.0010                 3.4044                 1.3946
 Frc consts  --      1.1727                 1.0509                 0.4794
 IR Inten    --      6.4440                 4.0273                36.1456

                     37                     38                     39
                      A                      A                      A
 Frequencies --    769.8119               783.2887               810.2235
 Red. masses --      2.8886                 2.3499                 1.6721
 Frc consts  --      1.0086                 0.8495                 0.6467
 IR Inten    --      8.5944                 1.0703                17.6198

                     40                     41                     42
                      A                      A                      A
 Frequencies --    817.1747               866.7845               872.7446
 Red. masses --      4.7562                 4.0563                 1.3002
 Frc consts  --      1.8713                 1.7955                 0.5835
 IR Inten    --      0.3790                 5.9414                 0.7109

                     43                     44                     45
                      A                      A                      A
 Frequencies --    924.1936               941.7514               944.9070
 Red. masses --      2.5130                 1.5946                 1.5223
 Frc consts  --      1.2646                 0.8332                 0.8008
 IR Inten    --      1.7275                 3.5501                 0.9237

                     46                     47                     48
                      A                      A                      A
 Frequencies --    982.8004              1008.2319              1021.1073
 Red. masses --      1.2696                 2.4903                 1.5429
 Frc consts  --      0.7225                 1.4915                 0.9478
 IR Inten    --      0.1158                21.6348                 1.7168

                     49                     50                     51
                      A                      A                      A
 Frequencies --   1046.3393              1061.9319              1068.8941
 Red. masses --      3.3928                 3.5499                 3.5086
 Frc consts  --      2.1885                 2.3587                 2.3619
 IR Inten    --     15.3853                65.2735                 7.7823

                     52                     53                     54
                      A                      A                      A
 Frequencies --   1074.2065              1087.0012              1119.4106
 Red. masses --      1.7074                 2.4291                 1.8468
 Frc consts  --      1.1608                 1.6910                 1.3635
 IR Inten    --      4.3341                 2.7506                20.5244

                     55                     56                     57
                      A                      A                      A
 Frequencies --   1133.1954              1166.2528              1179.5201
 Red. masses --      1.4614                 1.5813                 1.4835
 Frc consts  --      1.1057                 1.2672                 1.2160
 IR Inten    --     19.8799                 1.0866                18.5370

                     58                     59                     60
                      A                      A                      A
 Frequencies --   1187.1554              1199.8879              1219.4625
 Red. masses --      1.2777                 1.1030                 1.4728
 Frc consts  --      1.0609                 0.9356                 1.2904
 IR Inten    --      1.3167                 0.2641                 2.0994

                     61                     62                     63
                      A                      A                      A
 Frequencies --   1240.4767              1255.0664              1278.4788
 Red. masses --      2.4910                 2.1250                 1.3854
 Frc consts  --      2.2584                 1.9721                 1.3341
 IR Inten    --      1.7199                59.0171                42.0976

                     64                     65                     66
                      A                      A                      A
 Frequencies --   1297.7527              1300.2085              1318.2015
 Red. masses --      3.5769                 1.6374                 1.5448
 Frc consts  --      3.5493                 1.6310                 1.5816
 IR Inten    --    186.2564               139.4310                 2.4515

                     67                     68                     69
                      A                      A                      A
 Frequencies --   1342.0701              1350.9096              1385.2983
 Red. masses --      5.6643                 1.4217                 1.4701
 Frc consts  --      6.0110                 1.5287                 1.6622
 IR Inten    --      0.9756                23.9831                23.8223

                     70                     71                     72
                      A                      A                      A
 Frequencies --   1411.7024              1442.2138              1446.9173
 Red. masses --      1.2969                 1.2715                 1.2410
 Frc consts  --      1.5228                 1.5582                 1.5308
 IR Inten    --      5.5899                 5.6441                 1.5069

                     73                     74                     75
                      A                      A                      A
 Frequencies --   1477.3596              1480.7755              1491.7058
 Red. masses --      2.2106                 1.8299                 1.2108
 Frc consts  --      2.8427                 2.3640                 1.5874
 IR Inten    --     85.9708                 3.1792                 9.3929

                     76                     77                     78
                      A                      A                      A
 Frequencies --   1498.1923              1510.1339              1511.6765
 Red. masses --      1.1130                 1.0886                 1.1142
 Frc consts  --      1.4719                 1.4626                 1.5002
 IR Inten    --      5.3744                 0.9346                21.6525

                     79                     80                     81
                      A                      A                      A
 Frequencies --   1513.4934              1518.6539              1519.3170
 Red. masses --      1.0539                 1.5324                 1.1211
 Frc consts  --      1.4224                 2.0824                 1.5247
 IR Inten    --     14.4904                 7.3698                12.1572

                     82                     83                     84
                      A                      A                      A
 Frequencies --   1523.8498              1526.2522              1532.1563
 Red. masses --      1.0481                 1.1558                 1.2097
 Frc consts  --      1.4340                 1.5863                 1.6732
 IR Inten    --      9.6690                10.8329                11.9675

                     85                     86                     87
                      A                      A                      A
 Frequencies --   1533.0478              1628.9725              1652.9324
 Red. masses --      1.1996                 5.4445                 5.5182
 Frc consts  --      1.6611                 8.5121                 8.8830
 IR Inten    --     17.6858                 1.1591                 2.9404

                     88                     89                     90
                      A                      A                      A
 Frequencies --   1754.4311              1832.3970              3054.2091
 Red. masses --      9.5566                11.3034                 1.0375
 Frc consts  --     17.3311                22.3614                 5.7020
 IR Inten    --    225.9724               239.5196                18.8975

                     91                     92                     93
                      A                      A                      A
 Frequencies --   3055.6689              3067.0661              3077.9770
 Red. masses --      1.0373                 1.0678                 1.0625
 Frc consts  --      5.7067                 5.9181                 5.9308
 IR Inten    --     16.9314                20.3518                57.3077

                     94                     95                     96
                      A                      A                      A
 Frequencies --   3079.7272              3098.9306              3109.3574
 Red. masses --      1.0307                 1.0621                 1.0986
 Frc consts  --      5.7598                 6.0098                 6.2578
 IR Inten    --     24.1706                 7.2263                16.0193

                     97                     98                     99
                      A                      A                      A
 Frequencies --   3116.0414              3127.9994              3132.5387
 Red. masses --      1.1022                 1.1012                 1.1024
 Frc consts  --      6.3053                 6.3483                 6.3733
 IR Inten    --     26.3618                 8.8676                18.9347

                    100                    101                    102
                      A                      A                      A
 Frequencies --   3146.7622              3155.7132              3157.7726
 Red. masses --      1.0961                 1.1076                 1.1016
 Frc consts  --      6.3946                 6.4989                 6.4719
 IR Inten    --     11.6345                17.3487                10.6974

                    103                    104                    105
                      A                      A                      A
 Frequencies --   3171.0152              3180.7807              3190.1063
 Red. masses --      1.1037                 1.0868                 1.1074
 Frc consts  --      6.5388                 6.4784                 6.6399
 IR Inten    --      2.5406                 7.7881                12.1138

                    106                    107                    108
                      A                      A                      A
 Frequencies --   3195.6784              3210.0083              3233.9553
 Red. masses --      1.0895                 1.0952                 1.0934
 Frc consts  --      6.5553                 6.6489                 6.7377
 IR Inten    --     13.6128                25.4367                 3.1289

 - Thermochemistry -
 -------------------
 Temperature   298.150 Kelvin.  Pressure   1.00000 Atm.
 Atom     1 has atomic number  6 and mass  12.00000

 Molecular mass:   281.10857 amu.
 Principal axes and moments of inertia in atomic units:
                           1         2         3
     Eigenvalues --  3110.870177842.338708056.17563
           X            0.99986   0.00291   0.01664
           Y           -0.00337   0.99961   0.02762
           Z           -0.01656  -0.02767   0.99948
 This molecule is an asymmetric top.
 Rotational symmetry number  1.
 Warning -- assumption of classical behavior for rotation
           may cause significant error
 Rotational temperatures (Kelvin)      0.02784     0.01104     0.01075
 Rotational constants (GHZ):           0.58014     0.23013     0.22402
 Zero-point vibrational energy     826877.6 (Joules/Mol)
                                  197.62849 (Kcal/Mol)
 Warning -- explicit consideration of  31 degrees of freedom as
           vibrations may cause significant error
 Vibrational temperatures:     30.93    34.45    56.64    69.88    70.70
          (Kelvin)             88.35   116.90   143.12   169.26   186.23
                              200.12   235.12   252.84   293.23   318.24
                              340.58   361.23   411.94   429.99   459.16
                              559.08   562.17   611.29   630.02   638.07
                              664.84   708.51   753.18   808.69   818.83
                              866.50   966.62   995.71  1014.79  1041.42
                             1099.05  1107.59  1126.98  1165.73  1175.73
                             1247.11  1255.68  1329.71  1354.97  1359.51
                             1414.03  1450.62  1469.15  1505.45  1527.88
                             1537.90  1545.54  1563.95  1610.58  1630.42
                             1677.98  1697.07  1708.05  1726.37  1754.53
                             1784.77  1805.76  1839.45  1867.18  1870.71
                             1896.60  1930.94  1943.66  1993.14  2031.12
                             2075.02  2081.79  2125.59  2130.51  2146.23
                             2155.56  2172.75  2174.97  2177.58  2185.00
                             2185.96  2192.48  2195.94  2204.43  2205.71
                             2343.73  2378.20  2524.23  2636.41  4394.33
                             4396.43  4412.82  4428.52  4431.04  4458.67
                             4473.67  4483.29  4500.49  4507.02  4527.49
                             4540.37  4543.33  4562.38  4576.43  4589.85
                             4597.87  4618.49  4652.94

 Zero-point correction=                           0.314941 (Hartree/Particle)
 Thermal correction to Energy=                    0.335379
 Thermal correction to Enthalpy=                  0.336323
 Thermal correction to Gibbs Free Energy=         0.263134
 Sum of electronic and zero-point Energies=          -1223.330092
 Sum of electronic and thermal Energies=             -1223.309655
 Sum of electronic and thermal Enthalpies=           -1223.308710
 Sum of electronic and thermal Free Energies=        -1223.381899

                     E (Thermal)             CV                S
                      KCal/Mol        Cal/Mol-Kelvin    Cal/Mol-Kelvin
 Total                  210.453             73.728            154.039
 Electronic               0.000              0.000              0.000
 Translational            0.889              2.981             42.799
 Rotational               0.889              2.981             33.641
 Vibrational            208.676             67.767             77.599
 Vibration     1          0.593              1.985              6.491
 Vibration     2          0.593              1.985              6.277
 Vibration     3          0.594              1.981              5.291
 Vibration     4          0.595              1.978              4.875
 Vibration     5          0.595              1.978              4.852
 Vibration     6          0.597              1.973              4.411
 Vibration     7          0.600              1.962              3.860
 Vibration     8          0.604              1.949              3.465
 Vibration     9          0.608              1.935              3.139
 Vibration    10          0.612              1.924              2.954
 Vibration    11          0.615              1.914              2.816
 Vibration    12          0.623              1.887              2.510
 Vibration    13          0.628              1.872              2.373
 Vibration    14          0.639              1.834              2.098
 Vibration    15          0.648              1.809              1.949
 Vibration    16          0.656              1.785              1.827
 Vibration    17          0.663              1.761              1.723
 Vibration    18          0.684              1.699              1.496
 Vibration    19          0.692              1.676              1.423
 Vibration    20          0.705              1.637              1.315
 Vibration    21          0.757              1.495              1.006
 Vibration    22          0.758              1.490              0.997
 Vibration    23          0.787              1.416              0.876
 Vibration    24          0.798              1.388              0.833
 Vibration    25          0.803              1.375              0.816
 Vibration    26          0.820              1.334              0.760
 Vibration    27          0.848              1.267              0.677
 Vibration    28          0.878              1.198              0.602
 Vibration    29          0.918              1.113              0.520
 Vibration    30          0.925              1.098              0.506
 Vibration    31          0.961              1.027              0.446

                           ! Non-Optimized Parameters !
 Normal termination of Gaussian 16 at Mon Dec 14 17:27:49 2020.

 ----------------------------------------------------------------------
 # B3LYP/6-311++G(d,p) empiricaldispersion=gd3bj scf=xqc pop=npa geom=c
 heck
 ----------------------------------------------------------------------

 --------------------------------------
 CID_54979445_JID_9436_Energie_neutraal
 --------------------------------------
 Structure from the checkpoint file:  "JID_9436.chk"
 Charge =  0 Multiplicity = 1

 SCF Done:  E(RB3LYP) =  -1223.90433376     A.U. after   15 cycles
 Normal termination of Gaussian 16 at Mon Dec 14 17:38:32 2020.

 ----------------------------------------------------------------------
 # B3LYP/6-311++G(d,p) empiricaldispersion=gd3bj scf=xqc pop=npa geom=c
 heck
 ----------------------------------------------------------------------

 ------------------------------------
 CID_54979445_JID_9436_Energie_kation
 ------------------------------------
 Structure from the checkpoint file:  "JID_9436.chk"
 Charge =  1 Multiplicity = 2

 SCF Done:  E(UB3LYP) =  -1223.61175329     A.U. after   31 cycles
 Normal termination of Gaussian 16 at Mon Dec 14 18:09:47 2020.
 Gaussian 16:  ES64L-G16RevA.03 25-Dec-2016

 ----------------------------------------------------------------------
 # B3LYP/6-311++G(d,p) empiricaldispersion=gd3bj scf=xqc pop=npa geom=c
 heck
 ----------------------------------------------------------------------

 -----------------------------------
 CID_54979445_JID_9436_Energie_anion
 -----------------------------------
 Structure from the checkpoint file:  "JID_9436.chk"
 Charge = -1 Multiplicity = 2

                         Standard orientation:
 ---------------------------------------------------------------------
 Center     Atomic      Atomic             Coordinates (Angstroms)
 Number     Number       Type             X           Y           Z
 ---------------------------------------------------------------------
      1          6           0        0.491238    2.337215    1.462097
      2          6           0       -0.854107    2.131751    0.766871
      3          7           0       -0.931934    0.814982    0.125075
      4          6           0       -1.510093   -0.262759    0.895764
      5          6           0       -3.030849   -0.366015    0.829308
      6          8           0       -3.713555   -0.827033    1.716255
      7          8           0       -3.511475    0.063624   -0.353611
      8          6           0       -4.937022   -0.043848   -0.510789
      9          6           0       -0.522931    0.711578   -1.174622
     10          8           0       -0.131931    1.684167   -1.813300
     11          6           0       -0.521543   -0.663881   -1.834882
     12         16           0        0.696787   -1.869115   -1.125237
     13          6           0        1.989933   -0.797711   -0.492217
     14          6           0        2.538394    0.203782   -1.302060
     15          6           0        3.537218    1.040112   -0.809063
     16          6           0        4.013371    0.858473    0.488479
     17          6           0        3.482993   -0.156085    1.283332
     18          6           0        2.463912   -0.997070    0.820604
     19          6           0        1.915552   -2.077112    1.719894
     20          1           0        0.671031    1.564804    2.218223
     21          1           0        0.522851    3.314710    1.956548
     22          1           0        1.301799    2.286971    0.730537
     23          1           0       -1.684010    2.205598    1.478516
     24          1           0       -1.003200    2.885182   -0.007744
     25          1           0       -1.095142   -1.224213    0.577076
     26          1           0       -1.242180   -0.147631    1.949208
     27          1           0       -5.251044   -1.087922   -0.434312
     28          1           0       -5.448086    0.538757    0.259431
     29          1           0       -5.151519    0.354067   -1.502247
     30          1           0       -1.495278   -1.154955   -1.750367
     31          1           0       -0.303913   -0.493038   -2.888442
     32          1           0        2.165499    0.346331   -2.309201
     33          1           0        3.942192    1.824119   -1.441895
     34          1           0        4.795889    1.501313    0.881251
     35          1           0        3.856964   -0.298645    2.294013
     36          1           0        0.830327   -1.990476    1.838303
     37          1           0        2.106961   -3.078643    1.317256
     38          1           0        2.375100   -2.022005    2.711053
 ---------------------------------------------------------------------

 SCF Done:  E(UB3LYP) =  -1223.89453334     A.U. after   33 cycles
 SCF Done:  E(UB3LYP) =  -1223.89453334     a.u. after    1 cycles

 The electronic state is 2-A.
 Alpha  occ. eigenvalues --  -88.74502 -19.08038 -19.02580 -18.98815 -14.24988
 Alpha  occ. eigenvalues --  -10.21370 -10.17558 -10.13128 -10.12525 -10.11115
 Alpha  occ. eigenvalues --  -10.10017 -10.09281 -10.08629 -10.07719 -10.07157
 Alpha  occ. eigenvalues --  -10.07129 -10.06887 -10.06807 -10.06664  -7.83057
 Alpha  occ. eigenvalues --   -5.79456  -5.79079  -5.78451  -1.02109  -0.94272
 Alpha  occ. eigenvalues --   -0.93469  -0.84870  -0.76449  -0.70288  -0.68288
 Alpha  occ. eigenvalues --   -0.67615  -0.65644  -0.63693  -0.61422  -0.59474
 Alpha  occ. eigenvalues --   -0.56707  -0.53984  -0.49834  -0.48918  -0.47637
 Alpha  occ. eigenvalues --   -0.46238  -0.42036  -0.41616  -0.40835  -0.39776
 Alpha  occ. eigenvalues --   -0.38449  -0.37703  -0.37049  -0.35278  -0.34944
 Alpha  occ. eigenvalues --   -0.34610  -0.33210  -0.32971  -0.32210  -0.32114
 Alpha  occ. eigenvalues --   -0.31420  -0.31181  -0.30003  -0.29719  -0.29224
 Alpha  occ. eigenvalues --   -0.28344  -0.27857  -0.27051  -0.26055  -0.25598
 Alpha  occ. eigenvalues --   -0.25266  -0.24171  -0.22376  -0.22058  -0.20594
 Alpha  occ. eigenvalues --   -0.17166  -0.15864  -0.15518  -0.14592  -0.12086
 Alpha  occ. eigenvalues --    0.04442
 Alpha virt. eigenvalues --    0.06100   0.06479   0.07431   0.07704   0.08280
 Alpha virt. eigenvalues --    0.08351   0.08594   0.09179   0.09402   0.09689
 Alpha virt. eigenvalues --    0.10014   0.10370   0.10708   0.11200   0.11715

  Beta  occ. eigenvalues --  -88.74488 -19.08028 -19.02570 -18.98777 -14.24992
  Beta  occ. eigenvalues --  -10.21368 -10.17550 -10.13122 -10.12463 -10.11107
  Beta  occ. eigenvalues --  -10.09897 -10.09141 -10.08612 -10.07720 -10.07179
  Beta  occ. eigenvalues --  -10.07111 -10.06884 -10.06726 -10.06505  -7.83043
  Beta  occ. eigenvalues --   -5.79423  -5.79071  -5.78435  -1.02092  -0.94221
  Beta  occ. eigenvalues --   -0.93451  -0.84856  -0.76260  -0.70108  -0.68235
  Beta  occ. eigenvalues --   -0.67508  -0.65551  -0.63511  -0.61354  -0.59394
  Beta  occ. eigenvalues --   -0.56582  -0.53891  -0.49728  -0.48860  -0.47466
  Beta  occ. eigenvalues --   -0.46207  -0.42004  -0.41538  -0.40804  -0.39717
  Beta  occ. eigenvalues --   -0.38390  -0.37670  -0.36953  -0.35202  -0.34869
  Beta  occ. eigenvalues --   -0.34539  -0.33132  -0.32901  -0.32146  -0.32055
  Beta  occ. eigenvalues --   -0.31328  -0.31118  -0.29948  -0.29668  -0.29192
  Beta  occ. eigenvalues --   -0.28230  -0.27803  -0.26997  -0.25995  -0.25285
  Beta  occ. eigenvalues --   -0.25129  -0.24054  -0.22196  -0.22029  -0.20564
  Beta  occ. eigenvalues --   -0.16620  -0.15793  -0.15339  -0.14372  -0.11705
  Beta virt. eigenvalues --    0.06349   0.07111   0.07306   0.07645   0.08014
  Beta virt. eigenvalues --    0.08392   0.08473   0.08733   0.09556   0.09784
  Beta virt. eigenvalues --    0.09986   0.10164   0.10460   0.11110   0.11306

 Mulliken charges and spin densities:
               1          2
     1  C   -0.091236  -0.173165
     2  C   -0.393844   0.032337
     3  N    0.410963  -0.014078
     4  C    0.782065  -1.064956
     5  C   -1.139802   0.778405
     6  O   -0.234749   0.018998
     7  O   -0.179884   0.103102
     8  C    1.341573  -1.588456
     9  C   -0.839217   0.682747
    10  O   -0.276728   0.014672
    11  C    0.642782  -1.140148
    12  S   -0.218058   0.119261
    13  C    0.324091   0.208839
    14  C   -0.358083   0.022311
    15  C   -0.423469  -0.055900
    16  C   -0.281203   0.095583
    17  C   -0.325793  -0.029676
    18  C    0.555599   0.065700
    19  C   -0.633031  -0.009072
    20  H    0.088936   0.007239
    21  H    0.062627   0.086141
    22  H    0.214046  -0.019629
    23  H    0.034286   0.119175
    24  H    0.062667   0.118677
    25  H    0.342821  -0.090494
    26  H    0.161819   0.057185
    27  H   -0.479662   0.664447
    28  H   -0.426913   0.603522
    29  H   -0.531903   0.696349
    30  H   -0.170790   0.390036
    31  H    0.096589   0.170637
    32  H    0.169253   0.038624
    33  H    0.106915   0.036023
    34  H    0.111494   0.018107
    35  H    0.112457   0.008540
    36  H    0.092237   0.021423
    37  H    0.167498   0.001640
    38  H    0.123647   0.005854
 Sum of Mulliken charges =  -1.00000   1.00000

 Dipole moment (field-independent basis, Debye):
    X=              7.8707    Y=              0.4424    Z=              4.2137  Tot=              8.9386
 Quadrupole moment (field-independent basis, Debye-Ang):
   XX=           -216.2493   YY=           -152.2671   ZZ=           -154.6487
   XY=             -2.0820   XZ=             -2.3493   YZ=              0.8530

 Summary of Natural Population Analysis:

                                       Natural Population
                Natural  -----------------------------------------------
    Atom  No    Charge         Core      Valence    Rydberg      Total
 -----------------------------------------------------------------------
      C    1   -0.29123      0.99965     2.28707    0.00451     3.29123
      C    2   -0.08560      0.99962     2.07564    0.01033     3.08560
      N    3   -0.25829      0.99962     2.74528    0.01338     3.75829
      C    4   -0.13963      0.99955     2.12819    0.01189     3.13963
      C    5    0.40313      0.99969     1.57220    0.02499     2.59687
      O    6   -0.30453      0.99987     3.29881    0.00585     4.30453
      O    7   -0.27539      0.99986     3.26580    0.00973     4.27539
      C    8   -0.10306      0.99959     2.09435    0.00912     3.10306
      C    9    0.34750      0.99962     1.62802    0.02486     2.65250
      O   10   -0.31807      0.99988     3.31293    0.00526     4.31807
      C   11   -0.27728      0.99954     2.26752    0.01023     3.27728
      S   12    0.11261      4.99956     2.86937    0.01845     7.88739
      C   13   -0.07345      0.99936     2.06097    0.01312     3.07345
      C   14   -0.08321      0.99946     2.07296    0.01079     3.08321
      C   15   -0.11208      0.99957     2.10274    0.00977     3.11208
      C   16   -0.08071      0.99958     2.07027    0.01086     3.08071
      C   17   -0.09921      0.99946     2.09199    0.00775     3.09921
      C   18   -0.02077      0.99939     2.01102    0.01037     3.02077
      C   19   -0.28967      0.99961     2.28554    0.00453     3.28967
      H   20    0.09568      0.00000     0.40322    0.00110     0.40432
      H   21    0.09497      0.00000     0.40426    0.00077     0.40503
      H   22    0.11232      0.00000     0.38630    0.00138     0.38768
      H   23    0.09085      0.00000     0.40801    0.00115     0.40915
      H   24    0.11085      0.00000     0.38792    0.00123     0.38915
      H   25    0.12515      0.00000     0.37284    0.00201     0.37485
      H   26    0.10956      0.00000     0.38944    0.00099     0.39044
      H   27    0.09350      0.00000     0.40439    0.00211     0.40650
      H   28    0.09260      0.00000     0.40548    0.00192     0.40740
      H   29    0.09704      0.00000     0.40046    0.00250     0.40296
      H   30    0.11681      0.00000     0.38131    0.00187     0.38319
      H   31    0.11221      0.00000     0.38632    0.00146     0.38779
      H   32    0.10692      0.00000     0.39191    0.00117     0.39308
      H   33    0.09840      0.00000     0.40073    0.00086     0.40160
      H   34    0.09414      0.00000     0.40477    0.00108     0.40586
      H   35    0.09237      0.00000     0.40584    0.00179     0.40763
      H   36    0.10540      0.00000     0.39349    0.00111     0.39460
      H   37    0.10404      0.00000     0.39505    0.00092     0.39596
      H   38    0.09617      0.00000     0.40289    0.00094     0.40383
 =======================================================================
   * Total *    0.00004     22.99249    51.76530    0.24217    74.99996

 Normal termination of Gaussian 16 at Mon Dec 14 18:43:41 2020.
