 Gaussian 16, Revision A.03,

 -----------------------------------------------------------
 # opt freq B3LYP/6-31G(d) empiricaldispersion=gd3bj scf=xqc
 -----------------------------------------------------------

 ------------------------------
 CID_150850456_JID_797_neutraal
 ------------------------------
 Symbolic Z-matrix:
 Charge =  0 Multiplicity = 1

 SCF Done:  E(RB3LYP) =  -516.883936286     A.U. after   14 cycles
 SCF Done:  E(RB3LYP) =  -516.887729554     A.U. after   12 cycles
 SCF Done:  E(RB3LYP) =  -516.887991578     A.U. after   12 cycles
 SCF Done:  E(RB3LYP) =  -516.888703006     A.U. after   12 cycles
 SCF Done:  E(RB3LYP) =  -516.888826837     A.U. after   11 cycles
 SCF Done:  E(RB3LYP) =  -516.888863053     A.U. after   11 cycles
 SCF Done:  E(RB3LYP) =  -516.888899499     A.U. after   10 cycles
 SCF Done:  E(RB3LYP) =  -516.888912514     A.U. after   10 cycles
 SCF Done:  E(RB3LYP) =  -516.888912249     A.U. after   10 cycles
 SCF Done:  E(RB3LYP) =  -516.888915735     A.U. after    8 cycles
 SCF Done:  E(RB3LYP) =  -516.888916942     A.U. after    8 cycles
 SCF Done:  E(RB3LYP) =  -516.888917016     A.U. after    7 cycles
 Optimization completed.
    -- Stationary point found.
 Normal termination of Gaussian 16 at Tue Dec  8 12:41:00 2020.

 --------------------------------------------------------------------
 #N Geom=AllCheck Guess=TCheck SCRF=Check GenChk RB3LYP/6-31G(d) Freq
 --------------------------------------------------------------------

 Structure from the checkpoint file:  "JID_797.chk"
 ------------------------------
 CID_150850456_JID_797_neutraal
 ------------------------------
 Charge =  0 Multiplicity = 1

 SCF Done:  E(RB3LYP) =  -516.888917016     A.U. after    1 cycles

  Exact polarizability:  90.082  -1.533  81.042   0.758   3.799  67.117
 Approx polarizability: 128.486  -1.623 113.886   2.518  12.023  94.876

                      1                      2                      3
                      A                      A                      A
 Frequencies --     55.5164                81.4411               107.1191
 Red. masses --      4.8590                 4.1959                 2.4917
 Frc consts  --      0.0088                 0.0164                 0.0168
 IR Inten    --      0.5169                 1.5158                 1.7008

                      4                      5                      6
                      A                      A                      A
 Frequencies --    187.8883               194.5023               231.5974
 Red. masses --      1.7556                 2.5661                 1.5688
 Frc consts  --      0.0365                 0.0572                 0.0496
 IR Inten    --      1.4365                 1.4534                 1.4254

                      7                      8                      9
                      A                      A                      A
 Frequencies --    255.1911               261.9560               290.1091
 Red. masses --      1.4493                 1.4776                 1.8970
 Frc consts  --      0.0556                 0.0597                 0.0941
 IR Inten    --      0.0301                 0.6948                 1.9696

                     10                     11                     12
                      A                      A                      A
 Frequencies --    339.4766               378.5171               390.6662
 Red. masses --      2.4150                 1.6002                 1.9507
 Frc consts  --      0.1640                 0.1351                 0.1754
 IR Inten    --      0.3361                72.6609                24.4037

                     13                     14                     15
                      A                      A                      A
 Frequencies --    396.8806               415.2406               446.9421
 Red. masses --      2.5356                 3.5795                 3.2351
 Frc consts  --      0.2353                 0.3636                 0.3807
 IR Inten    --      7.6308                 4.7255                25.1968

                     16                     17                     18
                      A                      A                      A
 Frequencies --    511.0130               531.3250               564.8348
 Red. masses --      1.4817                 1.8288                 4.1400
 Frc consts  --      0.2280                 0.3042                 0.7782
 IR Inten    --     49.5537                32.3752                 8.6670

                     19                     20                     21
                      A                      A                      A
 Frequencies --    593.1818               718.7730               750.5833
 Red. masses --      4.2643                 4.6165                 8.1194
 Frc consts  --      0.8840                 1.4052                 2.6951
 IR Inten    --      7.6129                15.5201                66.4468

                     22                     23                     24
                      A                      A                      A
 Frequencies --    792.7568               835.3476               932.2255
 Red. masses --      1.3747                 1.8039                 2.0532
 Frc consts  --      0.5090                 0.7416                 1.0513
 IR Inten    --      7.3804                 6.4913                 1.2091

                     25                     26                     27
                      A                      A                      A
 Frequencies --    953.8775              1022.0987              1028.8572
 Red. masses --      1.5463                 1.2954                 1.6149
 Frc consts  --      0.8290                 0.7973                 1.0072
 IR Inten    --      0.6554                 5.2099                 2.6701

                     28                     29                     30
                      A                      A                      A
 Frequencies --   1067.8883              1094.7775              1106.6544
 Red. masses --      3.8854                 1.5836                 2.1363
 Frc consts  --      2.6106                 1.1183                 1.5415
 IR Inten    --     83.4512                 3.8680                50.1209

                     31                     32                     33
                      A                      A                      A
 Frequencies --   1123.8238              1221.3158              1227.6354
 Red. masses --      4.6297                 2.1535                 2.2929
 Frc consts  --      3.4451                 1.8926                 2.0360
 IR Inten    --     22.9862               143.5960                50.8323

                     34                     35                     36
                      A                      A                      A
 Frequencies --   1244.1037              1287.1811              1346.1903
 Red. masses --      2.0792                 2.4769                 1.3021
 Frc consts  --      1.8961                 2.4179                 1.3903
 IR Inten    --     22.9787                31.9971                 9.6520

                     37                     38                     39
                      A                      A                      A
 Frequencies --   1398.4369              1423.9339              1442.5126
 Red. masses --      1.4245                 1.2549                 1.3337
 Frc consts  --      1.6414                 1.4992                 1.6352
 IR Inten    --      3.4178                12.8884                20.0775

                     40                     41                     42
                      A                      A                      A
 Frequencies --   1445.4328              1455.0296              1508.8637
 Red. masses --      1.3592                 1.7132                 1.0526
 Frc consts  --      1.6731                 2.1370                 1.4120
 IR Inten    --     35.3062               154.4926                 0.5889

                     43                     44                     45
                      A                      A                      A
 Frequencies --   1519.3315              1527.6972              1530.1857
 Red. masses --      1.0490                 1.0684                 1.0467
 Frc consts  --      1.4267                 1.4691                 1.4440
 IR Inten    --      1.2795                 7.7278                13.4882

                     46                     47                     48
                      A                      A                      A
 Frequencies --   1531.3615              1539.6223              1548.6493
 Red. masses --      1.0519                 1.0781                 1.0573
 Frc consts  --      1.4534                 1.5057                 1.4940
 IR Inten    --      0.8230                 6.5669                 2.3439

                     49                     50                     51
                      A                      A                      A
 Frequencies --   1559.1125              1779.0532              3054.5592
 Red. masses --      1.7013                 7.2487                 1.0537
 Frc consts  --      2.4366                13.5172                 5.7922
 IR Inten    --     68.5014               400.1609                 4.8135

                     52                     53                     54
                      A                      A                      A
 Frequencies --   3058.3503              3062.3410              3076.2106
 Red. masses --      1.0506                 1.0369                 1.0400
 Frc consts  --      5.7900                 5.7292                 5.7984
 IR Inten    --     33.2036                21.1094                20.3904

                     55                     56                     57
                      A                      A                      A
 Frequencies --   3118.3246              3125.9942              3134.8663
 Red. masses --      1.1001                 1.1024                 1.0957
 Frc consts  --      6.3026                 6.3470                 6.3443
 IR Inten    --     14.0287                19.0823                11.9751

                     58                     59                     60
                      A                      A                      A
 Frequencies --   3137.9825              3145.4999              3147.7020
 Red. masses --      1.1021                 1.1000                 1.0996
 Frc consts  --      6.3942                 6.4124                 6.4189
 IR Inten    --     21.3288                45.3852                24.6684

                     61                     62                     63
                      A                      A                      A
 Frequencies --   3171.1171              3530.3759              3723.8056
 Red. masses --      1.1018                 1.0649                 1.0646
 Frc consts  --      6.5278                 7.8198                 8.6974
 IR Inten    --     14.9416                99.4999               100.9795

 - Thermochemistry -
 -------------------
 Temperature   298.150 Kelvin.  Pressure   1.00000 Atm.
 Atom     1 has atomic number  6 and mass  12.00000

 Molecular mass:   147.08954 amu.
 Principal axes and moments of inertia in atomic units:
                           1         2         3
     Eigenvalues --  1075.074131552.308731922.97144
           X            0.99990   0.00588  -0.01290
           Y           -0.00652   0.99874  -0.04969
           Z            0.01259   0.04977   0.99868
 This molecule is an asymmetric top.
 Rotational symmetry number  1.
 Warning -- assumption of classical behavior for rotation
           may cause significant error
 Rotational temperatures (Kelvin)      0.08057     0.05580     0.04504
 Rotational constants (GHZ):           1.67871     1.16262     0.93852
 Zero-point vibrational energy     518484.5 (Joules/Mol)
                                  123.92077 (Kcal/Mol)
 Warning -- explicit consideration of  19 degrees of freedom as
           vibrations may cause significant error
 Vibrational temperatures:     79.88   117.18   154.12   270.33   279.85
          (Kelvin)            333.22   367.16   376.90   417.40   488.43
                              544.60   562.08   571.02   597.44   643.05
                              735.23   764.46   812.67   853.46  1034.15
                             1079.92  1140.60  1201.88  1341.26  1372.42
                             1470.57  1480.30  1536.45  1575.14  1592.23
                             1616.93  1757.20  1766.29  1789.99  1851.97
                             1936.87  2012.04  2048.72  2075.45  2079.66
                             2093.46  2170.92  2185.98  2198.02  2201.60
                             2203.29  2215.17  2228.16  2243.22  2559.66
                             4394.83  4400.28  4406.03  4425.98  4486.57
                             4497.61  4510.37  4514.86  4525.67  4528.84
                             4562.53  5079.42  5357.73

 Zero-point correction=                           0.197480 (Hartree/Particle)
 Thermal correction to Energy=                    0.209072
 Thermal correction to Enthalpy=                  0.210016
 Thermal correction to Gibbs Free Energy=         0.160902
 Sum of electronic and zero-point Energies=           -516.691437
 Sum of electronic and thermal Energies=              -516.679845
 Sum of electronic and thermal Enthalpies=            -516.678901
 Sum of electronic and thermal Free Energies=         -516.728015

                     E (Thermal)             CV                S
                      KCal/Mol        Cal/Mol-Kelvin    Cal/Mol-Kelvin
 Total                  131.195             43.349            103.370
 Electronic               0.000              0.000              0.000
 Translational            0.889              2.981             40.868
 Rotational               0.889              2.981             29.552
 Vibrational            129.417             37.387             32.949
 Vibration     1          0.596              1.975              4.611
 Vibration     2          0.600              1.962              3.856
 Vibration     3          0.606              1.944              3.320
 Vibration     4          0.633              1.856              2.249
 Vibration     5          0.635              1.848              2.184
 Vibration     6          0.653              1.793              1.867
 Vibration     7          0.666              1.754              1.694
 Vibration     8          0.669              1.742              1.649
 Vibration     9          0.686              1.692              1.473
 Vibration    10          0.719              1.597              1.215
 Vibration    11          0.749              1.516              1.045
 Vibration    12          0.758              1.490              0.998
 Vibration    13          0.763              1.477              0.974
 Vibration    14          0.779              1.437              0.908
 Vibration    15          0.806              1.368              0.805
 Vibration    16          0.866              1.226              0.631
 Vibration    17          0.886              1.181              0.584
 Vibration    18          0.921              1.107              0.514
 Vibration    19          0.951              1.046              0.462

 Optimization completed.
    -- Stationary point found.
 Normal termination of Gaussian 16 at Tue Dec  8 12:51:38 2020.

 ----------------------------------------------------------------------
 # B3LYP/6-311++G(d,p) empiricaldispersion=gd3bj scf=xqc pop=npa geom=c
 heck
 ----------------------------------------------------------------------

 --------------------------------------
 CID_150850456_JID_797_Energie_neutraal
 --------------------------------------
 Structure from the checkpoint file:  "JID_797.chk"
 Charge =  0 Multiplicity = 1

 SCF Done:  E(RB3LYP) =  -517.059446933     A.U. after   14 cycles
 Normal termination of Gaussian 16 at Tue Dec  8 13:04:42 2020.

 ----------------------------------------------------------------------
 # B3LYP/6-311++G(d,p) empiricaldispersion=gd3bj scf=xqc pop=npa geom=c
 heck
 ----------------------------------------------------------------------

 ------------------------------------
 CID_150850456_JID_797_Energie_kation
 ------------------------------------
 Structure from the checkpoint file:  "JID_797.chk"
 Charge =  1 Multiplicity = 2

 SCF Done:  E(UB3LYP) =  -516.733713547     A.U. after   19 cycles
 Normal termination of Gaussian 16 at Tue Dec  8 13:11:28 2020.
 Gaussian 16:  ES64L-G16RevA.03 25-Dec-2016

 ----------------------------------------------------------------------
 # B3LYP/6-311++G(d,p) empiricaldispersion=gd3bj scf=xqc pop=npa geom=c
 heck
 ----------------------------------------------------------------------

 -----------------------------------
 CID_150850456_JID_797_Energie_anion
 -----------------------------------
 Structure from the checkpoint file:  "JID_797.chk"
 Charge = -1 Multiplicity = 2

                         Standard orientation:
 ---------------------------------------------------------------------
 Center     Atomic      Atomic             Coordinates (Angstroms)
 Number     Number       Type             X           Y           Z
 ---------------------------------------------------------------------
      1          6           0        1.596812    1.753751   -0.990097
      2          6           0        1.500993    1.020952    0.349346
      3          6           0        0.873176   -0.391776    0.296833
      4          6           0        1.783133   -1.326838   -0.517529
      5          6           0        0.683203   -0.947359    1.716656
      6          7           0       -0.449719   -0.350722   -0.394721
      7          6           0       -1.554290    0.352643   -0.011707
      8          8           0       -2.697313   -0.015377   -0.273725
      9          8           0       -1.290874    1.519794    0.621378
     10          8           0       -0.821339   -1.643740   -0.858002
     11          1           0        2.207009    1.206635   -1.715744
     12          1           0        2.055179    2.738283   -0.847568
     13          1           0        0.606522    1.902977   -1.429041
     14          1           0        2.506080    0.883580    0.767847
     15          1           0        0.951284    1.637527    1.062752
     16          1           0        2.795482   -1.276786   -0.104043
     17          1           0        1.436248   -2.359598   -0.468400
     18          1           0        1.819897   -1.031005   -1.568695
     19          1           0        0.075323   -0.266675    2.321898
     20          1           0        0.187657   -1.921932    1.673955
     21          1           0        1.651933   -1.072230    2.212240
     22          1           0       -2.164846    1.925230    0.760710
     23          1           0       -1.801686   -1.564592   -0.881085
 ---------------------------------------------------------------------

 SCF Done:  E(UB3LYP) =  -517.044187144     A.U. after   29 cycles

 The electronic state is 2-A.
 Alpha  occ. eigenvalues --  -19.06398 -19.06043 -19.00765 -14.28880 -10.22521
 Alpha  occ. eigenvalues --  -10.12571 -10.05811 -10.05608 -10.05585 -10.04830
 Alpha  occ. eigenvalues --   -1.02701  -0.97770  -0.91300  -0.78281  -0.69566
 Alpha  occ. eigenvalues --   -0.63436  -0.59109  -0.54468  -0.52457  -0.48050
 Alpha  occ. eigenvalues --   -0.44261  -0.39823  -0.38459  -0.36641  -0.34985
 Alpha  occ. eigenvalues --   -0.33705  -0.32113  -0.31061  -0.30441  -0.29527
 Alpha  occ. eigenvalues --   -0.28402  -0.27171  -0.27043  -0.25826  -0.24258
 Alpha  occ. eigenvalues --   -0.22516  -0.22194  -0.21731  -0.19686  -0.13519
 Alpha  occ. eigenvalues --    0.04933
 Alpha virt. eigenvalues --    0.07271   0.08183   0.08790   0.09901   0.10778
 Alpha virt. eigenvalues --    0.11251   0.11678   0.12236   0.12668   0.13458
 Alpha virt. eigenvalues --    0.14089   0.14540   0.15139   0.16617   0.16992

  Beta  occ. eigenvalues --  -19.06322 -19.06034 -19.00749 -14.28863 -10.22517
  Beta  occ. eigenvalues --  -10.12571 -10.05785 -10.05579 -10.05553 -10.04802
  Beta  occ. eigenvalues --   -1.02646  -0.97703  -0.91243  -0.78243  -0.69527
  Beta  occ. eigenvalues --   -0.63393  -0.59054  -0.54396  -0.52382  -0.47939
  Beta  occ. eigenvalues --   -0.44206  -0.39786  -0.38417  -0.36598  -0.34945
  Beta  occ. eigenvalues --   -0.33664  -0.32063  -0.31034  -0.30402  -0.29490
  Beta  occ. eigenvalues --   -0.28355  -0.27137  -0.27016  -0.25780  -0.24207
  Beta  occ. eigenvalues --   -0.22485  -0.22156  -0.21692  -0.19642  -0.13501
  Beta virt. eigenvalues --    0.07513   0.08680   0.09013   0.09282   0.10568
  Beta virt. eigenvalues --    0.11135   0.11679   0.12234   0.12588   0.12705
  Beta virt. eigenvalues --    0.13980   0.14676   0.15093   0.15250   0.17059

 Mulliken charges and spin densities:
               1          2
     1  C    0.571012  -1.151414
     2  C    0.017065  -0.248839
     3  C   -1.249767   1.263609
     4  C    0.549066  -1.100890
     5  C    0.611683  -1.090399
     6  N   -0.095873  -0.060140
     7  C    1.173490  -1.015761
     8  O   -0.360914   0.019155
     9  O   -0.350030   0.163123
    10  O    0.010402   0.027491
    11  H   -0.111846   0.240799
    12  H   -0.316114   0.461832
    13  H   -0.208055   0.373270
    14  H   -0.380652   0.536355
    15  H    0.109182   0.085480
    16  H   -0.247855   0.398202
    17  H    0.048150   0.131911
    18  H    0.065958   0.094271
    19  H   -0.399234   0.567669
    20  H    0.134180   0.014892
    21  H   -0.347402   0.507100
    22  H   -0.475405   0.805164
    23  H    0.252961  -0.022878
 Sum of Mulliken charges =  -1.00000   1.00000

 Dipole moment (field-independent basis, Debye):
    X=             -0.5458    Y=             -4.2504    Z=             -2.4711  Tot=              4.9468
 Quadrupole moment (field-independent basis, Debye-Ang):
   XX=           -115.7497   YY=           -101.4923   ZZ=            -93.4917
   XY=              7.0683   XZ=              0.3524   YZ=             -2.0224

 Summary of Natural Population Analysis:

                                       Natural Population
                Natural  -----------------------------------------------
    Atom  No    Charge         Core      Valence    Rydberg      Total
 -----------------------------------------------------------------------
      C    1   -0.28602      0.99966     2.27981    0.00655     3.28602
      C    2   -0.19542      0.99957     2.18589    0.00996     3.19542
      C    3    0.06664      0.99956     1.91839    0.01540     2.93336
      C    4   -0.28940      0.99961     2.28221    0.00758     3.28940
      C    5   -0.29384      0.99961     2.28733    0.00691     3.29384
      N    6   -0.11246      0.99955     2.59815    0.01476     3.61246
      C    7    0.45012      0.99968     1.52574    0.02447     2.54988
      O    8   -0.34738      0.99987     3.34125    0.00625     4.34738
      O    9   -0.34122      0.99988     3.33331    0.00803     4.34122
      O   10   -0.28549      0.99990     3.27936    0.00623     4.28549
      H   11    0.09454      0.00000     0.40438    0.00107     0.40546
      H   12    0.10068      0.00000     0.39835    0.00097     0.39932
      H   13    0.10118      0.00000     0.39724    0.00158     0.39882
      H   14    0.10049      0.00000     0.39752    0.00199     0.39951
      H   15    0.11079      0.00000     0.38678    0.00243     0.38921
      H   16    0.10374      0.00000     0.39501    0.00125     0.39626
      H   17    0.10724      0.00000     0.39169    0.00107     0.39276
      H   18    0.10499      0.00000     0.39396    0.00105     0.39501
      H   19    0.10630      0.00000     0.39222    0.00148     0.39370
      H   20    0.10316      0.00000     0.39570    0.00115     0.39684
      H   21    0.10479      0.00000     0.39380    0.00140     0.39521
      H   22    0.25339      0.00000     0.21801    0.02860     0.24661
      H   23    0.24318      0.00000     0.25354    0.00329     0.25682
 =======================================================================
   * Total *    0.00000      9.99690    29.84963    0.15347    40.00000

 Normal termination of Gaussian 16 at Tue Dec  8 13:23:56 2020.
