 Gaussian 16, Revision A.03,

 -----------------------------------------------------------
 # opt freq B3LYP/6-31G(d) empiricaldispersion=gd3bj scf=xqc
 -----------------------------------------------------------

 -------------------------------
 CID_139233768_JID_7206_neutraal
 -------------------------------
 Symbolic Z-matrix:
 Charge =  0 Multiplicity = 1

 SCF Done:  E(RB3LYP) =  -737.724368861     A.U. after   13 cycles
 SCF Done:  E(RB3LYP) =  -737.729012427     A.U. after   10 cycles
 SCF Done:  E(RB3LYP) =  -737.729561031     A.U. after   10 cycles
 SCF Done:  E(RB3LYP) =  -737.729734415     A.U. after   10 cycles
 SCF Done:  E(RB3LYP) =  -737.729802009     A.U. after    9 cycles
 SCF Done:  E(RB3LYP) =  -737.729828481     A.U. after    9 cycles
 SCF Done:  E(RB3LYP) =  -737.729841659     A.U. after    9 cycles
 SCF Done:  E(RB3LYP) =  -737.729849328     A.U. after    8 cycles
 SCF Done:  E(RB3LYP) =  -737.729851669     A.U. after    7 cycles
 SCF Done:  E(RB3LYP) =  -737.729852722     A.U. after    7 cycles
 SCF Done:  E(RB3LYP) =  -737.729853167     A.U. after    7 cycles
 Optimization completed.
    -- Stationary point found.
 Normal termination of Gaussian 16 at Sun Dec 13 16:08:25 2020.

 --------------------------------------------------------------------
 #N Geom=AllCheck Guess=TCheck SCRF=Check GenChk RB3LYP/6-31G(d) Freq
 --------------------------------------------------------------------

 Structure from the checkpoint file:  "JID_7206.chk"
 -------------------------------
 CID_139233768_JID_7206_neutraal
 -------------------------------
 Charge =  0 Multiplicity = 1

 SCF Done:  E(RB3LYP) =  -737.729853167     A.U. after    1 cycles

  Exact polarizability: 176.416  -3.042 147.428   0.703  -1.117 136.575
 Approx polarizability: 223.454  -1.814 216.084   0.619   0.391 215.142

                      1                      2                      3
                      A                      A                      A
 Frequencies --     44.2360                47.1395                72.6737
 Red. masses --      4.0413                 4.3715                 2.9312
 Frc consts  --      0.0047                 0.0057                 0.0091
 IR Inten    --      0.5262                 0.6012                 2.1456

                      4                      5                      6
                      A                      A                      A
 Frequencies --    107.9049               143.1549               165.3181
 Red. masses --      3.7224                 2.3963                 3.9313
 Frc consts  --      0.0255                 0.0289                 0.0633
 IR Inten    --      0.4058                 2.4388                 8.9112

                      7                      8                      9
                      A                      A                      A
 Frequencies --    187.7877               198.9183               221.6770
 Red. masses --      5.1316                 2.2268                 4.0663
 Frc consts  --      0.1066                 0.0519                 0.1177
 IR Inten    --      3.7916                11.7929                 0.6738

                     10                     11                     12
                      A                      A                      A
 Frequencies --    240.3113               268.5512               282.5932
 Red. masses --      1.9645                 1.7211                 1.4799
 Frc consts  --      0.0668                 0.0731                 0.0696
 IR Inten    --     18.8157                21.3305                38.9306

                     13                     14                     15
                      A                      A                      A
 Frequencies --    291.6668               318.5993               325.7777
 Red. masses --      1.3611                 1.1692                 1.8114
 Frc consts  --      0.0682                 0.0699                 0.1133
 IR Inten    --     30.9146                 2.2192                32.2569

                     16                     17                     18
                      A                      A                      A
 Frequencies --    338.4683               359.9366               373.1859
 Red. masses --      1.3009                 2.4962                 2.0338
 Frc consts  --      0.0878                 0.1905                 0.1669
 IR Inten    --    139.8225                 7.4097                10.0027

                     19                     20                     21
                      A                      A                      A
 Frequencies --    382.4724               398.7796               406.3532
 Red. masses --      1.9152                 2.0922                 2.1032
 Frc consts  --      0.1651                 0.1960                 0.2046
 IR Inten    --      5.7996                 4.7332                 1.5349

                     22                     23                     24
                      A                      A                      A
 Frequencies --    434.8369               470.0409               477.6944
 Red. masses --      2.3106                 2.7132                 2.1066
 Frc consts  --      0.2574                 0.3532                 0.2832
 IR Inten    --      0.2305                 1.0670                 2.5788

                     25                     26                     27
                      A                      A                      A
 Frequencies --    491.4006               519.0700               560.3885
 Red. masses --      2.1623                 3.0520                 2.7783
 Frc consts  --      0.3076                 0.4845                 0.5140
 IR Inten    --      0.3839                 1.3868                 9.6469

                     28                     29                     30
                      A                      A                      A
 Frequencies --    588.8450               678.9601               723.8635
 Red. masses --      2.8446                 3.3125                 3.1567
 Frc consts  --      0.5811                 0.8997                 0.9745
 IR Inten    --      1.9405                 1.7007                 0.5813

                     31                     32                     33
                      A                      A                      A
 Frequencies --    739.4778               801.8241               833.5786
 Red. masses --      3.2653                 2.2390                 1.6419
 Frc consts  --      1.0520                 0.8481                 0.6722
 IR Inten    --      0.7411                 0.4723                 0.3065

                     34                     35                     36
                      A                      A                      A
 Frequencies --    846.4031               863.3228               867.3229
 Red. masses --      3.0746                 1.5961                 2.1587
 Frc consts  --      1.2978                 0.7009                 0.9568
 IR Inten    --      0.2178                 1.5586                 1.5443

                     37                     38                     39
                      A                      A                      A
 Frequencies --    878.9573               901.1313               904.5019
 Red. masses --      2.3520                 2.2851                 2.4095
 Frc consts  --      1.0706                 1.0933                 1.1615
 IR Inten    --      4.5675                 0.8962                 2.2436

                     40                     41                     42
                      A                      A                      A
 Frequencies --    922.7014               929.9742               954.6531
 Red. masses --      2.5157                 1.9679                 2.6721
 Frc consts  --      1.2619                 1.0027                 1.4348
 IR Inten    --      1.0100                 4.1962                 0.4542

                     43                     44                     45
                      A                      A                      A
 Frequencies --    959.1310               969.1591               980.0247
 Red. masses --      1.5756                 1.7148                 1.7248
 Frc consts  --      0.8540                 0.9490                 0.9760
 IR Inten    --      0.4946                 0.6179                 0.3443

                     46                     47                     48
                      A                      A                      A
 Frequencies --    990.0124              1009.6351              1017.8866
 Red. masses --      1.9373                 1.6622                 1.6677
 Frc consts  --      1.1188                 0.9983                 1.0180
 IR Inten    --      3.4250                 0.7029                 5.5160

                     49                     50                     51
                      A                      A                      A
 Frequencies --   1021.9250              1041.3805              1054.8217
 Red. masses --      2.0676                 1.7271                 1.6156
 Frc consts  --      1.2722                 1.1035                 1.0591
 IR Inten    --     18.2603                 1.1169                 1.8864

                     52                     53                     54
                      A                      A                      A
 Frequencies --   1068.5876              1074.6785              1091.3043
 Red. masses --      4.0564                 2.4613                 2.8048
 Frc consts  --      2.7290                 1.6748                 1.9681
 IR Inten    --     65.7362                33.5182                63.7976

                     55                     56                     57
                      A                      A                      A
 Frequencies --   1102.7068              1125.4744              1142.9868
 Red. masses --      1.8261                 1.4134                 1.3256
 Frc consts  --      1.3083                 1.0548                 1.0204
 IR Inten    --      5.0837                 0.7199                 3.3932

                     58                     59                     60
                      A                      A                      A
 Frequencies --   1147.0737              1157.4608              1174.2621
 Red. masses --      1.3352                 1.3502                 1.7600
 Frc consts  --      1.0351                 1.0657                 1.4299
 IR Inten    --      0.5549                 3.1576                 2.1257

                     61                     62                     63
                      A                      A                      A
 Frequencies --   1190.7100              1216.6472              1219.8072
 Red. masses --      1.6740                 2.6516                 1.9124
 Frc consts  --      1.3983                 2.3125                 1.6765
 IR Inten    --      0.6124                 0.8158                10.6712

                     64                     65                     66
                      A                      A                      A
 Frequencies --   1235.7789              1245.6857              1253.2470
 Red. masses --      1.8561                 1.9810                 1.7026
 Frc consts  --      1.6701                 1.8111                 1.5756
 IR Inten    --      6.4346                 4.6028                 0.1334

                     67                     68                     69
                      A                      A                      A
 Frequencies --   1257.5334              1268.3905              1273.0658
 Red. masses --      1.3541                 1.4273                 1.5448
 Frc consts  --      1.2616                 1.3529                 1.4752
 IR Inten    --     10.9119                 3.6925                13.0306

                     70                     71                     72
                      A                      A                      A
 Frequencies --   1283.1561              1288.0951              1302.4804
 Red. masses --      1.3902                 1.5179                 1.4498
 Frc consts  --      1.3486                 1.4839                 1.4492
 IR Inten    --      3.4783                 1.3674                23.5079

                     73                     74                     75
                      A                      A                      A
 Frequencies --   1313.2639              1317.7434              1346.2415
 Red. masses --      1.4056                 1.5442                 1.7417
 Frc consts  --      1.4283                 1.5799                 1.8598
 IR Inten    --     10.5773                 3.5366                 0.4862

                     76                     77                     78
                      A                      A                      A
 Frequencies --   1350.5815              1355.0391              1368.5188
 Red. masses --      1.6038                 1.6738                 1.4649
 Frc consts  --      1.7236                 1.8107                 1.6165
 IR Inten    --      0.0759                 1.3425                 2.6802

                     79                     80                     81
                      A                      A                      A
 Frequencies --   1373.0777              1395.1806              1406.5511
 Red. masses --      1.4572                 1.3534                 1.3298
 Frc consts  --      1.6186                 1.5521                 1.5501
 IR Inten    --      1.7982                17.4724                 7.7033

                     82                     83                     84
                      A                      A                      A
 Frequencies --   1428.1101              1434.8661              1449.1272
 Red. masses --      1.2409                 1.2845                 1.2241
 Frc consts  --      1.4911                 1.5581                 1.5146
 IR Inten    --      4.5275                18.6526                 3.8202

                     85                     86                     87
                      A                      A                      A
 Frequencies --   1474.7412              1498.3648              1503.2690
 Red. masses --      1.4451                 1.0887                 1.0836
 Frc consts  --      1.8517                 1.4402                 1.4427
 IR Inten    --      5.0756                10.4393                 1.7602

                     88                     89                     90
                      A                      A                      A
 Frequencies --   1515.0582              1520.0443              1521.8190
 Red. masses --      1.0617                 1.0996                 1.0879
 Frc consts  --      1.4358                 1.4970                 1.4845
 IR Inten    --      1.0806                 0.0445                 0.7454

                     91                     92                     93
                      A                      A                      A
 Frequencies --   1523.4693              1525.8320              1534.3718
 Red. masses --      1.0740                 1.0659                 1.0757
 Frc consts  --      1.4687                 1.4621                 1.4920
 IR Inten    --      1.3967                 2.6656                 3.8844

                     94                     95                     96
                      A                      A                      A
 Frequencies --   1539.9038              1544.5115              1550.3873
 Red. masses --      1.0662                 1.0669                 1.0867
 Frc consts  --      1.4896                 1.4995                 1.5390
 IR Inten    --      5.6398                 8.0512                 7.5026

                     97                     98                     99
                      A                      A                      A
 Frequencies --   1559.8445              2987.2823              3011.5655
 Red. masses --      1.0804                 1.0554                 1.1007
 Frc consts  --      1.5488                 5.5492                 5.8815
 IR Inten    --      2.4650                48.8092                49.4164

                    100                    101                    102
                      A                      A                      A
 Frequencies --   3034.2424              3040.5373              3042.3224
 Red. masses --      1.0675                 1.0409                 1.0624
 Frc consts  --      5.7905                 5.6699                 5.7937
 IR Inten    --     48.8953                 3.6428                37.1750

                    103                    104                    105
                      A                      A                      A
 Frequencies --   3046.9411              3058.5945              3058.9187
 Red. masses --      1.0387                 1.0595                 1.0625
 Frc consts  --      5.6816                 5.8400                 5.8573
 IR Inten    --     26.7984                12.9929                52.1963

                    106                    107                    108
                      A                      A                      A
 Frequencies --   3065.3393              3067.7440              3070.7920
 Red. masses --      1.0635                 1.0659                 1.1013
 Frc consts  --      5.8878                 5.9100                 6.1186
 IR Inten    --     41.7308                37.3820                42.4568

                    109                    110                    111
                      A                      A                      A
 Frequencies --   3086.7973              3088.8247              3095.5026
 Red. masses --      1.0673                 1.0807                 1.0995
 Frc consts  --      5.9915                 6.0748                 6.2073
 IR Inten    --     13.9140                43.3194                31.5070

                    112                    113                    114
                      A                      A                      A
 Frequencies --   3097.2768              3104.5470              3106.6219
 Red. masses --      1.1017                 1.1007                 1.1076
 Frc consts  --      6.2270                 6.2508                 6.2981
 IR Inten    --      5.7347                86.7008                30.9435

                    115                    116                    117
                      A                      A                      A
 Frequencies --   3112.0910              3113.5862              3121.2496
 Red. masses --      1.1010                 1.0995                 1.1003
 Frc consts  --      6.2826                 6.2802                 6.3154
 IR Inten    --      7.6211                62.4556                40.4660

                    118                    119                    120
                      A                      A                      A
 Frequencies --   3125.3276              3126.9419              3131.4579
 Red. masses --      1.0989                 1.0890                 1.0976
 Frc consts  --      6.3242                 6.2734                 6.3414
 IR Inten    --     21.5323                31.7626                26.1029

                    121                    122                    123
                      A                      A                      A
 Frequencies --   3139.7165              3752.7676              3754.7158
 Red. masses --      1.1055                 1.0664                 1.0659
 Frc consts  --      6.4210                 8.8487                 8.8538
 IR Inten    --     23.5376                14.9695                 6.2731

 - Thermochemistry -
 -------------------
 Temperature   298.150 Kelvin.  Pressure   1.00000 Atm.
 Atom     1 has atomic number  6 and mass  12.00000

 Molecular mass:   238.19328 amu.
 Principal axes and moments of inertia in atomic units:
                           1         2         3
     Eigenvalues --  2185.867185653.932236491.88623
           X            0.99999  -0.00437  -0.00066
           Y            0.00436   0.99991  -0.01264
           Z            0.00071   0.01264   0.99992
 This molecule is an asymmetric top.
 Rotational symmetry number  1.
 Warning -- assumption of classical behavior for rotation
           may cause significant error
 Rotational temperatures (Kelvin)      0.03962     0.01532     0.01334
 Rotational constants (GHZ):           0.82564     0.31920     0.27800
 Zero-point vibrational energy    1031893.9 (Joules/Mol)
                                  246.62856 (Kcal/Mol)
 Warning -- explicit consideration of  28 degrees of freedom as
           vibrations may cause significant error
 Vibrational temperatures:     63.65    67.82   104.56   155.25   205.97
          (Kelvin)            237.86   270.18   286.20   318.94   345.75
                              386.39   406.59   419.64   458.39   468.72
                              486.98   517.87   536.93   550.29   573.75
                              584.65   625.63   676.28   687.30   707.02
                              746.83   806.27   847.22   976.87  1041.48
                             1063.94  1153.65  1199.33  1217.79  1242.13
                             1247.88  1264.62  1296.53  1301.38  1327.56
                             1338.03  1373.53  1379.98  1394.40  1410.04
                             1424.41  1452.64  1464.51  1470.32  1498.31
                             1517.65  1537.46  1546.22  1570.14  1586.55
                             1619.31  1644.50  1650.38  1665.33  1689.50
                             1713.17  1750.48  1755.03  1778.01  1792.26
                             1803.14  1809.31  1824.93  1831.66  1846.18
                             1853.28  1873.98  1889.49  1895.94  1936.94
                             1943.19  1949.60  1968.99  1975.55  2007.35
                             2023.71  2054.73  2064.45  2084.97  2121.82
                             2155.81  2162.87  2179.83  2187.00  2189.56
                             2191.93  2195.33  2207.62  2215.58  2222.21
                             2230.66  2244.27  4298.03  4332.97  4365.60
                             4374.65  4377.22  4383.87  4400.64  4401.10
                             4410.34  4413.80  4418.18  4441.21  4444.13
                             4453.74  4456.29  4466.75  4469.74  4477.60
                             4479.76  4490.78  4496.65  4498.97  4505.47
                             4517.35  5399.40  5402.20

 Zero-point correction=                           0.393028 (Hartree/Particle)
 Thermal correction to Energy=                    0.409999
 Thermal correction to Enthalpy=                  0.410944
 Thermal correction to Gibbs Free Energy=         0.349835
 Sum of electronic and zero-point Energies=           -737.336826
 Sum of electronic and thermal Energies=              -737.319854
 Sum of electronic and thermal Enthalpies=            -737.318910
 Sum of electronic and thermal Free Energies=         -737.380018

                     E (Thermal)             CV                S
                      KCal/Mol        Cal/Mol-Kelvin    Cal/Mol-Kelvin
 Total                  257.279             69.388            128.615
 Electronic               0.000              0.000              0.000
 Translational            0.889              2.981             42.305
 Rotational               0.889              2.981             32.750
 Vibrational            255.501             63.426             53.559
 Vibration     1          0.595              1.980              5.060
 Vibration     2          0.595              1.979              4.934
 Vibration     3          0.599              1.967              4.080
 Vibration     4          0.606              1.943              3.306
 Vibration     5          0.616              1.910              2.761
 Vibration     6          0.624              1.885              2.488
 Vibration     7          0.632              1.857              2.250
 Vibration     8          0.637              1.841              2.143
 Vibration     9          0.648              1.808              1.945
 Vibration    10          0.657              1.779              1.801
 Vibration    11          0.673              1.731              1.606
 Vibration    12          0.682              1.706              1.518
 Vibration    13          0.687              1.689              1.464
 Vibration    14          0.705              1.638              1.317
 Vibration    15          0.710              1.624              1.281
 Vibration    16          0.719              1.599              1.219
 Vibration    17          0.734              1.555              1.122
 Vibration    18          0.745              1.527              1.067
 Vibration    19          0.752              1.508              1.029
 Vibration    20          0.765              1.473              0.967
 Vibration    21          0.771              1.456              0.940
 Vibration    22          0.795              1.394              0.843
 Vibration    23          0.827              1.317              0.737
 Vibration    24          0.834              1.300              0.716
 Vibration    25          0.847              1.269              0.680
 Vibration    26          0.874              1.208              0.612
 Vibration    27          0.916              1.117              0.523
 Vibration    28          0.946              1.056              0.469

                           ! Non-Optimized Parameters !
 Normal termination of Gaussian 16 at Sun Dec 13 16:33:11 2020.

 ----------------------------------------------------------------------
 # B3LYP/6-311++G(d,p) empiricaldispersion=gd3bj scf=xqc pop=npa geom=c
 heck
 ----------------------------------------------------------------------

 ---------------------------------------
 CID_139233768_JID_7206_Energie_neutraal
 ---------------------------------------
 Structure from the checkpoint file:  "JID_7206.chk"
 Charge =  0 Multiplicity = 1

 SCF Done:  E(RB3LYP) =  -737.948152461     A.U. after   14 cycles
 Normal termination of Gaussian 16 at Sun Dec 13 16:44:16 2020.

 ----------------------------------------------------------------------
 # B3LYP/6-311++G(d,p) empiricaldispersion=gd3bj scf=xqc pop=npa geom=c
 heck
 ----------------------------------------------------------------------

 -------------------------------------
 CID_139233768_JID_7206_Energie_kation
 -------------------------------------
 Structure from the checkpoint file:  "JID_7206.chk"
 Charge =  1 Multiplicity = 2

 SCF Done:  E(UB3LYP) =  -737.627532937     A.U. after   26 cycles
 Normal termination of Gaussian 16 at Sun Dec 13 17:13:33 2020.
 Gaussian 16:  ES64L-G16RevA.03 25-Dec-2016

 ----------------------------------------------------------------------
 # B3LYP/6-311++G(d,p) empiricaldispersion=gd3bj scf=xqc pop=npa geom=c
 heck
 ----------------------------------------------------------------------

 ------------------------------------
 CID_139233768_JID_7206_Energie_anion
 ------------------------------------
 Structure from the checkpoint file:  "JID_7206.chk"
 Charge = -1 Multiplicity = 2

                         Standard orientation:
 ---------------------------------------------------------------------
 Center     Atomic      Atomic             Coordinates (Angstroms)
 Number     Number       Type             X           Y           Z
 ---------------------------------------------------------------------
      1          6           0       -1.568716   -2.013339   -1.093285
      2          6           0       -1.683316   -1.118989    0.149798
      3          6           0       -3.036436   -0.331962    0.203055
      4          6           0       -3.346354    0.330428   -1.153626
      5          6           0       -2.223447    1.405343   -1.269173
      6          6           0       -1.511184    1.323658    0.101603
      7          6           0       -2.660400    0.908606    1.037360
      8          6           0       -0.614735    0.063558    0.167333
      9          6           0        0.409122    0.143658    1.346383
     10          6           0        1.596626    0.177982    0.342008
     11          6           0        0.580534    0.037973   -0.830263
     12          6           0        2.521951   -1.038721    0.496888
     13          6           0        3.515948   -1.292828   -0.630089
     14          8           0        4.578328   -0.344255   -0.544259
     15          6           0        2.378632    1.495395    0.358596
     16          8           0        1.544892    2.655821    0.316925
     17          6           0       -1.595705   -2.037279    1.379486
     18          1           0       -2.443258   -2.670436   -1.172802
     19          1           0       -0.682698   -2.656188   -1.031523
     20          1           0       -1.493425   -1.442177   -2.022599
     21          1           0       -3.858690   -0.944598    0.587101
     22          1           0       -3.361741   -0.370971   -1.991057
     23          1           0       -4.335005    0.801346   -1.113629
     24          1           0       -1.539826    1.204525   -2.101191
     25          1           0       -2.640808    2.404773   -1.432407
     26          1           0       -0.964886    2.229152    0.373456
     27          1           0       -2.324530    0.680563    2.053643
     28          1           0       -3.468138    1.647150    1.094328
     29          1           0        0.304296    1.048843    1.950796
     30          1           0        0.436196   -0.718082    2.016072
     31          1           0        0.694876   -0.889998   -1.396305
     32          1           0        0.581383    0.858062   -1.559594
     33          1           0        3.081379   -0.963539    1.439443
     34          1           0        1.889837   -1.933453    0.581655
     35          1           0        3.909080   -2.317649   -0.538126
     36          1           0        3.003643   -1.224889   -1.603800
     37          1           0        5.174904   -0.495834   -1.292545
     38          1           0        2.937132    1.572457    1.297809
     39          1           0        3.111711    1.512063   -0.456123
     40          1           0        1.166073    2.708107   -0.573261
     41          1           0       -2.379653   -2.802350    1.327209
     42          1           0       -0.632660   -2.558639    1.426628
     43          1           0       -1.726066   -1.491678    2.319045
 ---------------------------------------------------------------------

 SCF Done:  E(UB3LYP) =  -737.937519393     A.U. after   30 cycles

 The electronic state is 2-A.
 Alpha  occ. eigenvalues --  -19.02519 -19.01837 -10.11163 -10.10781 -10.08837
 Alpha  occ. eigenvalues --  -10.08155 -10.07921 -10.07668 -10.07242 -10.06985
 Alpha  occ. eigenvalues --  -10.06979 -10.06977 -10.06957 -10.06551 -10.06418
 Alpha  occ. eigenvalues --  -10.06180 -10.06059  -0.92485  -0.91847  -0.79048
 Alpha  occ. eigenvalues --   -0.74313  -0.68857  -0.66298  -0.62439  -0.61295
 Alpha  occ. eigenvalues --   -0.59190  -0.58730  -0.56454  -0.54064  -0.51665
 Alpha  occ. eigenvalues --   -0.47791  -0.46396  -0.44056  -0.42192  -0.40881
 Alpha  occ. eigenvalues --   -0.40614  -0.39841  -0.39036  -0.37558  -0.35607
 Alpha  occ. eigenvalues --   -0.35291  -0.34246  -0.33525  -0.32483  -0.31477
 Alpha  occ. eigenvalues --   -0.30548  -0.29636  -0.29147  -0.28664  -0.27423
 Alpha  occ. eigenvalues --   -0.27339  -0.27059  -0.25803  -0.25283  -0.25067
 Alpha  occ. eigenvalues --   -0.24047  -0.23977  -0.23788  -0.22842  -0.21701
 Alpha  occ. eigenvalues --   -0.20623  -0.19791  -0.19028  -0.18280  -0.17542
 Alpha  occ. eigenvalues --   -0.16685   0.04081
 Alpha virt. eigenvalues --    0.05724   0.06595   0.07381   0.07554   0.08237
 Alpha virt. eigenvalues --    0.08997   0.09085   0.09671   0.09724   0.10558
 Alpha virt. eigenvalues --    0.11199   0.11311   0.12012   0.12262   0.12600

  Beta  occ. eigenvalues --  -19.02510 -19.01796 -10.11124 -10.10773 -10.08836
  Beta  occ. eigenvalues --  -10.08153 -10.07922 -10.07661 -10.07241 -10.06978
  Beta  occ. eigenvalues --  -10.06973 -10.06964 -10.06944 -10.06535 -10.06399
  Beta  occ. eigenvalues --  -10.06157 -10.06056  -0.92465  -0.91757  -0.79038
  Beta  occ. eigenvalues --   -0.74300  -0.68839  -0.66261  -0.62410  -0.61260
  Beta  occ. eigenvalues --   -0.59158  -0.58701  -0.56424  -0.54027  -0.51602
  Beta  occ. eigenvalues --   -0.47754  -0.46378  -0.44025  -0.42085  -0.40849
  Beta  occ. eigenvalues --   -0.40572  -0.39801  -0.39016  -0.37531  -0.35591
  Beta  occ. eigenvalues --   -0.35268  -0.34220  -0.33507  -0.32461  -0.31452
  Beta  occ. eigenvalues --   -0.30526  -0.29614  -0.29118  -0.28641  -0.27400
  Beta  occ. eigenvalues --   -0.27318  -0.27038  -0.25784  -0.25259  -0.25052
  Beta  occ. eigenvalues --   -0.23998  -0.23961  -0.23771  -0.22823  -0.21682
  Beta  occ. eigenvalues --   -0.20607  -0.19773  -0.19012  -0.18267  -0.17508
  Beta  occ. eigenvalues --   -0.16661
  Beta virt. eigenvalues --    0.05962   0.06907   0.07118   0.07674   0.08148
  Beta virt. eigenvalues --    0.08769   0.09148   0.09317   0.09747   0.10166
  Beta virt. eigenvalues --    0.10969   0.11301   0.11585   0.12156   0.12430

 Mulliken charges and spin densities:
               1          2
     1  C    0.590963  -1.276052
     2  C    0.294027   0.301208
     3  C   -0.927468   1.175802
     4  C    0.287886  -0.894914
     5  C   -0.357495  -0.224555
     6  C    0.217120   0.194858
     7  C   -0.020897  -0.723731
     8  C    0.409626  -0.392379
     9  C   -0.728738   0.198706
    10  C    0.695509   0.209339
    11  C   -1.184872   0.296563
    12  C   -1.502074   0.967511
    13  C    1.511267  -2.083714
    14  O   -0.324296   0.062719
    15  C    0.282419  -0.769966
    16  O   -0.133057  -0.016807
    17  C    0.154270  -0.723450
    18  H   -0.075622   0.242538
    19  H   -0.124674   0.257720
    20  H   -0.135852   0.294598
    21  H   -0.208416   0.437186
    22  H    0.047146   0.090069
    23  H   -0.054038   0.201824
    24  H    0.007789   0.110709
    25  H   -0.018690   0.177233
    26  H    0.302821  -0.046203
    27  H    0.114596   0.007143
    28  H   -0.045760   0.207105
    29  H    0.104201   0.090550
    30  H    0.177522   0.005784
    31  H    0.736864  -0.574080
    32  H   -0.469387   0.629737
    33  H    0.135873   0.054106
    34  H    0.342478  -0.215215
    35  H   -0.523004   0.696756
    36  H   -0.738312   0.893701
    37  H   -0.227285   0.492815
    38  H    0.148182   0.021261
    39  H    0.195614   0.022372
    40  H    0.136480   0.097703
    41  H    0.022253   0.132688
    42  H   -0.194606   0.317558
    43  H    0.079636   0.053202
 Sum of Mulliken charges =  -1.00000   1.00000

 Dipole moment (field-independent basis, Debye):
    X=             -5.4120    Y=              2.0910    Z=              4.0509  Tot=              7.0761
 Quadrupole moment (field-independent basis, Debye-Ang):
   XX=           -200.5314   YY=           -154.2875   ZZ=           -145.5783
   XY=              4.8492   XZ=             11.4039   YZ=             -5.7583

 Summary of Natural Population Analysis:

                                       Natural Population
                Natural  -----------------------------------------------
    Atom  No    Charge         Core      Valence    Rydberg      Total
 -----------------------------------------------------------------------
      C    1   -0.28892      0.99962     2.28168    0.00762     3.28892
      C    2   -0.03506      0.99952     2.02129    0.01425     3.03506
      C    3   -0.10559      0.99957     2.09361    0.01242     3.10559
      C    4   -0.19294      0.99963     2.18496    0.00835     3.19294
      C    5   -0.19492      0.99963     2.18675    0.00854     3.19492
      C    6   -0.11192      0.99954     2.10030    0.01208     3.11192
      C    7   -0.19170      0.99961     2.18306    0.00903     3.19170
      C    8   -0.02314      0.99953     2.00739    0.01622     3.02314
      C    9   -0.18440      0.99957     2.17642    0.00841     3.18440
      C   10   -0.05156      0.99955     2.03892    0.01308     3.05156
      C   11   -0.19173      0.99956     2.17970    0.01247     3.19173
      C   12   -0.19438      0.99957     2.18417    0.01064     3.19438
      C   13   -0.00907      0.99959     1.99686    0.01261     3.00907
      O   14   -0.37567      0.99989     3.36881    0.00696     4.37567
      C   15   -0.00773      0.99951     1.99519    0.01304     3.00773
      O   16   -0.37426      0.99990     3.36839    0.00597     4.37426
      C   17   -0.28541      0.99962     2.27833    0.00746     3.28541
      H   18    0.10061      0.00000     0.39853    0.00086     0.39939
      H   19    0.10194      0.00000     0.39697    0.00109     0.39806
      H   20    0.10249      0.00000     0.39636    0.00114     0.39751
      H   21    0.10115      0.00000     0.39790    0.00095     0.39885
      H   22    0.10129      0.00000     0.39765    0.00105     0.39871
      H   23    0.09688      0.00000     0.40207    0.00104     0.40312
      H   24    0.10032      0.00000     0.39844    0.00124     0.39968
      H   25    0.09851      0.00000     0.40061    0.00088     0.40149
      H   26    0.10882      0.00000     0.38965    0.00153     0.39118
      H   27    0.10079      0.00000     0.39838    0.00083     0.39921
      H   28    0.09833      0.00000     0.40082    0.00085     0.40167
      H   29    0.10397      0.00000     0.39493    0.00109     0.39603
      H   30    0.10000      0.00000     0.39903    0.00097     0.40000
      H   31    0.10642      0.00000     0.39173    0.00185     0.39358
      H   32    0.09546      0.00000     0.40281    0.00173     0.40454
      H   33    0.10094      0.00000     0.39779    0.00127     0.39906
      H   34    0.10046      0.00000     0.39799    0.00155     0.39954
      H   35    0.07877      0.00000     0.41928    0.00194     0.42123
      H   36    0.07988      0.00000     0.41693    0.00319     0.42012
      H   37    0.23518      0.00000     0.25621    0.00861     0.26482
      H   38    0.08559      0.00000     0.41333    0.00107     0.41441
      H   39    0.09418      0.00000     0.40444    0.00139     0.40582
      H   40    0.22666      0.00000     0.27026    0.00308     0.27334
      H   41    0.10008      0.00000     0.39910    0.00082     0.39992
      H   42    0.10007      0.00000     0.39905    0.00088     0.39993
      H   43    0.09960      0.00000     0.39963    0.00077     0.40040
 =======================================================================
   * Total *    0.00000     16.99340    48.78577    0.22083    66.00000

 Normal termination of Gaussian 16 at Sun Dec 13 17:44:47 2020.
