 Gaussian 16, Revision A.03,

 -----------------------------------------------------------
 # opt freq B3LYP/6-31G(d) empiricaldispersion=gd3bj scf=xqc
 -----------------------------------------------------------

 -------------------------------
 CID_134447380_JID_4826_neutraal
 -------------------------------
 Symbolic Z-matrix:
 Charge =  0 Multiplicity = 1

 SCF Done:  E(RB3LYP) =  -565.232866033     A.U. after   13 cycles
 SCF Done:  E(RB3LYP) =  -565.235298542     A.U. after   11 cycles
 SCF Done:  E(RB3LYP) =  -565.235416283     A.U. after   12 cycles
 SCF Done:  E(RB3LYP) =  -565.237315277     A.U. after   11 cycles
 SCF Done:  E(RB3LYP) =  -565.238500048     A.U. after   11 cycles
 SCF Done:  E(RB3LYP) =  -565.238531177     A.U. after   11 cycles
 SCF Done:  E(RB3LYP) =  -565.238905089     A.U. after   11 cycles
 SCF Done:  E(RB3LYP) =  -565.239216095     A.U. after   10 cycles
 SCF Done:  E(RB3LYP) =  -565.239185864     A.U. after   10 cycles
 SCF Done:  E(RB3LYP) =  -565.239273930     A.U. after   10 cycles
 SCF Done:  E(RB3LYP) =  -565.239285285     A.U. after    7 cycles
 SCF Done:  E(RB3LYP) =  -565.239285391     A.U. after    6 cycles
 SCF Done:  E(RB3LYP) =  -565.239285494     A.U. after    6 cycles
 SCF Done:  E(RB3LYP) =  -565.239285620     A.U. after    7 cycles
 SCF Done:  E(RB3LYP) =  -565.239285714     A.U. after    6 cycles
 SCF Done:  E(RB3LYP) =  -565.239285758     A.U. after    6 cycles
 Optimization completed.
    -- Stationary point found.
 Normal termination of Gaussian 16 at Thu Dec 10 10:47:36 2020.

 --------------------------------------------------------------------
 #N Geom=AllCheck Guess=TCheck SCRF=Check GenChk RB3LYP/6-31G(d) Freq
 --------------------------------------------------------------------

 Structure from the checkpoint file:  "JID_4826.chk"
 -------------------------------
 CID_134447380_JID_4826_neutraal
 -------------------------------
 Charge =  0 Multiplicity = 1

 SCF Done:  E(RB3LYP) =  -565.239285758     A.U. after    1 cycles

  Exact polarizability: 143.876   6.711 140.891  -8.705   1.030 138.289
 Approx polarizability: 194.540  11.711 187.368 -17.324   2.193 213.195

                      1                      2                      3
                      A                      A                      A
 Frequencies --     28.4546                54.6132                85.6550
 Red. masses --      2.5116                 3.2310                 2.6993
 Frc consts  --      0.0012                 0.0057                 0.0117
 IR Inten    --      0.0181                 0.4777                 0.0254

                      4                      5                      6
                      A                      A                      A
 Frequencies --    100.6694               115.2853               150.5062
 Red. masses --      3.5249                 2.5835                 2.5413
 Frc consts  --      0.0210                 0.0202                 0.0339
 IR Inten    --      0.5557                 0.1120                 1.6127

                      7                      8                      9
                      A                      A                      A
 Frequencies --    188.5810               204.1817               208.2531
 Red. masses --      2.6425                 1.7490                 1.6536
 Frc consts  --      0.0554                 0.0430                 0.0423
 IR Inten    --      0.1790                 0.0359                 1.0453

                     10                     11                     12
                      A                      A                      A
 Frequencies --    238.5414               252.7980               262.0060
 Red. masses --      1.0727                 1.2768                 1.9303
 Frc consts  --      0.0360                 0.0481                 0.0781
 IR Inten    --      0.1690                 0.0708                 0.4888

                     13                     14                     15
                      A                      A                      A
 Frequencies --    275.2970               297.3719               308.8691
 Red. masses --      2.2685                 2.1957                 1.2476
 Frc consts  --      0.1013                 0.1144                 0.0701
 IR Inten    --      0.2951                 2.8927                 0.5377

                     16                     17                     18
                      A                      A                      A
 Frequencies --    323.0293               334.0203               363.0695
 Red. masses --      2.2823                 2.3208                 2.6295
 Frc consts  --      0.1403                 0.1526                 0.2042
 IR Inten    --      0.3196                 0.6803                 1.2038

                     19                     20                     21
                      A                      A                      A
 Frequencies --    388.0494               424.4097               450.3208
 Red. masses --      2.0397                 1.9178                 2.5743
 Frc consts  --      0.1810                 0.2035                 0.3076
 IR Inten    --      0.6737                 0.8824                 0.7644

                     22                     23                     24
                      A                      A                      A
 Frequencies --    504.7773               571.2111               589.7897
 Red. masses --      2.5369                 2.2042                 3.0802
 Frc consts  --      0.3809                 0.4237                 0.6313
 IR Inten    --      2.9965                 0.8503                 0.4905

                     25                     26                     27
                      A                      A                      A
 Frequencies --    634.8541               656.7262               684.4757
 Red. masses --      3.4732                 2.7760                 1.5045
 Frc consts  --      0.8248                 0.7054                 0.4153
 IR Inten    --      1.5357                 6.3966                 0.7891

                     28                     29                     30
                      A                      A                      A
 Frequencies --    721.4062               781.9488               802.7128
 Red. masses --      1.7019                 1.5170                 2.4691
 Frc consts  --      0.5218                 0.5465                 0.9374
 IR Inten    --      5.1697                54.4273                 1.0642

                     31                     32                     33
                      A                      A                      A
 Frequencies --    839.3103               858.5389               899.7786
 Red. masses --      2.0472                 2.0561                 1.7078
 Frc consts  --      0.8497                 0.8929                 0.8146
 IR Inten    --      0.1787                 2.4541                 1.8019

                     34                     35                     36
                      A                      A                      A
 Frequencies --    922.9492               933.9817               937.9405
 Red. masses --      1.5823                 1.4690                 1.3030
 Frc consts  --      0.7941                 0.7550                 0.6754
 IR Inten    --      2.5914                 2.2396                 2.2568

                     37                     38                     39
                      A                      A                      A
 Frequencies --    948.3490               957.4502               960.9340
 Red. masses --      1.5147                 1.7979                 1.8306
 Frc consts  --      0.8026                 0.9711                 0.9959
 IR Inten    --      1.7887                 1.0111                 0.4621

                     40                     41                     42
                      A                      A                      A
 Frequencies --    970.5147               982.0669               983.6225
 Red. masses --      1.8997                 1.4592                 1.5724
 Frc consts  --      1.0542                 0.8292                 0.8963
 IR Inten    --      0.1809                 0.1877                 0.2752

                     43                     44                     45
                      A                      A                      A
 Frequencies --   1032.3614              1078.3792              1087.0725
 Red. masses --      1.8999                 1.5813                 1.5593
 Frc consts  --      1.1930                 1.0835                 1.0856
 IR Inten    --      5.3333                 0.6237                 2.4921

                     46                     47                     48
                      A                      A                      A
 Frequencies --   1097.3242              1141.0880              1148.0736
 Red. masses --      1.5841                 1.9727                 2.3385
 Frc consts  --      1.1238                 1.5134                 1.8161
 IR Inten    --      5.9523                16.6963                 2.3827

                     49                     50                     51
                      A                      A                      A
 Frequencies --   1157.8596              1173.8384              1202.5839
 Red. masses --      2.0810                 1.7870                 1.8712
 Frc consts  --      1.6437                 1.4508                 1.5944
 IR Inten    --     18.7085                 2.4366                20.4281

                     52                     53                     54
                      A                      A                      A
 Frequencies --   1208.3283              1212.1118              1232.4483
 Red. masses --      1.9042                 2.6037                 1.8716
 Frc consts  --      1.6381                 2.2539                 1.6749
 IR Inten    --      7.5590                18.4510                16.5043

                     55                     56                     57
                      A                      A                      A
 Frequencies --   1236.7846              1287.5673              1302.6214
 Red. masses --      1.5872                 1.3080                 1.3437
 Frc consts  --      1.4305                 1.2776                 1.3433
 IR Inten    --      2.6151                 8.1927                 1.3668

                     58                     59                     60
                      A                      A                      A
 Frequencies --   1335.0939              1336.4649              1354.2924
 Red. masses --      1.3382                 1.3129                 1.3146
 Frc consts  --      1.4054                 1.3817                 1.4206
 IR Inten    --      0.3384                 4.6029                 4.6803

                     61                     62                     63
                      A                      A                      A
 Frequencies --   1357.9139              1374.3034              1381.4579
 Red. masses --      1.3586                 1.3247                 1.8201
 Frc consts  --      1.4760                 1.4741                 2.0465
 IR Inten    --      2.7766                 6.9127                37.7126

                     64                     65                     66
                      A                      A                      A
 Frequencies --   1387.3291              1391.0943              1407.1103
 Red. masses --      1.4807                 1.3194                 1.5218
 Frc consts  --      1.6791                 1.5043                 1.7753
 IR Inten    --     25.8355                 4.5778                 3.2131

                     67                     68                     69
                      A                      A                      A
 Frequencies --   1411.0997              1425.2181              1429.8233
 Red. masses --      1.7394                 1.2352                 1.2715
 Frc consts  --      2.0407                 1.4783                 1.5316
 IR Inten    --     73.9920                 9.2605                 2.6766

                     70                     71                     72
                      A                      A                      A
 Frequencies --   1435.0798              1449.1304              1453.7912
 Red. masses --      1.4064                 1.2519                 1.2471
 Frc consts  --      1.7065                 1.5489                 1.5529
 IR Inten    --      6.3889                13.4109                 4.8036

                     73                     74                     75
                      A                      A                      A
 Frequencies --   1484.3572              1503.3163              1514.8772
 Red. masses --      1.3461                 1.0766                 1.0514
 Frc consts  --      1.7474                 1.4336                 1.4216
 IR Inten    --     26.2419                 0.4532                 3.8138

                     76                     77                     78
                      A                      A                      A
 Frequencies --   1519.3507              1521.1855              1522.3149
 Red. masses --      1.0880                 1.0497                 1.0496
 Frc consts  --      1.4797                 1.4311                 1.4331
 IR Inten    --      1.1610                 0.6696                 1.6644

                     79                     80                     81
                      A                      A                      A
 Frequencies --   1529.0188              1531.4051              1534.4213
 Red. masses --      1.0586                 1.1003                 1.0573
 Frc consts  --      1.4581                 1.5203                 1.4667
 IR Inten    --      3.3347                 3.2942                 5.1755

                     82                     83                     84
                      A                      A                      A
 Frequencies --   1537.7386              1538.9044              1546.8812
 Red. masses --      1.0477                 1.0489                 1.0554
 Frc consts  --      1.4597                 1.4635                 1.4879
 IR Inten    --     10.5244                 5.1638                14.1298

                     85                     86                     87
                      A                      A                      A
 Frequencies --   1559.1486              1666.1919              2954.7626
 Red. masses --      1.0939                 4.1112                 1.0744
 Frc consts  --      1.5667                 6.7247                 5.5268
 IR Inten    --      2.1862               118.7639                60.3671

                     88                     89                     90
                      A                      A                      A
 Frequencies --   3020.5359              3024.0474              3036.0338
 Red. masses --      1.0781                 1.0776                 1.0487
 Frc consts  --      5.7954                 5.8063                 5.6954
 IR Inten    --     11.8263                16.2161                28.6973

                     91                     92                     93
                      A                      A                      A
 Frequencies --   3038.5640              3040.1014              3051.6730
 Red. masses --      1.0678                 1.0830                 1.0384
 Frc consts  --      5.8087                 5.8973                 5.6978
 IR Inten    --     70.6165                 6.7960                21.4774

                     94                     95                     96
                      A                      A                      A
 Frequencies --   3054.6768              3057.4852              3061.3584
 Red. masses --      1.0427                 1.0391                 1.0647
 Frc consts  --      5.7324                 5.7229                 5.8788
 IR Inten    --     34.2924                33.3873                22.7073

                     97                     98                     99
                      A                      A                      A
 Frequencies --   3074.8750              3085.1861              3099.6994
 Red. masses --      1.0608                 1.0869                 1.0998
 Frc consts  --      5.9094                 6.0953                 6.2261
 IR Inten    --     27.4080                39.0080                15.7297

                    100                    101                    102
                      A                      A                      A
 Frequencies --   3108.3244              3109.6513              3110.6142
 Red. masses --      1.0947                 1.1007                 1.1005
 Frc consts  --      6.2313                 6.2713                 6.2736
 IR Inten    --     52.8773                44.8004                14.7640

                    103                    104                    105
                      A                      A                      A
 Frequencies --   3114.9589              3116.5054              3122.3308
 Red. masses --      1.0998                 1.0998                 1.1013
 Frc consts  --      6.2876                 6.2935                 6.3256
 IR Inten    --     16.4127               108.2703                61.5712

                    106                    107                    108
                      A                      A                      A
 Frequencies --   3123.2599              3133.9531              3141.7352
 Red. masses --      1.0997                 1.1023                 1.0993
 Frc consts  --      6.3203                 6.3785                 6.3930
 IR Inten    --      9.8052                17.9640                30.4759

                    109                    110                    111
                      A                      A                      A
 Frequencies --   3161.7805              3187.6543              3264.4331
 Red. masses --      1.0960                 1.0594                 1.1154
 Frc consts  --      6.4555                 6.3423                 7.0032
 IR Inten    --     22.6859                 2.8934                18.7331

 - Thermochemistry -
 -------------------
 Temperature   298.150 Kelvin.  Pressure   1.00000 Atm.
 Atom     1 has atomic number  6 and mass  12.00000

 Molecular mass:   195.19870 amu.
 Principal axes and moments of inertia in atomic units:
                           1         2         3
     Eigenvalues --  2563.534462876.142053891.38108
           X            0.99994   0.00330   0.01015
           Y           -0.00335   0.99999   0.00399
           Z           -0.01013  -0.00403   0.99994
 This molecule is an asymmetric top.
 Rotational symmetry number  1.
 Warning -- assumption of classical behavior for rotation
           may cause significant error
 Rotational temperatures (Kelvin)      0.03379     0.03011     0.02226
 Rotational constants (GHZ):           0.70401     0.62749     0.46378
 Zero-point vibrational energy     954191.0 (Joules/Mol)
                                  228.05712 (Kcal/Mol)
 Warning -- explicit consideration of  24 degrees of freedom as
           vibrations may cause significant error
 Vibrational temperatures:     40.94    78.58   123.24   144.84   165.87
          (Kelvin)            216.54   271.33   293.77   299.63   343.21
                              363.72   376.97   396.09   427.85   444.39
                              464.77   480.58   522.38   558.32   610.63
                              647.91   726.26   821.85   848.58   913.41
                              944.88   984.81  1037.94  1125.05  1154.92
                             1207.58  1235.25  1294.58  1327.92  1343.79
                             1349.49  1364.46  1377.56  1382.57  1396.35
                             1412.98  1415.21  1485.34  1551.55  1564.05
                             1578.80  1641.77  1651.82  1665.90  1688.89
                             1730.25  1738.51  1743.96  1773.22  1779.46
                             1852.52  1874.18  1920.90  1922.87  1948.52
                             1953.74  1977.32  1987.61  1996.06  2001.47
                             2024.52  2030.26  2050.57  2057.20  2064.76
                             2084.98  2091.68  2135.66  2162.94  2179.57
                             2186.01  2188.65  2190.27  2199.92  2203.35
                             2207.69  2212.46  2214.14  2225.62  2243.27
                             2397.28  4251.24  4345.88  4350.93  4368.18
                             4371.82  4374.03  4390.68  4395.00  4399.04
                             4404.61  4424.06  4438.89  4459.78  4472.19
                             4474.09  4475.48  4481.73  4483.96  4492.34
                             4493.67  4509.06  4520.26  4549.10  4586.32
                             4696.79

 Zero-point correction=                           0.363432 (Hartree/Particle)
 Thermal correction to Energy=                    0.379493
 Thermal correction to Enthalpy=                  0.380437
 Thermal correction to Gibbs Free Energy=         0.320874
 Sum of electronic and zero-point Energies=           -564.875854
 Sum of electronic and thermal Energies=              -564.859793
 Sum of electronic and thermal Enthalpies=            -564.858849
 Sum of electronic and thermal Free Energies=         -564.918412

                     E (Thermal)             CV                S
                      KCal/Mol        Cal/Mol-Kelvin    Cal/Mol-Kelvin
 Total                  238.135             62.314            125.360
 Electronic               0.000              0.000              0.000
 Translational            0.889              2.981             41.712
 Rotational               0.889              2.981             31.729
 Vibrational            236.358             56.352             51.920
 Vibration     1          0.593              1.984              5.934
 Vibration     2          0.596              1.976              4.643
 Vibration     3          0.601              1.959              3.757
 Vibration     4          0.604              1.949              3.441
 Vibration     5          0.608              1.937              3.178
 Vibration     6          0.618              1.902              2.666
 Vibration     7          0.633              1.856              2.242
 Vibration     8          0.640              1.834              2.095
 Vibration     9          0.642              1.828              2.059
 Vibration    10          0.657              1.782              1.814
 Vibration    11          0.664              1.758              1.711
 Vibration    12          0.669              1.742              1.648
 Vibration    13          0.677              1.719              1.563
 Vibration    14          0.691              1.679              1.432
 Vibration    15          0.698              1.657              1.368
 Vibration    16          0.708              1.629              1.295
 Vibration    17          0.716              1.608              1.241
 Vibration    18          0.737              1.548              1.109
 Vibration    19          0.756              1.496              1.008
 Vibration    20          0.786              1.417              0.877
 Vibration    21          0.809              1.360              0.795
 Vibration    22          0.860              1.239              0.646
 Vibration    23          0.927              1.094              0.502
 Vibration    24          0.947              1.054              0.468

 Optimization completed.
    -- Stationary point found.
 Normal termination of Gaussian 16 at Thu Dec 10 11:02:20 2020.

 ----------------------------------------------------------------------
 # B3LYP/6-311++G(d,p) empiricaldispersion=gd3bj scf=xqc pop=npa geom=c
 heck
 ----------------------------------------------------------------------

 ---------------------------------------
 CID_134447380_JID_4826_Energie_neutraal
 ---------------------------------------
 Structure from the checkpoint file:  "JID_4826.chk"
 Charge =  0 Multiplicity = 1

 SCF Done:  E(RB3LYP) =  -565.393565543     A.U. after   14 cycles
 Normal termination of Gaussian 16 at Thu Dec 10 11:09:31 2020.

 ----------------------------------------------------------------------
 # B3LYP/6-311++G(d,p) empiricaldispersion=gd3bj scf=xqc pop=npa geom=c
 heck
 ----------------------------------------------------------------------

 -------------------------------------
 CID_134447380_JID_4826_Energie_kation
 -------------------------------------
 Structure from the checkpoint file:  "JID_4826.chk"
 Charge =  1 Multiplicity = 2

 SCF Done:  E(UB3LYP) =  -565.141497312     A.U. after   18 cycles
 Normal termination of Gaussian 16 at Thu Dec 10 11:21:46 2020.
 Gaussian 16:  ES64L-G16RevA.03 25-Dec-2016

 ----------------------------------------------------------------------
 # B3LYP/6-311++G(d,p) empiricaldispersion=gd3bj scf=xqc pop=npa geom=c
 heck
 ----------------------------------------------------------------------

 ------------------------------------
 CID_134447380_JID_4826_Energie_anion
 ------------------------------------
 Structure from the checkpoint file:  "JID_4826.chk"
 Charge = -1 Multiplicity = 2

                         Standard orientation:
 ---------------------------------------------------------------------
 Center     Atomic      Atomic             Coordinates (Angstroms)
 Number     Number       Type             X           Y           Z
 ---------------------------------------------------------------------
      1          6           0        1.537069   -0.968286    1.573765
      2          6           0        2.200303   -0.895757    0.193493
      3          6           0        2.929558   -2.212812   -0.111625
      4          6           0        1.220678   -0.590767   -0.955317
      5          6           0        0.443630    0.738912   -0.968682
      6          6           0        1.363289    1.978508   -0.903124
      7          6           0        0.525310    3.042108   -0.190638
      8          6           0       -0.229420    2.206820    0.841365
      9          7           0       -0.525310    0.970890    0.124905
     10          6           0       -1.510158    0.122818    0.622514
     11          6           0       -1.935319    0.235167    1.901567
     12          6           0       -2.259647   -0.880958   -0.271359
     13          6           0       -2.285490   -0.580823   -1.776494
     14          6           0       -1.874511   -2.346288    0.004895
     15          1           0        0.728069   -1.706648    1.585109
     16          1           0        1.101980   -0.014033    1.875947
     17          1           0        2.271747   -1.262490    2.333054
     18          1           0        2.961750   -0.103742    0.223740
     19          1           0        2.220687   -3.050311   -0.145846
     20          1           0        3.446679   -2.173758   -1.077693
     21          1           0        3.672870   -2.439611    0.661223
     22          1           0        1.787706   -0.611213   -1.897748
     23          1           0        0.508502   -1.418105   -1.028903
     24          1           0       -0.090052    0.768368   -1.926539
     25          1           0        2.254307    1.758846   -0.305951
     26          1           0        1.701186    2.276803   -1.900251
     27          1           0        1.127841    3.835989    0.261257
     28          1           0       -0.186036    3.504275   -0.885102
     29          1           0        0.395135    2.038665    1.737072
     30          1           0       -1.165069    2.662701    1.182131
     31          1           0       -2.794386   -0.332304    2.241898
     32          1           0       -1.451587    0.870579    2.632996
     33          1           0       -3.298636   -0.786336    0.067179
     34          1           0       -1.360768   -0.878504   -2.279173
     35          1           0       -3.099449   -1.144796   -2.245943
     36          1           0       -2.456123    0.483089   -1.970223
     37          1           0       -1.925933   -2.560802    1.076240
     38          1           0       -2.563286   -3.021916   -0.516610
     39          1           0       -0.861718   -2.582831   -0.334358
 ---------------------------------------------------------------------

 SCF Done:  E(UB3LYP) =  -565.378132518     A.U. after   31 cycles

 The electronic state is 2-A.
 Alpha  occ. eigenvalues --  -14.22071 -10.10586 -10.10473 -10.09649 -10.08374
 Alpha  occ. eigenvalues --  -10.07473 -10.06853 -10.06624 -10.06423 -10.06285
 Alpha  occ. eigenvalues --  -10.06136 -10.06008 -10.05310 -10.03553  -0.84740
 Alpha  occ. eigenvalues --   -0.72431  -0.71014  -0.67956  -0.65026  -0.61675
 Alpha  occ. eigenvalues --   -0.58858  -0.58452  -0.57203  -0.51928  -0.49786
 Alpha  occ. eigenvalues --   -0.48984  -0.46634  -0.42381  -0.40005  -0.38425
 Alpha  occ. eigenvalues --   -0.37214  -0.35394  -0.34617  -0.33889  -0.33227
 Alpha  occ. eigenvalues --   -0.32301  -0.31311  -0.30859  -0.30045  -0.29510
 Alpha  occ. eigenvalues --   -0.29242  -0.28473  -0.28266  -0.26513  -0.25236
 Alpha  occ. eigenvalues --   -0.24795  -0.24570  -0.24168  -0.23763  -0.23302
 Alpha  occ. eigenvalues --   -0.22577  -0.22112  -0.21288  -0.17741  -0.09151
 Alpha  occ. eigenvalues --    0.04418
 Alpha virt. eigenvalues --    0.06378   0.06795   0.07251   0.08520   0.08715
 Alpha virt. eigenvalues --    0.08876   0.09098   0.09307   0.10693   0.11046
 Alpha virt. eigenvalues --    0.11163   0.11548   0.11743   0.12181   0.12431

  Beta  occ. eigenvalues --  -14.22069 -10.10586 -10.10464 -10.09637 -10.08366
  Beta  occ. eigenvalues --  -10.07465 -10.06829 -10.06598 -10.06408 -10.06267
  Beta  occ. eigenvalues --  -10.06115 -10.05982 -10.05297 -10.03549  -0.84728
  Beta  occ. eigenvalues --   -0.72411  -0.70990  -0.67928  -0.64996  -0.61652
  Beta  occ. eigenvalues --   -0.58815  -0.58416  -0.57162  -0.51893  -0.49739
  Beta  occ. eigenvalues --   -0.48931  -0.46590  -0.42350  -0.39977  -0.38400
  Beta  occ. eigenvalues --   -0.37179  -0.35360  -0.34589  -0.33860  -0.33198
  Beta  occ. eigenvalues --   -0.32267  -0.31286  -0.30835  -0.30018  -0.29478
  Beta  occ. eigenvalues --   -0.29223  -0.28455  -0.28237  -0.26486  -0.25205
  Beta  occ. eigenvalues --   -0.24768  -0.24537  -0.24133  -0.23730  -0.23279
  Beta  occ. eigenvalues --   -0.22551  -0.22079  -0.21259  -0.17726  -0.09143
  Beta virt. eigenvalues --    0.06453   0.07152   0.07352   0.07890   0.08963
  Beta virt. eigenvalues --    0.09117   0.09221   0.09347   0.09732   0.10981
  Beta virt. eigenvalues --    0.11406   0.11569   0.11852   0.12084   0.12444

 Mulliken charges and spin densities:
               1          2
     1  C   -0.440093  -0.131176
     2  C   -0.886413   1.115055
     3  C    0.909377  -1.544603
     4  C    1.259587  -1.538832
     5  C   -1.710741   1.905961
     6  C    0.872753  -1.445090
     7  C    0.490686  -1.022535
     8  C    0.076289  -0.251209
     9  N    0.151185   0.069139
    10  C    0.793723  -0.372139
    11  C    0.313335  -0.948815
    12  C   -1.723759   1.585479
    13  C    0.429833  -1.055481
    14  C    0.220433  -0.797104
    15  H    0.094575   0.053202
    16  H    0.116698  -0.026400
    17  H   -0.081411   0.234056
    18  H   -0.207841   0.355012
    19  H    0.020282   0.108855
    20  H   -0.156866   0.292226
    21  H   -0.069817   0.202166
    22  H   -0.210464   0.400258
    23  H    0.485787  -0.408530
    24  H    0.034238   0.184049
    25  H    0.238602  -0.107416
    26  H   -0.699440   0.885934
    27  H   -0.513653   0.696416
    28  H    0.064882   0.075898
    29  H   -0.031034   0.155193
    30  H    0.089290   0.067770
    31  H    0.022099   0.110180
    32  H    0.027758   0.083597
    33  H   -0.024148   0.219609
    34  H   -0.244298   0.397386
    35  H   -0.531642   0.691259
    36  H   -0.051365   0.206849
    37  H    0.057733   0.093324
    38  H   -0.103867   0.241835
    39  H   -0.082290   0.218619
 Sum of Mulliken charges =  -1.00000   1.00000

 Dipole moment (field-independent basis, Debye):
    X=             -1.0930    Y=             -1.3735    Z=              3.4581  Tot=              3.8781
 Quadrupole moment (field-independent basis, Debye-Ang):
   XX=           -151.8446   YY=           -145.9598   ZZ=           -139.1280
   XY=             -5.9682   XZ=             -0.7360   YZ=              1.6080

 Summary of Natural Population Analysis:

                                       Natural Population
                Natural  -----------------------------------------------
    Atom  No    Charge         Core      Valence    Rydberg      Total
 -----------------------------------------------------------------------
      C    1   -0.28563      0.99964     2.27958    0.00640     3.28563
      C    2   -0.11479      0.99961     2.10601    0.00918     3.11479
      C    3   -0.27879      0.99965     2.27451    0.00463     3.27879
      C    4   -0.19327      0.99958     2.18349    0.01020     3.19327
      C    5    0.00242      0.99958     1.98344    0.01456     2.99758
      C    6   -0.18851      0.99961     2.18046    0.00844     3.18851
      C    7   -0.19063      0.99962     2.18297    0.00804     3.19063
      C    8   -0.07902      0.99962     2.06864    0.01076     3.07902
      N    9   -0.27146      0.99964     2.75830    0.01353     3.77146
      C   10    0.11653      0.99946     1.86938    0.01462     2.88347
      C   11   -0.26637      0.99953     2.26061    0.00623     3.26637
      C   12   -0.12899      0.99957     2.11862    0.01080     3.12899
      C   13   -0.28461      0.99965     2.27866    0.00630     3.28461
      C   14   -0.27850      0.99964     2.27301    0.00585     3.27850
      H   15    0.09945      0.00000     0.39948    0.00107     0.40055
      H   16    0.10249      0.00000     0.39587    0.00164     0.39751
      H   17    0.09483      0.00000     0.40440    0.00076     0.40517
      H   18    0.09170      0.00000     0.40614    0.00217     0.40830
      H   19    0.09456      0.00000     0.40435    0.00109     0.40544
      H   20    0.09901      0.00000     0.39995    0.00104     0.40099
      H   21    0.09684      0.00000     0.40224    0.00092     0.40316
      H   22    0.10231      0.00000     0.39623    0.00147     0.39769
      H   23    0.09705      0.00000     0.40091    0.00204     0.40295
      H   24    0.09593      0.00000     0.40185    0.00222     0.40407
      H   25    0.09595      0.00000     0.40192    0.00213     0.40405
      H   26    0.10584      0.00000     0.39230    0.00186     0.39416
      H   27    0.10130      0.00000     0.39750    0.00119     0.39870
      H   28    0.09737      0.00000     0.40121    0.00142     0.40263
      H   29    0.08317      0.00000     0.41529    0.00154     0.41683
      H   30    0.10057      0.00000     0.39821    0.00121     0.39943
      H   31    0.09327      0.00000     0.40580    0.00093     0.40673
      H   32    0.09461      0.00000     0.40444    0.00096     0.40539
      H   33    0.10072      0.00000     0.39751    0.00177     0.39928
      H   34    0.09732      0.00000     0.40140    0.00128     0.40268
      H   35    0.10054      0.00000     0.39840    0.00106     0.39946
      H   36    0.10310      0.00000     0.39552    0.00138     0.39690
      H   37    0.10156      0.00000     0.39752    0.00092     0.39844
      H   38    0.09752      0.00000     0.40156    0.00091     0.40248
      H   39    0.09461      0.00000     0.40431    0.00108     0.40539
 =======================================================================
   * Total *    0.00000     13.99439    40.84198    0.16363    55.00000

 Normal termination of Gaussian 16 at Thu Dec 10 11:43:02 2020.
