 Gaussian 16, Revision A.03,

 -----------------------------------------------------------
 # opt freq B3LYP/6-31G(d) empiricaldispersion=gd3bj scf=xqc
 -----------------------------------------------------------

 -------------------------------
 CID_148486321_JID_5931_neutraal
 -------------------------------
 Symbolic Z-matrix:
 Charge =  0 Multiplicity = 1

 SCF Done:  E(RB3LYP) =  -588.539288939     A.U. after   13 cycles
 SCF Done:  E(RB3LYP) =  -588.540875840     A.U. after   11 cycles
 SCF Done:  E(RB3LYP) =  -588.540811117     A.U. after   11 cycles
 SCF Done:  E(RB3LYP) =  -588.541345090     A.U. after   10 cycles
 SCF Done:  E(RB3LYP) =  -588.541471246     A.U. after   10 cycles
 SCF Done:  E(RB3LYP) =  -588.541531108     A.U. after   11 cycles
 SCF Done:  E(RB3LYP) =  -588.541560096     A.U. after   10 cycles
 SCF Done:  E(RB3LYP) =  -588.541622531     A.U. after   10 cycles
 SCF Done:  E(RB3LYP) =  -588.541649279     A.U. after   10 cycles
 SCF Done:  E(RB3LYP) =  -588.541659842     A.U. after    8 cycles
 SCF Done:  E(RB3LYP) =  -588.541661316     A.U. after    9 cycles
 SCF Done:  E(RB3LYP) =  -588.541661944     A.U. after    8 cycles
 SCF Done:  E(RB3LYP) =  -588.541662089     A.U. after    7 cycles
 SCF Done:  E(RB3LYP) =  -588.541662107     A.U. after    6 cycles
 SCF Done:  E(RB3LYP) =  -588.541662130     A.U. after    6 cycles
 Optimization completed.
    -- Stationary point found.
 Normal termination of Gaussian 16 at Thu Dec 10 17:43:38 2020.

 --------------------------------------------------------------------
 #N Geom=AllCheck Guess=TCheck SCRF=Check GenChk RB3LYP/6-31G(d) Freq
 --------------------------------------------------------------------

 Structure from the checkpoint file:  "JID_5931.chk"
 -------------------------------
 CID_148486321_JID_5931_neutraal
 -------------------------------
 Charge =  0 Multiplicity = 1

 SCF Done:  E(RB3LYP) =  -588.541662130     A.U. after    1 cycles

  Exact polarizability: 191.898  -5.583 143.463 -10.820   1.459 132.894
 Approx polarizability: 230.789 -11.660 211.192 -17.656   4.540 205.620

                      1                      2                      3
                      A                      A                      A
 Frequencies --     17.7482                29.3296                57.0374
 Red. masses --      3.3187                 3.0819                 2.9754
 Frc consts  --      0.0006                 0.0016                 0.0057
 IR Inten    --      0.0016                 0.0203                 0.0202

                      4                      5                      6
                      A                      A                      A
 Frequencies --     85.4963               122.4537               145.2199
 Red. masses --      3.1220                 2.6266                 1.3454
 Frc consts  --      0.0134                 0.0232                 0.0167
 IR Inten    --      0.0407                 0.0286                 0.5376

                      7                      8                      9
                      A                      A                      A
 Frequencies --    151.2416               181.4192               220.8079
 Red. masses --      1.6305                 1.4419                 1.5882
 Frc consts  --      0.0220                 0.0280                 0.0456
 IR Inten    --      0.0500                 0.8282                 0.2554

                     10                     11                     12
                      A                      A                      A
 Frequencies --    229.8042               234.4791               257.1456
 Red. masses --      1.5924                 1.6742                 1.5893
 Frc consts  --      0.0495                 0.0542                 0.0619
 IR Inten    --      0.1089                 0.0379                 0.1955

                     13                     14                     15
                      A                      A                      A
 Frequencies --    264.5949               279.9438               325.8758
 Red. masses --      1.3933                 1.6293                 1.7674
 Frc consts  --      0.0575                 0.0752                 0.1106
 IR Inten    --      0.0247                 0.0474                 0.0595

                     16                     17                     18
                      A                      A                      A
 Frequencies --    336.9489               339.3357               363.4607
 Red. masses --      1.9551                 2.0394                 2.2806
 Frc consts  --      0.1308                 0.1384                 0.1775
 IR Inten    --      0.2941                 0.0894                 0.1621

                     19                     20                     21
                      A                      A                      A
 Frequencies --    384.8118               390.7897               411.3527
 Red. masses --      2.1730                 2.0954                 2.1507
 Frc consts  --      0.1896                 0.1885                 0.2144
 IR Inten    --      0.1562                 0.3271                 0.1366

                     22                     23                     24
                      A                      A                      A
 Frequencies --    431.5801               440.8885               459.0698
 Red. masses --      2.2499                 2.0946                 2.2481
 Frc consts  --      0.2469                 0.2399                 0.2791
 IR Inten    --      1.3020                 1.6126                 0.5271

                     25                     26                     27
                      A                      A                      A
 Frequencies --    484.0950               514.7204               540.4036
 Red. masses --      2.6096                 2.5848                 2.7787
 Frc consts  --      0.3603                 0.4035                 0.4781
 IR Inten    --      0.2515                 0.7210                 0.5589

                     28                     29                     30
                      A                      A                      A
 Frequencies --    578.7179               665.2670               707.2309
 Red. masses --      2.6533                 3.1870                 2.0163
 Frc consts  --      0.5236                 0.8311                 0.5942
 IR Inten    --      2.2667                 0.8162                 3.0856

                     31                     32                     33
                      A                      A                      A
 Frequencies --    731.8460               792.5509               819.3997
 Red. masses --      2.0432                 2.9693                 2.2720
 Frc consts  --      0.6448                 1.0989                 0.8988
 IR Inten    --      1.1371                 0.1443                 3.9402

                     34                     35                     36
                      A                      A                      A
 Frequencies --    839.8092               861.8958               895.3796
 Red. masses --      1.7462                 1.5094                 1.9561
 Frc consts  --      0.7256                 0.6606                 0.9239
 IR Inten    --      0.1482                 8.8250                 3.3087

                     37                     38                     39
                      A                      A                      A
 Frequencies --    919.1687               922.3693               954.2758
 Red. masses --      2.2968                 2.0250                 1.7388
 Frc consts  --      1.1433                 1.0150                 0.9329
 IR Inten    --      0.3895                 1.8294                 2.8765

                     40                     41                     42
                      A                      A                      A
 Frequencies --    956.4703               971.9895               977.2215
 Red. masses --      1.5722                 1.6423                 1.4723
 Frc consts  --      0.8474                 0.9142                 0.8284
 IR Inten    --      0.4061                 0.7579                 0.4043

                     43                     44                     45
                      A                      A                      A
 Frequencies --    989.6895              1015.3797              1020.7929
 Red. masses --      1.6293                 1.9280                 1.5639
 Frc consts  --      0.9403                 1.1711                 0.9601
 IR Inten    --      1.1002                 0.8893                 0.3071

                     46                     47                     48
                      A                      A                      A
 Frequencies --   1030.0970              1035.8597              1056.7450
 Red. masses --      1.2520                 1.5779                 1.8657
 Frc consts  --      0.7827                 0.9975                 1.2276
 IR Inten    --      3.2473                 0.4725                 2.7798

                     49                     50                     51
                      A                      A                      A
 Frequencies --   1061.5213              1072.0387              1092.7535
 Red. masses --      1.7015                 1.7892                 2.0637
 Frc consts  --      1.1297                 1.2115                 1.4519
 IR Inten    --      0.7274                 0.4442                 1.8404

                     52                     53                     54
                      A                      A                      A
 Frequencies --   1118.6297              1128.3699              1137.4891
 Red. masses --      1.6587                 1.5595                 1.3415
 Frc consts  --      1.2229                 1.1699                 1.0227
 IR Inten    --      0.4214                 0.7642                 7.8573

                     55                     56                     57
                      A                      A                      A
 Frequencies --   1148.5008              1168.0708              1200.3110
 Red. masses --      1.9707                 1.4126                 1.6388
 Frc consts  --      1.5315                 1.1356                 1.3911
 IR Inten    --     11.3387                 1.4784                 1.0420

                     58                     59                     60
                      A                      A                      A
 Frequencies --   1210.0774              1217.5021              1250.7655
 Red. masses --      1.7815                 2.1597                 1.6211
 Frc consts  --      1.5370                 1.8862                 1.4942
 IR Inten    --      3.1142                11.2565                 0.8630

                     61                     62                     63
                      A                      A                      A
 Frequencies --   1269.0866              1278.7513              1299.9072
 Red. masses --      1.5689                 1.6942                 2.0582
 Frc consts  --      1.4888                 1.6323                 2.0491
 IR Inten    --      2.1212                 4.5855                 0.3034

                     64                     65                     66
                      A                      A                      A
 Frequencies --   1319.8419              1334.2604              1359.8031
 Red. masses --      1.2253                 1.4721                 1.4312
 Frc consts  --      1.2576                 1.5441                 1.5592
 IR Inten    --      0.7579                 0.3787                 1.3894

                     67                     68                     69
                      A                      A                      A
 Frequencies --   1366.8050              1378.6479              1391.8472
 Red. masses --      1.3924                 1.3923                 1.3941
 Frc consts  --      1.5326                 1.5591                 1.5912
 IR Inten    --      6.9412                 0.6132                 1.0909

                     70                     71                     72
                      A                      A                      A
 Frequencies --   1397.1817              1403.4454              1405.7064
 Red. masses --      1.3152                 1.3758                 1.4337
 Frc consts  --      1.5127                 1.5966                 1.6691
 IR Inten    --      3.2142                 0.1401                 4.4097

                     73                     74                     75
                      A                      A                      A
 Frequencies --   1413.8835              1428.2242              1433.4660
 Red. masses --      1.4729                 1.2675                 1.4011
 Frc consts  --      1.7348                 1.5233                 1.6963
 IR Inten    --      0.3691                 3.2232                 0.4671

                     76                     77                     78
                      A                      A                      A
 Frequencies --   1440.2382              1443.4666              1449.5277
 Red. masses --      1.3694                 1.2415                 1.2547
 Frc consts  --      1.6736                 1.5241                 1.5532
 IR Inten    --      4.6684                10.6497                 1.2620

                     79                     80                     81
                      A                      A                      A
 Frequencies --   1452.0867              1501.7757              1507.1421
 Red. masses --      1.2278                 1.0513                 1.0739
 Frc consts  --      1.5254                 1.3969                 1.4373
 IR Inten    --      8.0223                 0.1706                 3.0777

                     82                     83                     84
                      A                      A                      A
 Frequencies --   1510.3977              1513.4624              1515.2701
 Red. masses --      1.0706                 1.0639                 1.0742
 Frc consts  --      1.4391                 1.4358                 1.4532
 IR Inten    --      1.4954                 1.2033                 5.4322

                     85                     86                     87
                      A                      A                      A
 Frequencies --   1519.1543              1520.6202              1525.8335
 Red. masses --      1.0572                 1.0476                 1.0742
 Frc consts  --      1.4375                 1.4272                 1.4734
 IR Inten    --      6.8863                13.8659                 2.5355

                     88                     89                     90
                      A                      A                      A
 Frequencies --   1527.4654              1530.9384              1537.1404
 Red. masses --      1.0569                 1.0806                 1.0695
 Frc consts  --      1.4529                 1.4922                 1.4888
 IR Inten    --      8.2898                 2.6349                 2.4303

                     91                     92                     93
                      A                      A                      A
 Frequencies --   1538.5451              1539.3028              1545.9208
 Red. masses --      1.0584                 1.0556                 1.0758
 Frc consts  --      1.4762                 1.4737                 1.5149
 IR Inten    --     10.0808                 7.6392                 3.3553

                     94                     95                     96
                      A                      A                      A
 Frequencies --   1553.6110              1755.0231              3001.3494
 Red. masses --      1.0570                 6.3621                 1.0826
 Frc consts  --      1.5032                11.5456                 5.7456
 IR Inten    --      0.9195                 5.0566                26.6729

                     97                     98                     99
                      A                      A                      A
 Frequencies --   3023.1920              3024.1076              3031.1043
 Red. masses --      1.0392                 1.0767                 1.0579
 Frc consts  --      5.5962                 5.8013                 5.7268
 IR Inten    --     32.3742                10.6690                32.9298

                    100                    101                    102
                      A                      A                      A
 Frequencies --   3031.4119              3037.5227              3039.0441
 Red. masses --      1.0420                 1.0668                 1.0383
 Frc consts  --      5.6416                 5.7993                 5.6500
 IR Inten    --     48.2435                30.2638                27.6396

                    103                    104                    105
                      A                      A                      A
 Frequencies --   3039.8932              3044.6369              3047.1474
 Red. masses --      1.0648                 1.0556                 1.0500
 Frc consts  --      5.7976                 5.7654                 5.7443
 IR Inten    --     30.4094                25.2603                46.0060

                    106                    107                    108
                      A                      A                      A
 Frequencies --   3050.7287              3059.0983              3064.3548
 Red. masses --      1.0649                 1.0431                 1.0940
 Frc consts  --      5.8393                 5.7514                 6.0524
 IR Inten    --      9.8327                17.0034                18.3747

                    109                    110                    111
                      A                      A                      A
 Frequencies --   3066.8278              3067.4037              3071.8318
 Red. masses --      1.0998                 1.0991                 1.0994
 Frc consts  --      6.0948                 6.0929                 6.1124
 IR Inten    --     11.2691                53.0838                48.4366

                    112                    113                    114
                      A                      A                      A
 Frequencies --   3077.0735              3081.3693              3095.8834
 Red. masses --      1.1012                 1.0998                 1.0979
 Frc consts  --      6.1432                 6.1524                 6.1996
 IR Inten    --     99.0876                26.4506                56.4352

                    115                    116                    117
                      A                      A                      A
 Frequencies --   3097.8718              3105.4542              3115.6874
 Red. masses --      1.1022                 1.1015                 1.1015
 Frc consts  --      6.2320                 6.2585                 6.2999
 IR Inten    --      4.8644                61.9832                49.7668

                    118                    119                    120
                      A                      A                      A
 Frequencies --   3121.6499              3123.1976              3133.6238
 Red. masses --      1.0992                 1.0993                 1.0973
 Frc consts  --      6.3107                 6.3176                 6.3483
 IR Inten    --     19.1764                31.5087                38.6176

                    121                    122                    123
                      A                      A                      A
 Frequencies --   3136.4217              3143.1618              3144.2399
 Red. masses --      1.0989                 1.0925                 1.0915
 Frc consts  --      6.3689                 6.3590                 6.3580
 IR Inten    --     42.5815                15.0429                41.5115

 - Thermochemistry -
 -------------------
 Temperature   298.150 Kelvin.  Pressure   1.00000 Atm.
 Atom     1 has atomic number  6 and mass  12.00000

 Molecular mass:   208.21910 amu.
 Principal axes and moments of inertia in atomic units:
                           1         2         3
     Eigenvalues --  1384.699057098.036797395.80924
           X            0.99999  -0.00150  -0.00427
           Y            0.00135   0.99937  -0.03535
           Z            0.00432   0.03535   0.99937
 This molecule is an asymmetric top.
 Rotational symmetry number  1.
 Warning -- assumption of classical behavior for rotation
           may cause significant error
 Rotational temperatures (Kelvin)      0.06255     0.01220     0.01171
 Rotational constants (GHZ):           1.30335     0.25426     0.24402
 Zero-point vibrational energy    1060078.6 (Joules/Mol)
                                  253.36488 (Kcal/Mol)
 Warning -- explicit consideration of  28 degrees of freedom as
           vibrations may cause significant error
 Vibrational temperatures:     25.54    42.20    82.06   123.01   176.18
          (Kelvin)            208.94   217.60   261.02   317.69   330.64
                              337.36   369.98   380.69   402.78   468.86
                              484.79   488.23   522.94   553.66   562.26
                              591.84   620.95   634.34   660.50   696.50
                              740.57   777.52   832.65   957.17  1017.55
                             1052.96  1140.30  1178.93  1208.30  1240.08
                             1288.25  1322.48  1327.08  1372.99  1376.15
                             1398.48  1406.00  1423.94  1460.90  1468.69
                             1482.08  1490.37  1520.42  1527.29  1542.42
                             1572.23  1609.46  1623.47  1636.59  1652.44
                             1680.59  1726.98  1741.03  1751.71  1799.57
                             1825.93  1839.84  1870.28  1898.96  1919.70
                             1956.45  1966.53  1983.57  2002.56  2010.23
                             2019.24  2022.50  2034.26  2054.90  2062.44
                             2072.18  2076.83  2085.55  2089.23  2160.72
                             2168.44  2173.13  2177.53  2180.14  2185.72
                             2187.83  2195.33  2197.68  2202.68  2211.60
                             2213.62  2214.71  2224.24  2235.30  2525.09
                             4318.27  4349.70  4351.02  4361.08  4361.53
                             4370.32  4372.51  4373.73  4380.55  4384.17
                             4389.32  4401.36  4408.92  4412.48  4413.31
                             4419.68  4427.22  4433.40  4454.29  4457.15
                             4468.06  4482.78  4491.36  4493.58  4508.59
                             4512.61  4522.31  4523.86

 Zero-point correction=                           0.403763 (Hartree/Particle)
 Thermal correction to Energy=                    0.421152
 Thermal correction to Enthalpy=                  0.422096
 Thermal correction to Gibbs Free Energy=         0.358586
 Sum of electronic and zero-point Energies=           -588.137900
 Sum of electronic and thermal Energies=              -588.120510
 Sum of electronic and thermal Enthalpies=            -588.119566
 Sum of electronic and thermal Free Energies=         -588.183076

                     E (Thermal)             CV                S
                      KCal/Mol        Cal/Mol-Kelvin    Cal/Mol-Kelvin
 Total                  264.277             68.016            133.667
 Electronic               0.000              0.000              0.000
 Translational            0.889              2.981             41.904
 Rotational               0.889              2.981             32.652
 Vibrational            262.499             62.055             59.110
 Vibration     1          0.593              1.986              6.871
 Vibration     2          0.593              1.984              5.874
 Vibration     3          0.596              1.975              4.557
 Vibration     4          0.601              1.959              3.761
 Vibration     5          0.610              1.930              3.061
 Vibration     6          0.617              1.908              2.734
 Vibration     7          0.619              1.901              2.657
 Vibration     8          0.630              1.865              2.314
 Vibration     9          0.648              1.809              1.952
 Vibration    10          0.652              1.795              1.880
 Vibration    11          0.654              1.788              1.844
 Vibration    12          0.667              1.751              1.681
 Vibration    13          0.671              1.738              1.631
 Vibration    14          0.680              1.711              1.534
 Vibration    15          0.710              1.624              1.280
 Vibration    16          0.718              1.602              1.227
 Vibration    17          0.719              1.597              1.215
 Vibration    18          0.737              1.547              1.107
 Vibration    19          0.754              1.503              1.020
 Vibration    20          0.758              1.490              0.997
 Vibration    21          0.775              1.446              0.922
 Vibration    22          0.793              1.401              0.854
 Vibration    23          0.801              1.381              0.824
 Vibration    24          0.817              1.341              0.769
 Vibration    25          0.840              1.285              0.699
 Vibration    26          0.870              1.217              0.622
 Vibration    27          0.895              1.161              0.564
 Vibration    28          0.935              1.077              0.488

 Optimization completed.
    -- Stationary point found.
 Normal termination of Gaussian 16 at Thu Dec 10 17:58:50 2020.

 ----------------------------------------------------------------------
 # B3LYP/6-311++G(d,p) empiricaldispersion=gd3bj scf=xqc pop=npa geom=c
 heck
 ----------------------------------------------------------------------

 ---------------------------------------
 CID_148486321_JID_5931_Energie_neutraal
 ---------------------------------------
 Structure from the checkpoint file:  "JID_5931.chk"
 Charge =  0 Multiplicity = 1

 SCF Done:  E(RB3LYP) =  -588.701005385     A.U. after   13 cycles
 Normal termination of Gaussian 16 at Thu Dec 10 18:05:45 2020.

 ----------------------------------------------------------------------
 # B3LYP/6-311++G(d,p) empiricaldispersion=gd3bj scf=xqc pop=npa geom=c
 heck
 ----------------------------------------------------------------------

 -------------------------------------
 CID_148486321_JID_5931_Energie_kation
 -------------------------------------
 Structure from the checkpoint file:  "JID_5931.chk"
 Charge =  1 Multiplicity = 2

 SCF Done:  E(UB3LYP) =  -588.395892283     A.U. after   24 cycles
 Normal termination of Gaussian 16 at Thu Dec 10 18:22:33 2020.
 Gaussian 16:  ES64L-G16RevA.03 25-Dec-2016

 ----------------------------------------------------------------------
 # B3LYP/6-311++G(d,p) empiricaldispersion=gd3bj scf=xqc pop=npa geom=c
 heck
 ----------------------------------------------------------------------

 ------------------------------------
 CID_148486321_JID_5931_Energie_anion
 ------------------------------------
 Structure from the checkpoint file:  "JID_5931.chk"
 Charge = -1 Multiplicity = 2

                         Standard orientation:
 ---------------------------------------------------------------------
 Center     Atomic      Atomic             Coordinates (Angstroms)
 Number     Number       Type             X           Y           Z
 ---------------------------------------------------------------------
      1          6           0        2.098037    2.172242    0.184173
      2          6           0        2.238127    0.801362    0.869925
      3          6           0        0.883829    0.249004    1.374371
      4          6           0       -0.042405   -0.375786    0.308814
      5          6           0        0.747884   -1.397224   -0.531492
      6          6           0        2.053697   -0.813623   -1.085211
      7          6           0        2.995847   -0.257516    0.007685
      8          6           0        4.232965    0.357343   -0.667764
      9          6           0        3.491555   -1.401679    0.914863
     10          6           0       -0.786654    0.664699   -0.549254
     11          6           0       -1.952514    0.088171   -1.383194
     12          6           0       -2.981610   -0.648754   -0.563297
     13          6           0       -4.036275   -0.117259    0.071606
     14          6           0       -4.973421   -0.974970    0.883923
     15          6           0       -4.383827    1.349541    0.046893
     16          1           0        1.697889    2.100405   -0.831111
     17          1           0        3.063659    2.682937    0.119023
     18          1           0        1.421937    2.816971    0.756867
     19          1           0        2.852445    0.973705    1.766574
     20          1           0        1.087191   -0.522354    2.127781
     21          1           0        0.346941    1.047723    1.903274
     22          1           0       -0.819445   -0.922771    0.859583
     23          1           0        0.132296   -1.772554   -1.357813
     24          1           0        0.975313   -2.270843    0.092098
     25          1           0        1.821908   -0.011520   -1.798483
     26          1           0        2.588836   -1.581411   -1.659991
     27          1           0        4.895880    0.826398    0.070122
     28          1           0        4.808474   -0.419227   -1.185913
     29          1           0        3.961650    1.116074   -1.408514
     30          1           0        2.684543   -1.885104    1.471687
     31          1           0        3.991336   -2.175284    0.319380
     32          1           0        4.215971   -1.023413    1.646064
     33          1           0       -1.190634    1.437698    0.117850
     34          1           0       -0.097912    1.174450   -1.231240
     35          1           0       -2.417490    0.914329   -1.934148
     36          1           0       -1.553832   -0.590963   -2.146872
     37          1           0       -2.824254   -1.722285   -0.458169
     38          1           0       -5.008877   -0.640799    1.930387
     39          1           0       -6.002027   -0.908338    0.502296
     40          1           0       -4.674038   -2.027603    0.873456
     41          1           0       -3.712385    1.937437   -0.582991
     42          1           0       -5.410434    1.501175   -0.314052
     43          1           0       -4.346346    1.771867    1.060633
 ---------------------------------------------------------------------

 SCF Done:  E(UB3LYP) =  -588.686561753     A.U. after   30 cycles

 The electronic state is 2-A.
 Alpha  occ. eigenvalues --  -10.08383 -10.07912 -10.07311 -10.06948 -10.06738
 Alpha  occ. eigenvalues --  -10.06729 -10.06682 -10.06431 -10.06313 -10.06253
 Alpha  occ. eigenvalues --  -10.06175 -10.06109 -10.06046 -10.05984 -10.05837
 Alpha  occ. eigenvalues --   -0.75157  -0.72246  -0.69550  -0.66220  -0.65134
 Alpha  occ. eigenvalues --   -0.60794  -0.59707  -0.59239  -0.57594  -0.55039
 Alpha  occ. eigenvalues --   -0.51755  -0.49707  -0.46386  -0.41992  -0.40173
 Alpha  occ. eigenvalues --   -0.39002  -0.37653  -0.36093  -0.35728  -0.34696
 Alpha  occ. eigenvalues --   -0.33947  -0.33670  -0.32850  -0.31298  -0.31015
 Alpha  occ. eigenvalues --   -0.30268  -0.29814  -0.29014  -0.28662  -0.28034
 Alpha  occ. eigenvalues --   -0.27723  -0.27003  -0.26933  -0.26067  -0.25275
 Alpha  occ. eigenvalues --   -0.24498  -0.24423  -0.23106  -0.22294  -0.22141
 Alpha  occ. eigenvalues --   -0.20303  -0.19215  -0.18996  -0.13984   0.04242
 Alpha virt. eigenvalues --    0.05913   0.06804   0.07166   0.07742   0.07980
 Alpha virt. eigenvalues --    0.08413   0.09230   0.09340   0.09693   0.09883
 Alpha virt. eigenvalues --    0.10391   0.10896   0.11168   0.11886   0.12090

  Beta  occ. eigenvalues --  -10.08383 -10.07906 -10.07302 -10.06937 -10.06725
  Beta  occ. eigenvalues --  -10.06708 -10.06645 -10.06416 -10.06301 -10.06240
  Beta  occ. eigenvalues --  -10.06167 -10.06088 -10.06034 -10.05961 -10.05817
  Beta  occ. eigenvalues --   -0.75139  -0.72223  -0.69527  -0.66195  -0.65107
  Beta  occ. eigenvalues --   -0.60761  -0.59646  -0.59200  -0.57553  -0.54996
  Beta  occ. eigenvalues --   -0.51713  -0.49666  -0.46351  -0.41949  -0.40129
  Beta  occ. eigenvalues --   -0.38967  -0.37623  -0.36064  -0.35702  -0.34669
  Beta  occ. eigenvalues --   -0.33913  -0.33628  -0.32821  -0.31276  -0.30988
  Beta  occ. eigenvalues --   -0.30244  -0.29786  -0.28976  -0.28638  -0.28008
  Beta  occ. eigenvalues --   -0.27691  -0.26975  -0.26905  -0.26040  -0.25250
  Beta  occ. eigenvalues --   -0.24473  -0.24394  -0.23083  -0.22270  -0.22118
  Beta  occ. eigenvalues --   -0.20279  -0.19190  -0.18973  -0.13951
  Beta virt. eigenvalues --    0.06077   0.06607   0.07279   0.07583   0.08068
  Beta virt. eigenvalues --    0.08341   0.08791   0.09489   0.09634   0.09896
  Beta virt. eigenvalues --    0.10199   0.10689   0.11170   0.11361   0.12103

 Mulliken charges and spin densities:
               1          2
     1  C    0.201167  -0.946930
     2  C   -0.367339   0.656719
     3  C   -0.183712  -0.705704
     4  C    0.043421   0.633437
     5  C   -0.111297  -0.613431
     6  C    0.051586  -0.592667
     7  C   -0.734511   1.307777
     8  C    0.114064  -0.650399
     9  C    0.604218  -1.238893
    10  C    0.177368  -0.599623
    11  C    0.133515  -0.538402
    12  C    0.142651  -0.140874
    13  C   -0.689129   1.120981
    14  C    0.448114  -1.129831
    15  C    0.150416  -0.848786
    16  H   -0.028211   0.197917
    17  H   -0.064256   0.212866
    18  H   -0.145808   0.278778
    19  H    0.055164   0.158192
    20  H   -0.116359   0.257416
    21  H   -0.106933   0.283698
    22  H    0.280655  -0.024523
    23  H    0.056987   0.098787
    24  H   -0.088198   0.232486
    25  H    0.096699   0.059209
    26  H   -0.044476   0.215014
    27  H   -0.130645   0.279427
    28  H   -0.030850   0.162722
    29  H   -0.028584   0.173447
    30  H    0.047625   0.075346
    31  H   -0.050877   0.196614
    32  H   -0.096772   0.239047
    33  H    0.318591  -0.147695
    34  H    0.134140  -0.052781
    35  H    0.023860   0.165675
    36  H    0.038636   0.103677
    37  H   -0.114401   0.303174
    38  H   -0.133065   0.280649
    39  H   -0.060357   0.188354
    40  H   -0.255452   0.397831
    41  H   -0.208732   0.326565
    42  H   -0.169985   0.305430
    43  H   -0.158930   0.319306
 Sum of Mulliken charges =  -1.00000   1.00000

 Dipole moment (field-independent basis, Debye):
    X=              1.9571    Y=             -0.4954    Z=             -1.9584  Tot=              2.8127
 Quadrupole moment (field-independent basis, Debye-Ang):
   XX=           -200.4093   YY=           -141.9386   ZZ=           -136.6227
   XY=              0.7650   XZ=              3.3756   YZ=             -0.7407

 Summary of Natural Population Analysis:

                                       Natural Population
                Natural  -----------------------------------------------
    Atom  No    Charge         Core      Valence    Rydberg      Total
 -----------------------------------------------------------------------
      C    1   -0.28748      0.99964     2.28162    0.00621     3.28748
      C    2   -0.10670      0.99956     2.09511    0.01203     3.10670
      C    3   -0.18427      0.99960     2.17402    0.01065     3.18427
      C    4   -0.11406      0.99958     2.10359    0.01089     3.11406
      C    5   -0.18959      0.99961     2.18078    0.00920     3.18959
      C    6   -0.19102      0.99958     2.18167    0.00977     3.19102
      C    7   -0.04026      0.99956     2.02857    0.01213     3.04026
      C    8   -0.28499      0.99963     2.27799    0.00738     3.28499
      C    9   -0.28640      0.99962     2.27943    0.00734     3.28640
      C   10   -0.18313      0.99960     2.17519    0.00835     3.18313
      C   11   -0.20379      0.99961     2.19601    0.00817     3.20379
      C   12   -0.10069      0.99945     2.09198    0.00927     3.10069
      C   13   -0.00768      0.99949     1.99781    0.01037     3.00768
      C   14   -0.29161      0.99963     2.28710    0.00488     3.29161
      C   15   -0.30126      0.99962     2.29554    0.00610     3.30126
      H   16    0.09579      0.00000     0.40302    0.00119     0.40421
      H   17    0.09923      0.00000     0.39992    0.00085     0.40077
      H   18    0.10041      0.00000     0.39869    0.00090     0.39959
      H   19    0.09627      0.00000     0.40222    0.00151     0.40373
      H   20    0.09874      0.00000     0.40009    0.00116     0.40126
      H   21    0.09965      0.00000     0.39923    0.00112     0.40035
      H   22    0.10176      0.00000     0.39641    0.00183     0.39824
      H   23    0.09842      0.00000     0.40046    0.00112     0.40158
      H   24    0.09686      0.00000     0.40193    0.00120     0.40314
      H   25    0.09652      0.00000     0.40220    0.00128     0.40348
      H   26    0.09900      0.00000     0.40006    0.00094     0.40100
      H   27    0.09928      0.00000     0.39988    0.00085     0.40072
      H   28    0.09865      0.00000     0.40047    0.00088     0.40135
      H   29    0.10070      0.00000     0.39843    0.00086     0.39930
      H   30    0.10116      0.00000     0.39783    0.00101     0.39884
      H   31    0.09804      0.00000     0.40109    0.00087     0.40196
      H   32    0.09946      0.00000     0.39956    0.00098     0.40054
      H   33    0.09733      0.00000     0.40120    0.00147     0.40267
      H   34    0.09439      0.00000     0.40410    0.00151     0.40561
      H   35    0.10030      0.00000     0.39860    0.00110     0.39970
      H   36    0.09779      0.00000     0.40089    0.00132     0.40221
      H   37    0.09288      0.00000     0.40594    0.00118     0.40712
      H   38    0.10155      0.00000     0.39688    0.00157     0.39845
      H   39    0.09850      0.00000     0.40013    0.00138     0.40150
      H   40    0.10149      0.00000     0.39740    0.00110     0.39851
      H   41    0.10280      0.00000     0.39615    0.00105     0.39720
      H   42    0.10065      0.00000     0.39820    0.00115     0.39935
      H   43    0.10533      0.00000     0.39328    0.00139     0.39467
 =======================================================================
   * Total *   -0.00000     14.99377    43.84069    0.16554    59.00000

 Normal termination of Gaussian 16 at Thu Dec 10 18:41:56 2020.
