 Gaussian 16, Revision A.03,

 -----------------------------------------------------------
 # opt freq B3LYP/6-31G(d) empiricaldispersion=gd3bj scf=xqc
 -----------------------------------------------------------

 -------------------------------
 CID_117530651_JID_9608_neutraal
 -------------------------------
 Symbolic Z-matrix:
 Charge =  0 Multiplicity = 1

 SCF Done:  E(RB3LYP) =  -891.691221238     A.U. after   15 cycles
 SCF Done:  E(RB3LYP) =  -891.697354655     A.U. after   13 cycles
 SCF Done:  E(RB3LYP) =  -891.698567059     A.U. after   13 cycles
 SCF Done:  E(RB3LYP) =  -891.699994095     A.U. after   12 cycles
 SCF Done:  E(RB3LYP) =  -891.700595732     A.U. after   13 cycles
 SCF Done:  E(RB3LYP) =  -891.701337589     A.U. after   13 cycles
 SCF Done:  E(RB3LYP) =  -891.701833897     A.U. after   13 cycles
 SCF Done:  E(RB3LYP) =  -891.702081039     A.U. after   12 cycles
 SCF Done:  E(RB3LYP) =  -891.702134589     A.U. after   10 cycles
 SCF Done:  E(RB3LYP) =  -891.702229308     A.U. after   12 cycles
 SCF Done:  E(RB3LYP) =  -891.702265338     A.U. after   10 cycles
 SCF Done:  E(RB3LYP) =  -891.702265571     A.U. after    9 cycles
 SCF Done:  E(RB3LYP) =  -891.702265623     A.U. after    7 cycles
 SCF Done:  E(RB3LYP) =  -891.702265664     A.U. after    7 cycles
 SCF Done:  E(RB3LYP) =  -891.702265677     A.U. after    6 cycles
 Optimization completed.
    -- Stationary point found.
 Normal termination of Gaussian 16 at Sat Dec 12 09:58:53 2020.

 --------------------------------------------------------------------
 #N Geom=AllCheck Guess=TCheck SCRF=Check GenChk RB3LYP/6-31G(d) Freq
 --------------------------------------------------------------------

 Structure from the checkpoint file:  "JID_9608.chk"
 -------------------------------
 CID_117530651_JID_9608_neutraal
 -------------------------------
 Charge =  0 Multiplicity = 1

 SCF Done:  E(RB3LYP) =  -891.702265678     A.U. after    1 cycles

  Exact polarizability: 247.781 -15.808 159.195  10.787   5.471 104.046
 Approx polarizability: 324.759 -12.338 258.519  25.087  19.546 166.518

                      1                      2                      3
                      A                      A                      A
 Frequencies --     16.5026                28.5670                55.5610
 Red. masses --      4.5004                 3.8123                 4.1021
 Frc consts  --      0.0007                 0.0018                 0.0075
 IR Inten    --      0.2180                 0.3822                 0.7979

                      4                      5                      6
                      A                      A                      A
 Frequencies --     67.6982                71.4022                86.5176
 Red. masses --      3.6589                 7.3384                 3.4780
 Frc consts  --      0.0099                 0.0220                 0.0153
 IR Inten    --      0.8693                 0.6252                 5.0849

                      7                      8                      9
                      A                      A                      A
 Frequencies --    110.4499               141.7663               152.3294
 Red. masses --      2.7520                 3.5422                 2.1089
 Frc consts  --      0.0198                 0.0419                 0.0288
 IR Inten    --      7.2469                 1.4599                 0.2080

                     10                     11                     12
                      A                      A                      A
 Frequencies --    161.5263               175.0007               199.5265
 Red. masses --      1.2594                 3.0358                 2.2295
 Frc consts  --      0.0194                 0.0548                 0.0523
 IR Inten    --      0.4852                 2.3609                 1.3336

                     13                     14                     15
                      A                      A                      A
 Frequencies --    214.7721               239.8318               262.3716
 Red. masses --      3.4693                 1.5381                 1.3951
 Frc consts  --      0.0943                 0.0521                 0.0566
 IR Inten    --      0.5812                 0.4695                 1.4531

                     16                     17                     18
                      A                      A                      A
 Frequencies --    285.4721               300.8346               316.5876
 Red. masses --      3.4773                 4.1596                 4.0450
 Frc consts  --      0.1670                 0.2218                 0.2389
 IR Inten    --      0.8552                 1.8924                 1.2740

                     19                     20                     21
                      A                      A                      A
 Frequencies --    326.2914               344.2409               394.2550
 Red. masses --      3.5498                 2.9121                 3.2069
 Frc consts  --      0.2227                 0.2033                 0.2937
 IR Inten    --      3.3477                 4.6707                 2.1182

                     22                     23                     24
                      A                      A                      A
 Frequencies --    412.1750               443.2788               504.7784
 Red. masses --      5.4398                 3.6934                 3.3331
 Frc consts  --      0.5445                 0.4276                 0.5004
 IR Inten    --      3.6796                 1.5887                 5.0227

                     25                     26                     27
                      A                      A                      A
 Frequencies --    557.3432               571.5634               596.1258
 Red. masses --      4.5203                 4.9293                 4.7822
 Frc consts  --      0.8273                 0.9488                 1.0013
 IR Inten    --      2.3309                 2.0289                 8.1371

                     28                     29                     30
                      A                      A                      A
 Frequencies --    637.9801               661.2978               697.0461
 Red. masses --      4.4154                 3.8285                 3.3679
 Frc consts  --      1.0589                 0.9865                 0.9641
 IR Inten    --     32.2621                 1.7576                 7.6132

                     31                     32                     33
                      A                      A                      A
 Frequencies --    707.7115               722.7166               725.7951
 Red. masses --      6.3261                 5.1816                 5.2762
 Frc consts  --      1.8668                 1.5946                 1.6376
 IR Inten    --      3.3104                 1.1586                 0.3544

                     34                     35                     36
                      A                      A                      A
 Frequencies --    759.7076               804.3192               819.8473
 Red. masses --      4.5176                 1.6149                 1.5589
 Frc consts  --      1.5362                 0.6155                 0.6173
 IR Inten    --      5.3448               175.5637                27.8169

                     37                     38                     39
                      A                      A                      A
 Frequencies --    849.0405               875.0303               941.9882
 Red. masses --      2.0373                 1.5145                 4.5270
 Frc consts  --      0.8653                 0.6832                 2.3667
 IR Inten    --     16.6092                19.4463                 5.8699

                     40                     41                     42
                      A                      A                      A
 Frequencies --    942.8227               951.7686              1004.7011
 Red. masses --      1.3074                 2.0511                 1.9032
 Frc consts  --      0.6847                 1.0947                 1.1319
 IR Inten    --      1.3683                21.4053                 7.7693

                     43                     44                     45
                      A                      A                      A
 Frequencies --   1027.7007              1038.2924              1050.9770
 Red. masses --      9.1388                 1.9888                 4.4022
 Frc consts  --      5.6869                 1.2632                 2.8649
 IR Inten    --     65.0358                 5.4918                52.5778

                     46                     47                     48
                      A                      A                      A
 Frequencies --   1066.6010              1088.4149              1119.6836
 Red. masses --      7.9135                 3.8637                 5.3001
 Frc consts  --      5.3043                 2.6968                 3.9149
 IR Inten    --      9.5558                21.3261                61.9289

                     49                     50                     51
                      A                      A                      A
 Frequencies --   1151.4954              1168.9275              1180.4748
 Red. masses --      1.8254                 1.4008                 1.5923
 Frc consts  --      1.4261                 1.1278                 1.3074
 IR Inten    --     22.2290                 8.3174                46.9708

                     52                     53                     54
                      A                      A                      A
 Frequencies --   1182.8671              1185.8204              1194.7570
 Red. masses --      1.3752                 1.2702                 3.0685
 Frc consts  --      1.1336                 1.0523                 2.5807
 IR Inten    --     15.9275                 0.6927                28.3815

                     55                     56                     57
                      A                      A                      A
 Frequencies --   1200.2486              1206.6428              1221.5332
 Red. masses --      2.4820                 1.9570                 1.3549
 Frc consts  --      2.1067                 1.6788                 1.1912
 IR Inten    --     20.2946                80.4066                 2.7259

                     58                     59                     60
                      A                      A                      A
 Frequencies --   1244.4222              1251.1838              1262.6295
 Red. masses --      1.9008                 1.4896                 3.4005
 Frc consts  --      1.7343                 1.3739                 3.1941
 IR Inten    --    194.4147                 7.8899                50.0131

                     61                     62                     63
                      A                      A                      A
 Frequencies --   1287.8242              1321.4723              1340.1245
 Red. masses --      2.1307                 1.6319                 3.2095
 Frc consts  --      2.0820                 1.6791                 3.3961
 IR Inten    --     27.0973                 7.4750               142.2472

                     64                     65                     66
                      A                      A                      A
 Frequencies --   1363.2204              1378.1231              1400.4596
 Red. masses --      6.4940                 1.4102                 1.7807
 Frc consts  --      7.1104                 1.5780                 2.0577
 IR Inten    --     46.3725                13.5645                18.8921

                     67                     68                     69
                      A                      A                      A
 Frequencies --   1423.9723              1430.1666              1472.4211
 Red. masses --      3.3295                 3.5289                 2.1502
 Frc consts  --      3.9777                 4.2527                 2.7466
 IR Inten    --     18.6012                 5.8954                27.5901

                     70                     71                     72
                      A                      A                      A
 Frequencies --   1480.6024              1497.6917              1502.0601
 Red. masses --      1.1662                 1.2947                 1.0964
 Frc consts  --      1.5063                 1.7111                 1.4574
 IR Inten    --      1.4080                35.6597                 9.4912

                     73                     74                     75
                      A                      A                      A
 Frequencies --   1508.8606              1512.2679              1515.9529
 Red. masses --      1.1440                 1.3380                 1.1921
 Frc consts  --      1.5345                 1.8028                 1.6141
 IR Inten    --      0.6247                 3.9728                 7.1828

                     76                     77                     78
                      A                      A                      A
 Frequencies --   1522.1643              1523.5597              1524.4548
 Red. masses --      1.0476                 1.2716                 1.0761
 Frc consts  --      1.4301                 1.7391                 1.4734
 IR Inten    --      6.6134                34.2641                 1.6239

                     79                     80                     81
                      A                      A                      A
 Frequencies --   1534.3387              1535.1939              1546.2232
 Red. masses --      1.0556                 1.0690                 3.3548
 Frc consts  --      1.4642                 1.4843                 4.7257
 IR Inten    --      0.2123                48.9443                 1.0739

                     82                     83                     84
                      A                      A                      A
 Frequencies --   1553.9333              1565.5545              1634.7380
 Red. masses --      1.0967                 3.5184                 7.2083
 Frc consts  --      1.5602                 5.0807                11.3495
 IR Inten    --      3.3282               184.6039                73.3387

                     85                     86                     87
                      A                      A                      A
 Frequencies --   1673.0788              2960.1333              3032.4950
 Red. masses --      6.4513                 1.0598                 1.0345
 Frc consts  --     10.6397                 5.4713                 5.6051
 IR Inten    --    149.9672                76.1699                57.5530

                     88                     89                     90
                      A                      A                      A
 Frequencies --   3042.2461              3043.1225              3052.8923
 Red. masses --      1.0355                 1.0665                 1.0675
 Frc consts  --      5.6469                 5.8191                 5.8619
 IR Inten    --     52.0999                12.9500                61.9880

                     91                     92                     93
                      A                      A                      A
 Frequencies --   3066.0974              3094.1881              3094.7914
 Red. masses --      1.0743                 1.1070                 1.0960
 Frc consts  --      5.9502                 6.2444                 6.1849
 IR Inten    --     65.4987                37.9946                 0.7017

                     94                     95                     96
                      A                      A                      A
 Frequencies --   3113.6999              3115.2038              3121.2889
 Red. masses --      1.0994                 1.1004                 1.1010
 Frc consts  --      6.2800                 6.2920                 6.3199
 IR Inten    --     31.9051                30.9426                25.4940

                     97                     98                     99
                      A                      A                      A
 Frequencies --   3164.0185              3166.6538              3227.7098
 Red. masses --      1.1047                 1.1003                 1.0893
 Frc consts  --      6.5160                 6.5007                 6.6863
 IR Inten    --     24.0647                24.2430                 3.6875

                    100                    101                    102
                      A                      A                      A
 Frequencies --   3229.7126              3244.6247              3513.8779
 Red. masses --      1.0911                 1.0932                 1.0738
 Frc consts  --      6.7059                 6.7811                 7.8116
 IR Inten    --      0.6720                 5.3441                 2.2759

 - Thermochemistry -
 -------------------
 Temperature   298.150 Kelvin.  Pressure   1.00000 Atm.
 Atom     1 has atomic number  6 and mass  12.00000

 Molecular mass:   263.13822 amu.
 Principal axes and moments of inertia in atomic units:
                           1         2         3
     Eigenvalues --  2081.10155********************
           X            0.99996  -0.00709  -0.00489
           Y            0.00708   0.99997  -0.00080
           Z            0.00489   0.00076   0.99999
 This molecule is an asymmetric top.
 Rotational symmetry number  1.
 Warning -- assumption of classical behavior for rotation
           may cause significant error
 Rotational temperatures (Kelvin)      0.04162     0.00813     0.00737
 Rotational constants (GHZ):           0.86720     0.16933     0.15351
 Zero-point vibrational energy     779441.4 (Joules/Mol)
                                  186.29097 (Kcal/Mol)
 Warning -- explicit consideration of  27 degrees of freedom as
           vibrations may cause significant error
 Vibrational temperatures:     23.74    41.10    79.94    97.40   102.73
          (Kelvin)            124.48   158.91   203.97   219.17   232.40
                              251.79   287.07   309.01   345.06   377.49
                              410.73   432.83   455.50   469.46   495.29
                              567.25   593.03   637.78   726.26   801.89
                              822.35   857.69   917.91   951.46  1002.89
                             1018.24  1039.83  1044.26  1093.05  1157.24
                             1179.58  1221.58  1258.97  1355.31  1356.51
                             1369.38  1445.54  1478.63  1493.87  1512.12
                             1534.60  1565.99  1610.98  1656.75  1681.83
                             1698.44  1701.88  1706.13  1718.99  1726.89
                             1736.09  1757.51  1790.45  1800.17  1816.64
                             1852.89  1901.30  1928.14  1961.37  1982.81
                             2014.95  2048.78  2057.69  2118.49  2130.26
                             2154.84  2161.13  2170.91  2175.82  2181.12
                             2190.05  2192.06  2193.35  2207.57  2208.80
                             2224.67  2235.76  2252.48  2352.02  2407.19
                             4258.97  4363.08  4377.11  4378.37  4392.43
                             4411.43  4451.85  4452.71  4479.92  4482.08
                             4490.84  4552.32  4556.11  4643.95  4646.84
                             4668.29  5055.69

 Zero-point correction=                           0.296874 (Hartree/Particle)
 Thermal correction to Energy=                    0.315365
 Thermal correction to Enthalpy=                  0.316309
 Thermal correction to Gibbs Free Energy=         0.248138
 Sum of electronic and zero-point Energies=           -891.405392
 Sum of electronic and thermal Energies=              -891.386901
 Sum of electronic and thermal Enthalpies=            -891.385957
 Sum of electronic and thermal Free Energies=         -891.454128

                     E (Thermal)             CV                S
                      KCal/Mol        Cal/Mol-Kelvin    Cal/Mol-Kelvin
 Total                  197.894             67.785            143.478
 Electronic               0.000              0.000              0.000
 Translational            0.889              2.981             42.602
 Rotational               0.889              2.981             33.922
 Vibrational            196.117             61.823             66.955
 Vibration     1          0.593              1.986              7.016
 Vibration     2          0.593              1.984              5.927
 Vibration     3          0.596              1.975              4.609
 Vibration     4          0.598              1.970              4.219
 Vibration     5          0.598              1.968              4.114
 Vibration     6          0.601              1.959              3.737
 Vibration     7          0.606              1.941              3.261
 Vibration     8          0.615              1.911              2.780
 Vibration     9          0.619              1.900              2.643
 Vibration    10          0.622              1.890              2.532
 Vibration    11          0.627              1.873              2.381
 Vibration    12          0.638              1.841              2.137
 Vibration    13          0.645              1.818              2.003
 Vibration    14          0.657              1.779              1.804
 Vibration    15          0.670              1.742              1.646
 Vibration    16          0.683              1.701              1.501
 Vibration    17          0.693              1.672              1.412
 Vibration    18          0.703              1.642              1.328
 Vibration    19          0.710              1.623              1.278
 Vibration    20          0.723              1.587              1.192
 Vibration    21          0.761              1.482              0.984
 Vibration    22          0.776              1.444              0.919
 Vibration    23          0.803              1.376              0.816
 Vibration    24          0.860              1.239              0.646
 Vibration    25          0.913              1.124              0.529
 Vibration    26          0.928              1.093              0.501
 Vibration    27          0.954              1.040              0.456

                           ! Non-Optimized Parameters !
 Normal termination of Gaussian 16 at Sat Dec 12 10:13:10 2020.

 ----------------------------------------------------------------------
 # B3LYP/6-311++G(d,p) empiricaldispersion=gd3bj scf=xqc pop=npa geom=c
 heck
 ----------------------------------------------------------------------

 ---------------------------------------
 CID_117530651_JID_9608_Energie_neutraal
 ---------------------------------------
 Structure from the checkpoint file:  "JID_9608.chk"
 Charge =  0 Multiplicity = 1

 SCF Done:  E(RB3LYP) =  -891.945171244     A.U. after   16 cycles
 Normal termination of Gaussian 16 at Sat Dec 12 10:19:04 2020.

 ----------------------------------------------------------------------
 # B3LYP/6-311++G(d,p) empiricaldispersion=gd3bj scf=xqc pop=npa geom=c
 heck
 ----------------------------------------------------------------------

 -------------------------------------
 CID_117530651_JID_9608_Energie_kation
 -------------------------------------
 Structure from the checkpoint file:  "JID_9608.chk"
 Charge =  1 Multiplicity = 2

 SCF Done:  E(UB3LYP) =  -891.660173554     A.U. after   25 cycles
 Normal termination of Gaussian 16 at Sat Dec 12 10:31:34 2020.
 Gaussian 16:  ES64L-G16RevA.03 25-Dec-2016

 ----------------------------------------------------------------------
 # B3LYP/6-311++G(d,p) empiricaldispersion=gd3bj scf=xqc pop=npa geom=c
 heck
 ----------------------------------------------------------------------

 ------------------------------------
 CID_117530651_JID_9608_Energie_anion
 ------------------------------------
 Structure from the checkpoint file:  "JID_9608.chk"
 Charge = -1 Multiplicity = 2

                         Standard orientation:
 ---------------------------------------------------------------------
 Center     Atomic      Atomic             Coordinates (Angstroms)
 Number     Number       Type             X           Y           Z
 ---------------------------------------------------------------------
      1          6           0       -4.601320   -1.284624    1.780859
      2          7           0       -4.880421   -1.285983    0.351965
      3          6           0       -4.970311    0.034548   -0.253226
      4          6           0       -3.763106    0.981995   -0.048237
      5          6           0       -2.460017    0.349918   -0.418026
      6          7           0       -1.282391    0.710218    0.088098
      7          7           0       -0.444031   -0.119072   -0.541991
      8          7           0       -1.056743   -0.960898   -1.380219
      9          7           0       -2.333865   -0.674915   -1.305846
     10          6           0        0.955569   -0.162141   -0.312377
     11          6           0        1.706832    1.024264   -0.217059
     12          6           0        3.074458    0.941764    0.015924
     13          6           0        3.707881   -0.302358    0.130490
     14          6           0        2.960431   -1.481170    0.007311
     15          6           0        1.587490   -1.398659   -0.209889
     16          8           0        5.048569   -0.259097    0.350714
     17          6           0        5.750412   -1.490379    0.444269
     18          8           0        1.112879    2.237603   -0.420730
     19          6           0        0.855438    2.995524    0.766132
     20          1           0       -5.399432   -0.743411    2.304126
     21          1           0       -3.639646   -0.824215    2.072743
     22          1           0       -4.603116   -2.315687    2.149516
     23          1           0       -4.169210   -1.819316   -0.143149
     24          1           0       -5.128207   -0.109842   -1.326554
     25          1           0       -5.862389    0.539197    0.140203
     26          1           0       -3.917094    1.884588   -0.654953
     27          1           0       -3.695951    1.319471    0.991124
     28          1           0        3.666317    1.848111    0.076114
     29          1           0        3.426957   -2.454769    0.085194
     30          1           0        0.991151   -2.299149   -0.302036
     31          1           0        5.390428   -2.093437    1.287531
     32          1           0        5.662198   -2.072334   -0.481822
     33          1           0        6.795726   -1.225434    0.608395
     34          1           0        0.466115    3.957987    0.429320
     35          1           0        0.106982    2.489344    1.383287
     36          1           0        1.777214    3.153309    1.340017
 ---------------------------------------------------------------------

 SCF Done:  E(UB3LYP) =  -891.944643227     A.U. after   33 cycles
 SCF Done:  E(UB3LYP) =  -891.944643227     a.u. after    1 cycles

 The electronic state is 2-A.
 Alpha  occ. eigenvalues --  -19.05057 -19.03695 -14.29606 -14.23381 -14.21484
 Alpha  occ. eigenvalues --  -14.20588 -14.19967 -10.12645 -10.12425 -10.12243
 Alpha  occ. eigenvalues --  -10.11833 -10.10499 -10.10136 -10.09658 -10.09599
 Alpha  occ. eigenvalues --  -10.08010 -10.06579 -10.06521 -10.06298  -1.00932
 Alpha  occ. eigenvalues --   -0.96824  -0.95521  -0.81999  -0.80956  -0.77452
 Alpha  occ. eigenvalues --   -0.73771  -0.67054  -0.65129  -0.64751  -0.60478
 Alpha  occ. eigenvalues --   -0.59150  -0.58848  -0.54393  -0.52998  -0.50420
 Alpha  occ. eigenvalues --   -0.47857  -0.47684  -0.43964  -0.41995  -0.40290
 Alpha  occ. eigenvalues --   -0.40075  -0.38827  -0.37705  -0.37206  -0.36201
 Alpha  occ. eigenvalues --   -0.35803  -0.34923  -0.34432  -0.32886  -0.32441
 Alpha  occ. eigenvalues --   -0.31786  -0.31105  -0.30146  -0.28843  -0.28391
 Alpha  occ. eigenvalues --   -0.27708  -0.26942  -0.26009  -0.25462  -0.24456
 Alpha  occ. eigenvalues --   -0.23333  -0.22379  -0.19599  -0.18301  -0.17902
 Alpha  occ. eigenvalues --   -0.16712  -0.16530  -0.14293  -0.13096  -0.11390
 Alpha  occ. eigenvalues --    0.04212
 Alpha virt. eigenvalues --    0.05838   0.06652   0.07574   0.08202   0.08476
 Alpha virt. eigenvalues --    0.09017   0.09349   0.09881   0.09972   0.10630
 Alpha virt. eigenvalues --    0.10842   0.11290   0.11881   0.12068   0.12183

  Beta  occ. eigenvalues --  -19.05014 -19.03696 -14.29439 -14.22940 -14.21252
  Beta  occ. eigenvalues --  -14.20513 -14.19962 -10.12608 -10.12385 -10.12061
  Beta  occ. eigenvalues --  -10.11822 -10.10524 -10.10137 -10.09654 -10.09511
  Beta  occ. eigenvalues --  -10.08008 -10.06611 -10.06399 -10.06315  -1.00526
  Beta  occ. eigenvalues --   -0.96704  -0.95501  -0.81647  -0.80857  -0.77089
  Beta  occ. eigenvalues --   -0.73591  -0.66931  -0.65017  -0.64614  -0.60323
  Beta  occ. eigenvalues --   -0.59118  -0.58793  -0.54062  -0.52917  -0.50265
  Beta  occ. eigenvalues --   -0.47677  -0.47564  -0.43882  -0.41854  -0.40068
  Beta  occ. eigenvalues --   -0.40042  -0.38684  -0.37513  -0.37033  -0.36128
  Beta  occ. eigenvalues --   -0.35485  -0.34877  -0.34156  -0.32780  -0.32392
  Beta  occ. eigenvalues --   -0.31718  -0.31030  -0.30056  -0.28749  -0.28314
  Beta  occ. eigenvalues --   -0.27417  -0.26841  -0.25928  -0.25307  -0.24206
  Beta  occ. eigenvalues --   -0.23224  -0.21918  -0.18620  -0.17982  -0.17657
  Beta  occ. eigenvalues --   -0.16203  -0.15631  -0.14018  -0.13017  -0.10726
  Beta virt. eigenvalues --    0.06484   0.06710   0.07522   0.08060   0.08833
  Beta virt. eigenvalues --    0.08957   0.09214   0.09530   0.09882   0.10323
  Beta virt. eigenvalues --    0.10625   0.10906   0.11396   0.11868   0.12199

 Mulliken charges and spin densities:
               1          2
     1  C   -0.365350  -0.084391
     2  N   -0.099597   0.004879
     3  C   -0.623680  -0.002953
     4  C    0.163215  -0.052619
     5  C   -0.651769  -0.022136
     6  N   -0.060015   0.150916
     7  N    0.314453   0.031188
     8  N   -0.010466   0.209590
     9  N   -0.245195   0.025384
    10  C    0.557216  -0.429168
    11  C   -0.403901   0.181849
    12  C   -0.029711   0.016152
    13  C   -0.815223   0.383550
    14  C    0.013442   0.076666
    15  C    0.265641  -0.339247
    16  O   -0.211154   0.047712
    17  C    0.625581  -0.941713
    18  O   -0.109679  -0.000179
    19  C   -0.203619  -0.107682
    20  H    0.106000   0.030694
    21  H    0.091861   0.053363
    22  H    0.099855   0.028162
    23  H    0.245844  -0.001400
    24  H    0.188339   0.003652
    25  H    0.132009   0.002152
    26  H    0.163433  -0.004166
    27  H    0.133309   0.035471
    28  H    0.189320  -0.002980
    29  H   -0.040051   0.231823
    30  H    0.071806   0.104349
    31  H   -0.083861   0.226323
    32  H   -0.160814   0.312153
    33  H   -0.526025   0.698374
    34  H    0.122746   0.013670
    35  H    0.105052   0.063137
    36  H    0.050987   0.057424
 Sum of Mulliken charges =  -1.00000   1.00000

 Dipole moment (field-independent basis, Debye):
    X=             -5.1390    Y=              4.1014    Z=              1.9561  Tot=              6.8598
 Quadrupole moment (field-independent basis, Debye-Ang):
   XX=           -214.0533   YY=           -134.5558   ZZ=           -135.1413
   XY=              4.0328   XZ=             -7.1609   YZ=             -0.9504

 Summary of Natural Population Analysis:

                                       Natural Population
                Natural  -----------------------------------------------
    Atom  No    Charge         Core      Valence    Rydberg      Total
 -----------------------------------------------------------------------
      C    1   -0.18352      0.99967     2.17555    0.00830     3.18352
      N    2   -0.34576      0.99976     2.83313    0.01287     3.84576
      C    3   -0.08276      0.99964     2.07254    0.01057     3.08276
      C    4   -0.21901      0.99959     2.21162    0.00780     3.21901
      C    5    0.14057      0.99967     1.84091    0.01886     2.85943
      N    6   -0.12708      0.99968     2.61511    0.01229     3.62708
      N    7    0.00621      0.99965     2.47743    0.01670     3.49379
      N    8    0.02115      0.99978     2.46192    0.01715     3.47885
      N    9   -0.17208      0.99971     2.65948    0.01289     3.67208
      C   10    0.04985      0.99941     1.93846    0.01229     2.95015
      C   11    0.16929      0.99935     1.81755    0.01381     2.83071
      C   12   -0.14822      0.99949     2.14023    0.00851     3.14822
      C   13    0.19133      0.99940     1.79594    0.01333     2.80867
      C   14   -0.16309      0.99953     2.15542    0.00814     3.16309
      C   15   -0.05687      0.99955     2.04833    0.00899     3.05687
      O   16   -0.27132      0.99985     3.26177    0.00970     4.27132
      C   17   -0.10044      0.99960     2.09167    0.00916     3.10044
      O   18   -0.28681      0.99986     3.27752    0.00944     4.28681
      C   19   -0.09587      0.99959     2.08852    0.00775     3.09587
      H   20    0.08541      0.00000     0.41339    0.00120     0.41459
      H   21    0.08323      0.00000     0.41479    0.00198     0.41677
      H   22    0.09215      0.00000     0.40670    0.00116     0.40785
      H   23    0.18508      0.00000     0.31234    0.00258     0.31492
      H   24    0.09892      0.00000     0.40013    0.00096     0.40108
      H   25    0.08437      0.00000     0.41452    0.00111     0.41563
      H   26    0.10369      0.00000     0.39488    0.00143     0.39631
      H   27    0.10394      0.00000     0.39443    0.00163     0.39606
      H   28    0.10574      0.00000     0.39281    0.00145     0.39426
      H   29    0.10458      0.00000     0.39422    0.00120     0.39542
      H   30    0.10851      0.00000     0.39016    0.00133     0.39149
      H   31    0.08286      0.00000     0.41573    0.00141     0.41714
      H   32    0.08577      0.00000     0.41246    0.00176     0.41423
      H   33    0.09299      0.00000     0.40563    0.00139     0.40701
      H   34    0.08523      0.00000     0.41375    0.00101     0.41477
      H   35    0.09451      0.00000     0.40376    0.00173     0.40549
      H   36    0.07745      0.00000     0.42103    0.00152     0.42255
 =======================================================================
   * Total *   -0.00000     18.99279    50.76381    0.24340    70.00000

 Normal termination of Gaussian 16 at Sat Dec 12 10:48:28 2020.
