 Gaussian 16, Revision A.03,

 -----------------------------------------------------------
 # opt freq B3LYP/6-31G(d) empiricaldispersion=gd3bj scf=xqc
 -----------------------------------------------------------

 ------------------------------
 CID_53305767_JID_5794_neutraal
 ------------------------------
 Symbolic Z-matrix:
 Charge =  0 Multiplicity = 1

 SCF Done:  E(RB3LYP) =  -625.797852903     A.U. after   15 cycles
 SCF Done:  E(RB3LYP) =  -625.801850291     A.U. after   12 cycles
 SCF Done:  E(RB3LYP) =  -625.802064516     A.U. after   11 cycles
 SCF Done:  E(RB3LYP) =  -625.802074975     A.U. after   10 cycles
 SCF Done:  E(RB3LYP) =  -625.802075589     A.U. after    8 cycles
 Optimization completed.
    -- Stationary point found.

 1\1\GINC-NODE373\FOpt\RB3LYP\6-31G(d)\C12H7N3\VSC10255\10-Dec-2020\0\\
 # opt freq B3LYP/6-31G(d) empiricaldispersion=gd3bj scf=xqc\\CID_53305
 767_JID_5794_neutraal\\0,1\C,3.3953575819,-0.2206350688,-0.0000347578\
 C,2.4945604275,-1.2838895793,0.0001120438\C,1.1456469676,-0.9414021914
 ,0.0000896967\C,0.7655447468,0.4290554569,-0.0000762019\C,-0.682854046
 6,0.4617147217,-0.0000578666\C,-1.1182507296,-0.8919358511,0.000117802
 5\N,-0.00504828,-1.7153186833,0.0002037102\C,-2.4753436671,-1.22538183
 96,0.0001802512\C,-3.3954840107,-0.1870128846,0.000064498\C,-2.9769264

 Normal termination of Gaussian 16 at Thu Dec 10 16:58:29 2020.

 --------------------------------------------------------------------
 #N Geom=AllCheck Guess=TCheck SCRF=Check GenChk RB3LYP/6-31G(d) Freq
 --------------------------------------------------------------------

 Structure from the checkpoint file:  "JID_5794.chk"
 ------------------------------
 CID_53305767_JID_5794_neutraal
 ------------------------------
 Charge =  0 Multiplicity = 1

 SCF Done:  E(RB3LYP) =  -625.802075589     A.U. after    1 cycles

  Exact polarizability: 250.228   0.232 143.379  -0.004   0.012  46.196
 Approx polarizability: 390.784 -10.495 269.297  -0.007   0.025  73.564

                      1                      2                      3
                      A                      A                      A
 Frequencies --     75.8621               117.4142               121.7342
 Red. masses --      6.5998                 9.5825                 5.2499
 Frc consts  --      0.0224                 0.0778                 0.0458
 IR Inten    --      0.3879                 2.2154                 5.0015

                      4                      5                      6
                      A                      A                      A
 Frequencies --    182.3104               232.8447               302.7369
 Red. masses --      5.3415                 5.9729                 5.2002
 Frc consts  --      0.1046                 0.1908                 0.2808
 IR Inten    --      4.5886                 4.7318                 6.5388

                      7                      8                      9
                      A                      A                      A
 Frequencies --    306.6086               366.4731               380.1121
 Red. masses --      6.7081                 1.1611                 9.0017
 Frc consts  --      0.3716                 0.0919                 0.7663
 IR Inten    --      1.2695                97.9071                 0.7868

                     10                     11                     12
                      A                      A                      A
 Frequencies --    433.2480               455.3109               488.3164
 Red. masses --      3.4683                 4.0649                 7.7766
 Frc consts  --      0.3836                 0.4965                 1.0926
 IR Inten    --      0.8060                 0.6140                 1.2658

                     13                     14                     15
                      A                      A                      A
 Frequencies --    504.1909               519.2876               586.6094
 Red. masses --      5.8741                 5.7562                 5.8412
 Frc consts  --      0.8798                 0.9145                 1.1843
 IR Inten    --      0.1225                 3.1230                 0.0421

                     16                     17                     18
                      A                      A                      A
 Frequencies --    591.8133               633.9325               647.9905
 Red. masses --      3.5575                 4.0117                 6.4134
 Frc consts  --      0.7341                 0.9499                 1.5866
 IR Inten    --      2.5880                16.4469                 0.9934

                     19                     20                     21
                      A                      A                      A
 Frequencies --    654.1645               732.2225               754.0608
 Red. masses --      8.1730                 6.8426                 3.7000
 Frc consts  --      2.0607                 2.1615                 1.2396
 IR Inten    --      5.6383                 4.3713                 5.4817

                     22                     23                     24
                      A                      A                      A
 Frequencies --    799.2937               811.4959               824.8591
 Red. masses --      1.4427                 4.4855                 1.6369
 Frc consts  --      0.5431                 1.7403                 0.6562
 IR Inten    --     22.1574                 3.0404                33.9550

                     25                     26                     27
                      A                      A                      A
 Frequencies --    826.8997               876.5203               924.7305
 Red. masses --      5.6535                 5.4041                 6.1444
 Frc consts  --      2.2776                 2.4462                 3.0957
 IR Inten    --      7.0401                 2.5393                 2.3500

                     28                     29                     30
                      A                      A                      A
 Frequencies --    929.6111               932.3880               948.8467
 Red. masses --      1.3845                 1.4013                 1.2910
 Frc consts  --      0.7049                 0.7178                 0.6848
 IR Inten    --      3.3789                 3.7242                 0.5323

                     31                     32                     33
                      A                      A                      A
 Frequencies --    971.4953              1050.1201              1074.0585
 Red. masses --      1.3126                 3.0373                 2.1062
 Frc consts  --      0.7299                 1.9734                 1.4316
 IR Inten    --      0.3273                 0.7446                 0.7911

                     34                     35                     36
                      A                      A                      A
 Frequencies --   1145.5701              1169.0358              1189.6242
 Red. masses --      1.6145                 1.3672                 2.5439
 Frc consts  --      1.2483                 1.1009                 2.1211
 IR Inten    --      4.7434                18.0035                 0.3223

                     37                     38                     39
                      A                      A                      A
 Frequencies --   1239.2390              1251.0601              1267.4828
 Red. masses --      2.2654                 1.4735                 3.0722
 Frc consts  --      2.0498                 1.3588                 2.9079
 IR Inten    --      9.9177                 8.5969               105.2001

                     40                     41                     42
                      A                      A                      A
 Frequencies --   1322.3256              1328.3925              1355.8391
 Red. masses --      3.7892                 2.1312                 3.2135
 Frc consts  --      3.9037                 2.2157                 3.4805
 IR Inten    --      7.3961                36.1917                36.2935

                     43                     44                     45
                      A                      A                      A
 Frequencies --   1378.7475              1432.6257              1459.6646
 Red. masses --      2.7969                 3.7654                 2.1343
 Frc consts  --      3.1325                 4.5533                 2.6792
 IR Inten    --     17.8983                59.2220                12.9123

                     46                     47                     48
                      A                      A                      A
 Frequencies --   1504.3845              1519.2063              1542.7261
 Red. masses --      3.2243                 3.9755                 2.9837
 Frc consts  --      4.2994                 5.4060                 4.1839
 IR Inten    --      3.2514                59.4599                19.3700

                     49                     50                     51
                      A                      A                      A
 Frequencies --   1616.9014              1633.4025              1661.4656
 Red. masses --      6.6861                 5.6277                 6.2986
 Frc consts  --     10.2989                 8.8464                10.2442
 IR Inten    --     12.5239                 1.6089                23.3220

                     52                     53                     54
                      A                      A                      A
 Frequencies --   1682.2658              2347.2259              3183.5810
 Red. masses --      7.4283                12.6785                 1.0889
 Frc consts  --     12.3859                41.1555                 6.5023
 IR Inten    --     60.3400                69.2978                19.4429

                     55                     56                     57
                      A                      A                      A
 Frequencies --   3198.5915              3202.7733              3218.6534
 Red. masses --      1.0901                 1.0892                 1.0961
 Frc consts  --      6.5712                 6.5830                 6.6904
 IR Inten    --     11.7007                 7.3284                22.2080

                     58                     59                     60
                      A                      A                      A
 Frequencies --   3224.6516              3231.4695              3659.3552
 Red. masses --      1.0943                 1.0923                 1.0796
 Frc consts  --      6.7045                 6.7202                 8.5174
 IR Inten    --      5.1935                 0.2914                60.8400

 - Thermochemistry -
 -------------------
 Temperature   298.150 Kelvin.  Pressure   1.00000 Atm.
 Atom     1 has atomic number  6 and mass  12.00000

 Molecular mass:   193.06400 amu.
 Principal axes and moments of inertia in atomic units:
                           1         2         3
     Eigenvalues --  1110.314784795.902615906.21739
           X            0.99994   0.01067   0.00002
           Y           -0.01067   0.99994  -0.00012
           Z           -0.00002   0.00012   1.00000
 This molecule is an asymmetric top.
 Rotational symmetry number  1.
 Warning -- assumption of classical behavior for rotation
           may cause significant error
 Rotational temperatures (Kelvin)      0.07801     0.01806     0.01466
 Rotational constants (GHZ):           1.62543     0.37631     0.30557
 Zero-point vibrational energy     430798.1 (Joules/Mol)
                                  102.96322 (Kcal/Mol)
 Warning -- explicit consideration of  16 degrees of freedom as
           vibrations may cause significant error
 Vibrational temperatures:    109.15   168.93   175.15   262.30   335.01
          (Kelvin)            435.57   441.14   527.27   546.90   623.35
                              655.09   702.58   725.42   747.14   844.00
                              851.49   912.09   932.31   941.20  1053.50
                             1084.93  1150.01  1167.56  1186.79  1189.72
                             1261.12  1330.48  1337.50  1341.50  1365.18
                             1397.77  1510.89  1545.33  1648.22  1681.98
                             1711.60  1782.99  1800.00  1823.63  1902.53
                             1911.26  1950.75  1983.71  2061.23  2100.13
                             2164.47  2185.80  2219.64  2326.36  2350.10
                             2390.48  2420.41  3377.13  4580.46  4602.06
                             4608.08  4630.92  4639.55  4649.36  5265.00

 Zero-point correction=                           0.164082 (Hartree/Particle)
 Thermal correction to Energy=                    0.174647
 Thermal correction to Enthalpy=                  0.175591
 Thermal correction to Gibbs Free Energy=         0.127582
 Sum of electronic and zero-point Energies=           -625.637993
 Sum of electronic and thermal Energies=              -625.627429
 Sum of electronic and thermal Enthalpies=            -625.626484
 Sum of electronic and thermal Free Energies=         -625.674493

                     E (Thermal)             CV                S
                      KCal/Mol        Cal/Mol-Kelvin    Cal/Mol-Kelvin
 Total                  109.593             42.895            101.043
 Electronic               0.000              0.000              0.000
 Translational            0.889              2.981             41.679
 Rotational               0.889              2.981             31.820
 Vibrational            107.815             36.934             27.544
 Vibration     1          0.599              1.965              3.995
 Vibration     2          0.608              1.935              3.142
 Vibration     3          0.609              1.931              3.073
 Vibration     4          0.630              1.864              2.305
 Vibration     5          0.654              1.791              1.857
 Vibration     6          0.694              1.669              1.402
 Vibration     7          0.697              1.661              1.381
 Vibration     8          0.739              1.541              1.095
 Vibration     9          0.750              1.513              1.039
 Vibration    10          0.794              1.398              0.848
 Vibration    11          0.814              1.349              0.780
 Vibration    12          0.844              1.276              0.688
 Vibration    13          0.859              1.241              0.648
 Vibration    14          0.874              1.207              0.612
 Vibration    15          0.944              1.060              0.473
 Vibration    16          0.949              1.049              0.464

 Optimization completed.
    -- Stationary point found.

 1\1\GINC-NODE373\Freq\RB3LYP\6-31G(d)\C12H7N3\VSC10255\10-Dec-2020\0\\
 #N Geom=AllCheck Guess=TCheck SCRF=Check GenChk RB3LYP/6-31G(d) Freq\\
 CID_53305767_JID_5794_neutraal\\0,1\C,3.3953575819,-0.2206350688,-0.00
 00347578\C,2.4945604275,-1.2838895793,0.0001120438\C,1.1456469676,-0.9
 414021914,0.0000896967\C,0.7655447468,0.4290554569,-0.0000762019\C,-0.
 6828540466,0.4617147217,-0.0000578666\C,-1.1182507296,-0.8919358511,0.
 0001178025\N,-0.00504828,-1.7153186833,0.0002037102\C,-2.4753436671,-1
 .2253818396,0.0001802512\C,-3.3954840107,-0.1870128846,0.000064498\C,-

 Normal termination of Gaussian 16 at Thu Dec 10 17:06:13 2020.

 ----------------------------------------------------------------------
 # B3LYP/6-311++G(d,p) empiricaldispersion=gd3bj scf=xqc pop=npa geom=c
 heck
 ----------------------------------------------------------------------

 --------------------------------------
 CID_53305767_JID_5794_Energie_neutraal
 --------------------------------------
 Structure from the checkpoint file:  "JID_5794.chk"
 Charge =  0 Multiplicity = 1

 SCF Done:  E(RB3LYP) =  -625.959079373     A.U. after   16 cycles
 Normal termination of Gaussian 16 at Thu Dec 10 17:09:54 2020.

 ----------------------------------------------------------------------
 # B3LYP/6-311++G(d,p) empiricaldispersion=gd3bj scf=xqc pop=npa geom=c
 heck
 ----------------------------------------------------------------------

 ------------------------------------
 CID_53305767_JID_5794_Energie_kation
 ------------------------------------
 Structure from the checkpoint file:  "JID_5794.chk"
 Charge =  1 Multiplicity = 2

 SCF Done:  E(UB3LYP) =  -625.657784975     A.U. after   25 cycles
 Normal termination of Gaussian 16 at Thu Dec 10 17:18:58 2020.
 Gaussian 16:  ES64L-G16RevA.03 25-Dec-2016

 -----------------------------------
 CID_53305767_JID_5794_Energie_anion
 -----------------------------------
 Structure from the checkpoint file:  "JID_5794.chk"
 Charge = -1 Multiplicity = 2

                         Standard orientation:
 ---------------------------------------------------------------------
 Center     Atomic      Atomic             Coordinates (Angstroms)
 Number     Number       Type             X           Y           Z
 ---------------------------------------------------------------------
      1          6           0       -3.914962   -0.554266    0.000003
      2          6           0       -3.328618    0.709912    0.000150
      3          6           0       -1.937181    0.737666    0.000128
      4          6           0       -1.207028   -0.482788   -0.000038
      5          6           0        0.198107   -0.129914   -0.000020
      6          6           0        0.258675    1.290745    0.000156
      7          7           0       -1.033117    1.789195    0.000242
      8          6           0        1.478624    1.972368    0.000218
      9          6           0        2.641327    1.215407    0.000103
     10          6           0        2.596830   -0.200185   -0.000073
     11          6           0        1.371201   -0.878477   -0.000134
     12          6           0        3.823267   -0.937824   -0.000187
     13          7           0        4.823711   -1.532107   -0.000280
     14          7           0       -1.775895   -1.692333   -0.000178
     15          6           0       -3.111894   -1.708482   -0.000156
     16          1           0       -4.995531   -0.655145    0.000011
     17          1           0       -3.926977    1.616401    0.000274
     18          1           0       -1.275097    2.768095    0.000369
     19          1           0        1.521865    3.057162    0.000352
     20          1           0        3.607654    1.707912    0.000146
     21          1           0        1.334233   -1.962137   -0.000269
     22          1           0       -3.579137   -2.690545   -0.000269
 ---------------------------------------------------------------------

 SCF Done:  E(UB3LYP) =  -625.975892514     A.U. after   24 cycles

 The electronic state is 2-A.
 Alpha  occ. eigenvalues --  -14.23754 -14.18441 -14.14937 -10.09280 -10.08721
 Alpha  occ. eigenvalues --  -10.08299 -10.07339 -10.05939 -10.05327 -10.04942
 Alpha  occ. eigenvalues --  -10.04757 -10.04183 -10.04153 -10.03545 -10.03274
 Alpha  occ. eigenvalues --   -0.86298  -0.78998  -0.78351  -0.72801  -0.66489
 Alpha  occ. eigenvalues --   -0.65023  -0.63146  -0.59824  -0.53882  -0.50900
 Alpha  occ. eigenvalues --   -0.48807  -0.46056  -0.41761  -0.41543  -0.39474
 Alpha  occ. eigenvalues --   -0.35182  -0.34599  -0.32021  -0.31440  -0.31390
 Alpha  occ. eigenvalues --   -0.29380  -0.27643  -0.26586  -0.26201  -0.25009
 Alpha  occ. eigenvalues --   -0.24098  -0.23920  -0.22648  -0.20645  -0.20574
 Alpha  occ. eigenvalues --   -0.16640  -0.14624  -0.11610  -0.10212  -0.09268
 Alpha  occ. eigenvalues --    0.03933
 Alpha virt. eigenvalues --    0.07496   0.08649   0.08895   0.09489   0.10707
 Alpha virt. eigenvalues --    0.11428   0.11826   0.12797   0.13213   0.14056
 Alpha virt. eigenvalues --    0.14727   0.15138   0.15204   0.15969   0.16404

  Beta  occ. eigenvalues --  -14.23745 -14.18475 -14.14482 -10.09301 -10.08704
  Beta  occ. eigenvalues --  -10.08367 -10.07434 -10.06012 -10.05198 -10.04709
  Beta  occ. eigenvalues --  -10.04631 -10.03921 -10.03869 -10.03454 -10.03066
  Beta  occ. eigenvalues --   -0.86227  -0.78414  -0.78383  -0.72519  -0.66017
  Beta  occ. eigenvalues --   -0.64598  -0.62920  -0.59452  -0.53517  -0.50740
  Beta  occ. eigenvalues --   -0.48526  -0.45634  -0.41559  -0.41350  -0.39278
  Beta  occ. eigenvalues --   -0.35037  -0.34405  -0.31870  -0.31201  -0.30985
  Beta  occ. eigenvalues --   -0.29223  -0.27495  -0.26433  -0.25876  -0.24865
  Beta  occ. eigenvalues --   -0.24079  -0.22977  -0.22551  -0.20574  -0.19973
  Beta  occ. eigenvalues --   -0.15098  -0.13379  -0.11093  -0.09166  -0.08345
  Beta virt. eigenvalues --    0.07432   0.08607   0.09348   0.09407   0.09448
  Beta virt. eigenvalues --    0.10664   0.11394   0.12771   0.12851   0.13168
  Beta virt. eigenvalues --    0.14691   0.14798   0.15186   0.15573   0.15951

 Mulliken charges and spin densities:
               1          2
     1  C    0.002668   0.207020
     2  C   -0.925848   0.170716
     3  C    0.402405  -0.042440
     4  C   -0.206222   0.068355
     5  C    1.266588  -0.022280
     6  C   -0.917598   0.000583
     7  N   -0.094742   0.016234
     8  C   -0.667827   0.097219
     9  C   -0.545096   0.178848
    10  C    1.694873  -0.067116
    11  C   -0.108578   0.283924
    12  C   -1.422986   0.033446
    13  N   -0.274823  -0.018167
    14  N   -0.080658   0.220099
    15  C   -0.121218  -0.053492
    16  H    0.117288  -0.011453
    17  H    0.096486  -0.018787
    18  H    0.254325   0.000620
    19  H    0.101447  -0.010055
    20  H    0.130028  -0.015989
    21  H    0.168609  -0.019459
    22  H    0.130880   0.002174
 Sum of Mulliken charges =  -1.00000   1.00000

 Dipole moment (field-independent basis, Debye):
    X=             -4.0359    Y=              5.9586    Z=              0.0008  Tot=              7.1968
 Quadrupole moment (field-independent basis, Debye-Ang):
   XX=           -149.4404   YY=            -95.8484   ZZ=            -96.4783
   XY=              5.6608   XZ=              0.0017   YZ=             -0.0000

 Summary of Natural Population Analysis:

                                       Natural Population
                Natural  -----------------------------------------------
    Atom  No    Charge         Core      Valence    Rydberg      Total
 -----------------------------------------------------------------------
      C    1   -0.09067      0.99958     2.08214    0.00895     3.09067
      C    2   -0.07950      0.99953     2.07129    0.00868     3.07950
      C    3    0.05885      0.99947     1.93084    0.01084     2.94115
      C    4    0.10070      0.99936     1.88546    0.01448     2.89930
      C    5   -0.04020      0.99948     2.03209    0.00864     3.04020
      C    6    0.10108      0.99949     1.88906    0.01038     2.89892
      N    7   -0.28068      0.99963     2.77323    0.00782     3.78068
      C    8   -0.11601      0.99953     2.10798    0.00850     3.11601
      C    9   -0.03840      0.99958     2.02985    0.00897     3.03840
      C   10   -0.12892      0.99931     2.11944    0.01017     3.12892
      C   11    0.00018      0.99953     1.99163    0.00866     2.99982
      C   12    0.16829      0.99964     1.81406    0.01800     2.83171
      N   13   -0.22125      0.99979     2.71017    0.01129     3.72125
      N   14   -0.16381      0.99967     2.65295    0.01119     3.66381
      C   15   -0.00974      0.99962     1.99414    0.01598     3.00974
      H   16    0.08953      0.00000     0.40924    0.00124     0.41047
      H   17    0.08913      0.00000     0.40932    0.00155     0.41087
      H   18    0.19198      0.00000     0.30676    0.00126     0.30802
      H   19    0.09291      0.00000     0.40559    0.00150     0.40709
      H   20    0.09395      0.00000     0.40514    0.00091     0.40605
      H   21    0.10355      0.00000     0.39515    0.00130     0.39645
      H   22    0.07912      0.00000     0.41952    0.00137     0.42088
 =======================================================================
   * Total *    0.00007     14.99321    34.83505    0.17167    49.99993

 Normal termination of Gaussian 16 at Thu Dec 10 17:27:47 2020.
