 Gaussian 16, Revision A.03,

 -----------------------------------------------------------
 # opt freq B3LYP/6-31G(d) empiricaldispersion=gd3bj scf=xqc
 -----------------------------------------------------------

 ------------------------------
 CID_89726792_JID_3127_neutraal
 ------------------------------
 Symbolic Z-matrix:
 Charge =  0 Multiplicity = 1

 SCF Done:  E(RB3LYP) =  -554.347658399     A.U. after   13 cycles
 SCF Done:  E(RB3LYP) =  -554.351978833     A.U. after   12 cycles
 SCF Done:  E(RB3LYP) =  -554.352691714     A.U. after   12 cycles
 SCF Done:  E(RB3LYP) =  -554.352848110     A.U. after   12 cycles
 SCF Done:  E(RB3LYP) =  -554.352892592     A.U. after   11 cycles
 SCF Done:  E(RB3LYP) =  -554.352902277     A.U. after   10 cycles
 SCF Done:  E(RB3LYP) =  -554.352906361     A.U. after   10 cycles
 SCF Done:  E(RB3LYP) =  -554.352906975     A.U. after    8 cycles
 SCF Done:  E(RB3LYP) =  -554.352907092     A.U. after    8 cycles
 SCF Done:  E(RB3LYP) =  -554.352907157     A.U. after    7 cycles
 Optimization completed.
    -- Stationary point found.
 Normal termination of Gaussian 16 at Wed Dec  9 22:24:53 2020.

 --------------------------------------------------------------------
 #N Geom=AllCheck Guess=TCheck SCRF=Check GenChk RB3LYP/6-31G(d) Freq
 --------------------------------------------------------------------

 Structure from the checkpoint file:  "JID_3127.chk"
 ------------------------------
 CID_89726792_JID_3127_neutraal
 ------------------------------
 Charge =  0 Multiplicity = 1

 SCF Done:  E(RB3LYP) =  -554.352907157     A.U. after    1 cycles

  Exact polarizability: 144.313   3.601 112.094  -9.975   6.917  96.312
 Approx polarizability: 196.988   8.014 183.672 -20.717  19.856 144.766

                      1                      2                      3
                      A                      A                      A
 Frequencies --     26.0661                64.5868                83.4172
 Red. masses --      4.2317                 3.4958                 3.9715
 Frc consts  --      0.0017                 0.0086                 0.0163
 IR Inten    --      0.1746                 0.1144                 1.1525

                      4                      5                      6
                      A                      A                      A
 Frequencies --    131.5875               193.6256               204.7952
 Red. masses --      2.6043                 3.1907                 2.0661
 Frc consts  --      0.0266                 0.0705                 0.0511
 IR Inten    --      0.2021                 2.2365                 1.9615

                      7                      8                      9
                      A                      A                      A
 Frequencies --    227.3639               236.6708               279.2700
 Red. masses --      3.2835                 1.5184                 1.1050
 Frc consts  --      0.1000                 0.0501                 0.0508
 IR Inten    --      3.8283                 1.0298                 0.2279

                     10                     11                     12
                      A                      A                      A
 Frequencies --    293.8559               302.6777               335.6801
 Red. masses --      2.7505                 2.3648                 2.9183
 Frc consts  --      0.1399                 0.1276                 0.1937
 IR Inten    --      3.9534                 0.9081                 3.6589

                     13                     14                     15
                      A                      A                      A
 Frequencies --    412.9804               438.8767               461.7246
 Red. masses --      4.2158                 2.9537                 3.3739
 Frc consts  --      0.4236                 0.3352                 0.4238
 IR Inten    --      0.0778                 1.3644                 7.9186

                     16                     17                     18
                      A                      A                      A
 Frequencies --    555.8548               568.6977               644.7242
 Red. masses --      3.1569                 2.7730                 7.0563
 Frc consts  --      0.5747                 0.5284                 1.7281
 IR Inten    --      2.8828                 8.5972                 8.3704

                     19                     20                     21
                      A                      A                      A
 Frequencies --    673.6950               724.0286               797.1672
 Red. masses --      3.4607                 2.2800                 1.3566
 Frc consts  --      0.9254                 0.7042                 0.5079
 IR Inten    --     14.6540                 8.8310                 3.2016

                     22                     23                     24
                      A                      A                      A
 Frequencies --    814.6514               820.9027               843.8183
 Red. masses --      2.2703                 1.3453                 1.3320
 Frc consts  --      0.8877                 0.5342                 0.5588
 IR Inten    --      4.5729                 8.2720                10.6287

                     25                     26                     27
                      A                      A                      A
 Frequencies --    850.2186               901.6379               967.3723
 Red. masses --      6.1316                 2.3001                 3.2953
 Frc consts  --      2.6115                 1.1017                 1.8169
 IR Inten    --      6.7082                14.4679                 2.5345

                     28                     29                     30
                      A                      A                      A
 Frequencies --    993.1988               999.8389              1001.8382
 Red. masses --      1.9423                 1.3804                 1.5600
 Frc consts  --      1.1289                 0.8130                 0.9225
 IR Inten    --      0.9320                 0.0120                 0.4091

                     31                     32                     33
                      A                      A                      A
 Frequencies --   1010.9232              1043.7420              1066.3015
 Red. masses --      6.5721                 1.8033                 1.3767
 Frc consts  --      3.9572                 1.1575                 0.9222
 IR Inten    --      0.1605                19.5338                11.0988

                     34                     35                     36
                      A                      A                      A
 Frequencies --   1083.5184              1089.6459              1105.7978
 Red. masses --      1.4406                 2.2738                 2.4818
 Frc consts  --      0.9965                 1.5907                 1.7880
 IR Inten    --      1.0047                 8.0463                 0.4049

                     37                     38                     39
                      A                      A                      A
 Frequencies --   1109.5364              1129.4846              1144.9911
 Red. masses --      1.6818                 1.4891                 1.2606
 Frc consts  --      1.2198                 1.1193                 0.9737
 IR Inten    --     17.4304                 8.7675                 9.6721

                     40                     41                     42
                      A                      A                      A
 Frequencies --   1147.5959              1186.0383              1209.2091
 Red. masses --      1.3860                 1.5708                 1.7557
 Frc consts  --      1.0755                 1.3019                 1.5125
 IR Inten    --      0.3629                 5.1141                 8.6143

                     43                     44                     45
                      A                      A                      A
 Frequencies --   1212.9256              1244.3705              1247.5738
 Red. masses --      1.9965                 2.1489                 5.9480
 Frc consts  --      1.7306                 1.9605                 5.4545
 IR Inten    --     10.8983                 2.9193                 4.0133

                     46                     47                     48
                      A                      A                      A
 Frequencies --   1272.1455              1300.8448              1317.2080
 Red. masses --      1.9089                 2.1474                 2.2307
 Frc consts  --      1.8202                 2.1410                 2.2803
 IR Inten    --     13.4765                 8.2976                 0.3889

                     49                     50                     51
                      A                      A                      A
 Frequencies --   1381.5436              1406.2581              1424.6757
 Red. masses --      1.5228                 1.2283                 1.4235
 Frc consts  --      1.7125                 1.4311                 1.7023
 IR Inten    --      8.7617                14.0741                17.7922

                     52                     53                     54
                      A                      A                      A
 Frequencies --   1433.6220              1466.5808              1482.3435
 Red. masses --      1.3450                 2.5460                 1.1157
 Frc consts  --      1.6287                 3.2264                 1.4444
 IR Inten    --     12.2524                92.8728                 1.3864

                     55                     56                     57
                      A                      A                      A
 Frequencies --   1483.3925              1487.4738              1515.5956
 Red. masses --      1.9116                 1.1700                 1.0708
 Frc consts  --      2.4784                 1.5252                 1.4492
 IR Inten    --      3.7423                 3.7385                 9.8289

                     58                     59                     60
                      A                      A                      A
 Frequencies --   1519.7420              1527.9413              1535.6596
 Red. masses --      1.0544                 1.2370                 1.1815
 Frc consts  --      1.4348                 1.7015                 1.6417
 IR Inten    --      8.1828                 1.2958                15.5470

                     61                     62                     63
                      A                      A                      A
 Frequencies --   1541.1051              1615.1398              1633.1149
 Red. masses --      1.0538                 5.7983                 5.0394
 Frc consts  --      1.4746                 8.9120                 7.9188
 IR Inten    --      3.6471                73.1629                89.4154

                     64                     65                     66
                      A                      A                      A
 Frequencies --   2976.3721              3065.4710              3079.4155
 Red. masses --      1.0587                 1.0395                 1.0837
 Frc consts  --      5.5257                 5.7554                 6.0548
 IR Inten    --     63.2236                20.1861                12.7296

                     67                     68                     69
                      A                      A                      A
 Frequencies --   3088.2961              3091.7122              3130.3654
 Red. masses --      1.0767                 1.0823                 1.1010
 Frc consts  --      6.0506                 6.0952                 6.3566
 IR Inten    --     60.9031                 7.1871                26.3881

                     70                     71                     72
                      A                      A                      A
 Frequencies --   3135.2271              3150.5516              3158.2545
 Red. masses --      1.1041                 1.0522                 1.0587
 Frc consts  --      6.3946                 6.1537                 6.2218
 IR Inten    --     32.4117                19.9428                12.3001

                     73                     74                     75
                      A                      A                      A
 Frequencies --   3168.1075              3170.8464              3173.0150
 Red. masses --      1.1004                 1.0897                 1.0916
 Frc consts  --      6.5075                 6.4551                 6.4750
 IR Inten    --     16.9499                15.7198                32.7344

                     76                     77                     78
                      A                      A                      A
 Frequencies --   3224.5775              3230.5790              3247.3837
 Red. masses --      1.0960                 1.1190                 1.1157
 Frc consts  --      6.7141                 6.8810                 6.9322
 IR Inten    --     15.0684                 3.4778                17.4891

 - Thermochemistry -
 -------------------
 Temperature   298.150 Kelvin.  Pressure   1.00000 Atm.
 Atom     1 has atomic number  6 and mass  12.00000

 Molecular mass:   177.12660 amu.
 Principal axes and moments of inertia in atomic units:
                           1         2         3
     Eigenvalues --  1217.494803390.781793505.47629
           X            0.99999   0.00201  -0.00317
           Y           -0.00234   0.99419  -0.10765
           Z            0.00293   0.10765   0.99418
 This molecule is an asymmetric top.
 Rotational symmetry number  1.
 Warning -- assumption of classical behavior for rotation
           may cause significant error
 Rotational temperatures (Kelvin)      0.07114     0.02554     0.02471
 Rotational constants (GHZ):           1.48234     0.53225     0.51483
 Zero-point vibrational energy     635917.1 (Joules/Mol)
                                  151.98784 (Kcal/Mol)
 Warning -- explicit consideration of  17 degrees of freedom as
           vibrations may cause significant error
 Vibrational temperatures:     37.50    92.93   120.02   189.33   278.58
          (Kelvin)            294.65   327.13   340.52   401.81   422.79
                              435.49   482.97   594.19   631.45   664.32
                              799.75   818.23   927.61   969.30  1041.72
                             1146.95  1172.10  1181.10  1214.07  1223.27
                             1297.26  1391.83  1428.99  1438.55  1441.42
                             1454.49  1501.71  1534.17  1558.94  1567.76
                             1591.00  1596.38  1625.08  1647.39  1651.13
                             1706.44  1739.78  1745.13  1790.37  1794.98
                             1830.33  1871.63  1895.17  1987.73  2023.29
                             2049.79  2062.66  2110.08  2132.76  2134.27
                             2140.14  2180.60  2186.57  2198.37  2209.47
                             2217.31  2323.83  2349.69  4282.34  4410.53
                             4430.59  4443.37  4448.28  4503.90  4510.89
                             4532.94  4544.02  4558.20  4562.14  4565.26
                             4639.45  4648.08  4672.26

 Zero-point correction=                           0.242208 (Hartree/Particle)
 Thermal correction to Energy=                    0.254557
 Thermal correction to Enthalpy=                  0.255502
 Thermal correction to Gibbs Free Energy=         0.203057
 Sum of electronic and zero-point Energies=           -554.110699
 Sum of electronic and thermal Energies=              -554.098350
 Sum of electronic and thermal Enthalpies=            -554.097406
 Sum of electronic and thermal Free Energies=         -554.149851

                     E (Thermal)             CV                S
                      KCal/Mol        Cal/Mol-Kelvin    Cal/Mol-Kelvin
 Total                  159.737             47.287            110.380
 Electronic               0.000              0.000              0.000
 Translational            0.889              2.981             41.422
 Rotational               0.889              2.981             31.049
 Vibrational            157.960             41.325             37.909
 Vibration     1          0.593              1.985              6.108
 Vibration     2          0.597              1.971              4.312
 Vibration     3          0.600              1.961              3.809
 Vibration     4          0.612              1.922              2.923
 Vibration     5          0.635              1.849              2.193
 Vibration     6          0.640              1.833              2.090
 Vibration     7          0.651              1.799              1.900
 Vibration     8          0.656              1.785              1.828
 Vibration     9          0.680              1.712              1.538
 Vibration    10          0.689              1.685              1.452
 Vibration    11          0.694              1.669              1.402
 Vibration    12          0.717              1.604              1.233
 Vibration    13          0.777              1.442              0.916
 Vibration    14          0.799              1.385              0.830
 Vibration    15          0.819              1.335              0.761
 Vibration    16          0.911              1.127              0.532
 Vibration    17          0.925              1.099              0.507

                           ! Non-Optimized Parameters !
 Normal termination of Gaussian 16 at Wed Dec  9 22:32:32 2020.

 ----------------------------------------------------------------------
 # B3LYP/6-311++G(d,p) empiricaldispersion=gd3bj scf=xqc pop=npa geom=c
 heck
 ----------------------------------------------------------------------

 --------------------------------------
 CID_89726792_JID_3127_Energie_neutraal
 --------------------------------------
 Structure from the checkpoint file:  "JID_3127.chk"
 Charge =  0 Multiplicity = 1

 SCF Done:  E(RB3LYP) =  -554.499294451     A.U. after   15 cycles
 Normal termination of Gaussian 16 at Wed Dec  9 22:35:53 2020.

 ----------------------------------------------------------------------
 # B3LYP/6-311++G(d,p) empiricaldispersion=gd3bj scf=xqc pop=npa geom=c
 heck
 ----------------------------------------------------------------------

 ------------------------------------
 CID_89726792_JID_3127_Energie_kation
 ------------------------------------
 Structure from the checkpoint file:  "JID_3127.chk"
 Charge =  1 Multiplicity = 2

 SCF Done:  E(UB3LYP) =  -554.212929317     A.U. after   23 cycles
 Normal termination of Gaussian 16 at Wed Dec  9 22:43:16 2020.
 Gaussian 16:  ES64L-G16RevA.03 25-Dec-2016

 ----------------------------------------------------------------------
 # B3LYP/6-311++G(d,p) empiricaldispersion=gd3bj scf=xqc pop=npa geom=c
 heck
 ----------------------------------------------------------------------

 -----------------------------------
 CID_89726792_JID_3127_Energie_anion
 -----------------------------------
 Structure from the checkpoint file:  "JID_3127.chk"
 Charge = -1 Multiplicity = 2

                         Standard orientation:
 ---------------------------------------------------------------------
 Center     Atomic      Atomic             Coordinates (Angstroms)
 Number     Number       Type             X           Y           Z
 ---------------------------------------------------------------------
      1          6           0       -0.750696   -0.717546    2.111767
      2          6           0       -0.301208    0.403657    1.176556
      3          6           0        1.012870    0.065502    0.484979
      4          7           0        1.124101   -1.144916   -0.090089
      5          6           0        2.260929   -1.398773   -0.744263
      6          6           0        3.296057   -0.471148   -0.834300
      7          6           0        3.078125    0.751718   -0.205480
      8          7           0        1.947096    1.031573    0.451104
      9          7           0       -1.355125    0.793179    0.215058
     10          6           0       -1.012899    2.005259   -0.525096
     11          6           0       -1.829236   -0.248114   -0.660680
     12          6           0       -2.941370   -1.151138   -0.196253
     13          6           0       -3.216998   -0.086370   -1.227458
     14          1           0       -0.874021   -1.658497    1.573249
     15          1           0       -1.697722   -0.446586    2.587199
     16          1           0        0.002365   -0.868966    2.892826
     17          1           0       -0.101685    1.301764    1.769862
     18          1           0        2.342956   -2.380823   -1.207796
     19          1           0        4.217647   -0.689132   -1.363120
     20          1           0        3.832179    1.537159   -0.224581
     21          1           0       -0.194353    1.869214   -1.253348
     22          1           0       -1.895929    2.349315   -1.071021
     23          1           0       -0.705635    2.787277    0.176265
     24          1           0       -1.091500   -0.703407   -1.326460
     25          1           0       -2.915008   -2.191997   -0.506357
     26          1           0       -3.332704   -0.981678    0.800697
     27          1           0       -3.784140    0.779822   -0.899723
     28          1           0       -3.388405   -0.380609   -2.258851
 ---------------------------------------------------------------------

 SCF Done:  E(UB3LYP) =  -554.489493821     A.U. after   33 cycles
 SCF Done:  E(UB3LYP) =  -554.489503393     a.u. after    3 cycles

 The electronic state is 2-A.
 Alpha  occ. eigenvalues --  -14.19350 -14.15827 -14.15430 -10.09433 -10.08495
 Alpha  occ. eigenvalues --  -10.08030 -10.06948 -10.06264 -10.06233 -10.05892
 Alpha  occ. eigenvalues --  -10.05635 -10.04347 -10.04018  -0.83946  -0.81314
 Alpha  occ. eigenvalues --   -0.73606  -0.73047  -0.65986  -0.62291  -0.55528
 Alpha  occ. eigenvalues --   -0.53252  -0.50760  -0.49617  -0.48418  -0.44051
 Alpha  occ. eigenvalues --   -0.39176  -0.38644  -0.36932  -0.35592  -0.34637
 Alpha  occ. eigenvalues --   -0.32744  -0.31230  -0.29536  -0.29187  -0.27930
 Alpha  occ. eigenvalues --   -0.27206  -0.26693  -0.26050  -0.24538  -0.23991
 Alpha  occ. eigenvalues --   -0.23178  -0.19237  -0.18175  -0.17360  -0.16362
 Alpha  occ. eigenvalues --   -0.13985  -0.10479  -0.09987   0.05573
 Alpha virt. eigenvalues --    0.07452   0.08111   0.08684   0.08798   0.09912
 Alpha virt. eigenvalues --    0.10135   0.10785   0.10831   0.11734   0.11892
 Alpha virt. eigenvalues --    0.12359   0.13355   0.13976   0.14570   0.15375

  Beta  occ. eigenvalues --  -14.19350 -14.15604 -14.15121 -10.09486 -10.08496
  Beta  occ. eigenvalues --  -10.08030 -10.06937 -10.06257 -10.06217 -10.05613
  Beta  occ. eigenvalues --  -10.05304 -10.04347 -10.04105  -0.83609  -0.81210
  Beta  occ. eigenvalues --   -0.73057  -0.72945  -0.65825  -0.62114  -0.55508
  Beta  occ. eigenvalues --   -0.53182  -0.50132  -0.49571  -0.48298  -0.43981
  Beta  occ. eigenvalues --   -0.39121  -0.38526  -0.36742  -0.35508  -0.34557
  Beta  occ. eigenvalues --   -0.32662  -0.31141  -0.29502  -0.29008  -0.27759
  Beta  occ. eigenvalues --   -0.26636  -0.26465  -0.25895  -0.24456  -0.23841
  Beta  occ. eigenvalues --   -0.23137  -0.19194  -0.18108  -0.16064  -0.15429
  Beta  occ. eigenvalues --   -0.13214  -0.10269  -0.09818
  Beta virt. eigenvalues --    0.07643   0.08599   0.08756   0.08868   0.10187
  Beta virt. eigenvalues --    0.10379   0.10844   0.10981   0.11296   0.11828
  Beta virt. eigenvalues --    0.11975   0.12431   0.13351   0.13967   0.14585

 Mulliken charges and spin densities:
               1          2
     1  C   -0.777085  -0.061387
     2  C    0.670653  -0.534121
     3  C   -0.662679  -0.171132
     4  N   -0.076508   0.166841
     5  C   -0.194580   0.403474
     6  C    0.781777  -1.015443
     7  C   -0.193556   0.415886
     8  N   -0.036617   0.163965
     9  N    0.169796   0.021037
    10  C   -0.035552  -0.217172
    11  C   -1.125685   0.638377
    12  C   -0.085082  -0.192724
    13  C    0.487088  -0.730297
    14  H    0.158057   0.017843
    15  H    0.129308  -0.004173
    16  H    0.122290   0.013013
    17  H    0.226978  -0.006504
    18  H   -0.247555   0.383543
    19  H   -0.572449   0.715151
    20  H   -0.116415   0.260401
    21  H    0.107914   0.048952
    22  H   -0.089533   0.203486
    23  H    0.077336   0.053336
    24  H    0.236991  -0.042186
    25  H    0.094119   0.051142
    26  H    0.097579   0.010198
    27  H    0.080165   0.039984
    28  H   -0.226757   0.368510
 Sum of Mulliken charges =  -1.00000   1.00000

 Dipole moment (field-independent basis, Debye):
    X=             -4.6909    Y=              0.6933    Z=              2.9814  Tot=              5.6013
 Quadrupole moment (field-independent basis, Debye-Ang):
   XX=           -140.1419   YY=           -102.5951   ZZ=           -103.4038
   XY=              2.2690   XZ=              0.2253   YZ=             -4.8524

 Summary of Natural Population Analysis:

                                       Natural Population
                Natural  -----------------------------------------------
    Atom  No    Charge         Core      Valence    Rydberg      Total
 -----------------------------------------------------------------------
      C    1   -0.28617      0.99965     2.28163    0.00489     3.28617
      C    2   -0.01887      0.99954     2.00502    0.01431     3.01887
      C    3    0.19781      0.99957     1.78302    0.01960     2.80219
      N    4   -0.23084      0.99967     2.71963    0.01154     3.73084
      C    5    0.08575      0.99959     1.89889    0.01577     2.91425
      C    6   -0.16631      0.99955     2.15784    0.00892     3.16631
      C    7    0.09194      0.99959     1.89241    0.01606     2.90806
      N    8   -0.23757      0.99968     2.72679    0.01111     3.73757
      N    9   -0.27928      0.99970     2.76625    0.01333     3.77928
      C   10   -0.17414      0.99964     2.16794    0.00656     3.17414
      C   11   -0.01850      0.99955     2.00393    0.01502     3.01850
      C   12   -0.20128      0.99961     2.19308    0.00859     3.20128
      C   13   -0.20528      0.99962     2.19693    0.00873     3.20528
      H   14    0.10921      0.00000     0.38962    0.00118     0.39079
      H   15    0.09405      0.00000     0.40483    0.00112     0.40595
      H   16    0.09829      0.00000     0.40102    0.00069     0.40171
      H   17    0.09891      0.00000     0.39932    0.00177     0.40109
      H   18    0.08127      0.00000     0.41764    0.00108     0.41873
      H   19    0.10095      0.00000     0.39758    0.00147     0.39905
      H   20    0.07975      0.00000     0.41916    0.00109     0.42025
      H   21    0.08754      0.00000     0.41100    0.00146     0.41246
      H   22    0.09079      0.00000     0.40809    0.00111     0.40921
      H   23    0.09473      0.00000     0.40423    0.00104     0.40527
      H   24    0.10286      0.00000     0.39522    0.00193     0.39714
      H   25    0.09984      0.00000     0.39934    0.00082     0.40016
      H   26    0.10251      0.00000     0.39612    0.00137     0.39749
      H   27    0.10183      0.00000     0.39697    0.00120     0.39817
      H   28    0.10024      0.00000     0.39875    0.00101     0.39976
 =======================================================================
   * Total *    0.00000     12.99497    34.83226    0.17277    48.00000

 Normal termination of Gaussian 16 at Wed Dec  9 23:12:46 2020.
