 Gaussian 16, Revision A.03,

 -----------------------------------------------------------
 # opt freq B3LYP/6-31G(d) empiricaldispersion=gd3bj scf=xqc
 -----------------------------------------------------------

 ------------------------------
 CID_62417087_JID_6458_neutraal
 ------------------------------
 Symbolic Z-matrix:
 Charge =  0 Multiplicity = 1

 SCF Done:  E(RB3LYP) =  -673.527925402     A.U. after   13 cycles
 SCF Done:  E(RB3LYP) =  -673.530792370     A.U. after   12 cycles
 SCF Done:  E(RB3LYP) =  -673.528001809     A.U. after   13 cycles
 SCF Done:  E(RB3LYP) =  -673.532132741     A.U. after   12 cycles
 SCF Done:  E(RB3LYP) =  -673.533711002     A.U. after   12 cycles
 SCF Done:  E(RB3LYP) =  -673.534269043     A.U. after   12 cycles
 SCF Done:  E(RB3LYP) =  -673.534534693     A.U. after   12 cycles
 SCF Done:  E(RB3LYP) =  -673.534765190     A.U. after   12 cycles
 SCF Done:  E(RB3LYP) =  -673.534895781     A.U. after   12 cycles
 SCF Done:  E(RB3LYP) =  -673.534998273     A.U. after   11 cycles
 SCF Done:  E(RB3LYP) =  -673.535068510     A.U. after   11 cycles
 SCF Done:  E(RB3LYP) =  -673.535069544     A.U. after    9 cycles
 SCF Done:  E(RB3LYP) =  -673.535069974     A.U. after    7 cycles
 SCF Done:  E(RB3LYP) =  -673.535070098     A.U. after    8 cycles
 SCF Done:  E(RB3LYP) =  -673.535070100     A.U. after    6 cycles
 Optimization completed.
    -- Stationary point found.
 Normal termination of Gaussian 16 at Thu Dec 10 23:07:37 2020.

 --------------------------------------------------------------------
 #N Geom=AllCheck Guess=TCheck SCRF=Check GenChk RB3LYP/6-31G(d) Freq
 --------------------------------------------------------------------

 Structure from the checkpoint file:  "JID_6458.chk"
 ------------------------------
 CID_62417087_JID_6458_neutraal
 ------------------------------
 Charge =  0 Multiplicity = 1

 SCF Done:  E(RB3LYP) =  -673.535070100     A.U. after    1 cycles

  Exact polarizability: 149.444   1.839 170.078  11.151  -3.724 133.352
 Approx polarizability: 190.158   2.322 254.761  26.916  -3.735 221.672

                      1                      2                      3
                      A                      A                      A
 Frequencies --     22.9664                38.1646                49.5982
 Red. masses --      3.8817                 3.6037                 3.4497
 Frc consts  --      0.0012                 0.0031                 0.0050
 IR Inten    --      0.0470                 0.0435                 0.5287

                      4                      5                      6
                      A                      A                      A
 Frequencies --     67.2447                82.3500                97.0637
 Red. masses --      4.0249                 1.7460                 3.6899
 Frc consts  --      0.0107                 0.0070                 0.0205
 IR Inten    --      2.4895                 0.4330                 0.1121

                      7                      8                      9
                      A                      A                      A
 Frequencies --    123.5197               149.4857               174.0236
 Red. masses --      2.5132                 3.2174                 2.9605
 Frc consts  --      0.0226                 0.0424                 0.0528
 IR Inten    --      0.3109                 1.0398                 2.6423

                     10                     11                     12
                      A                      A                      A
 Frequencies --    213.8735               228.8619               248.6235
 Red. masses --      3.2356                 1.6918                 1.1400
 Frc consts  --      0.0872                 0.0522                 0.0415
 IR Inten    --      1.0966                 3.4546                 0.4042

                     13                     14                     15
                      A                      A                      A
 Frequencies --    255.3634               265.7453               298.3495
 Red. masses --      1.1381                 2.0932                 1.8785
 Frc consts  --      0.0437                 0.0871                 0.0985
 IR Inten    --      1.2442                 1.0094                 2.2255

                     16                     17                     18
                      A                      A                      A
 Frequencies --    298.7470               342.2899               362.6970
 Red. masses --      2.7219                 2.2186                 2.1369
 Frc consts  --      0.1431                 0.1532                 0.1656
 IR Inten    --      1.2344                 0.7312                 1.9068

                     19                     20                     21
                      A                      A                      A
 Frequencies --    407.1843               417.2437               455.6385
 Red. masses --      2.4379                 3.5438                 3.5738
 Frc consts  --      0.2381                 0.3635                 0.4371
 IR Inten    --      0.7720                 4.7224                 9.4570

                     22                     23                     24
                      A                      A                      A
 Frequencies --    465.4978               504.4137               516.2060
 Red. masses --      2.3418                 3.0777                 2.5083
 Frc consts  --      0.2990                 0.4614                 0.3938
 IR Inten    --      2.0210                 6.4881                 2.0981

                     25                     26                     27
                      A                      A                      A
 Frequencies --    554.5768               597.7964               640.2177
 Red. masses --      3.0116                 3.2660                 6.7655
 Frc consts  --      0.5457                 0.6877                 1.6338
 IR Inten    --      0.7751                 4.9861                 1.6529

                     28                     29                     30
                      A                      A                      A
 Frequencies --    727.4711               751.3739               765.8033
 Red. masses --      1.7176                 2.3677                 1.5229
 Frc consts  --      0.5356                 0.7876                 0.5262
 IR Inten    --     48.4945                37.1127                21.4576

                     31                     32                     33
                      A                      A                      A
 Frequencies --    781.8623               801.5197               827.0151
 Red. masses --      1.9385                 3.5318                 1.1397
 Frc consts  --      0.6982                 1.3368                 0.4593
 IR Inten    --     22.0593                 1.1705                 1.0176

                     34                     35                     36
                      A                      A                      A
 Frequencies --    860.9469               887.4289               900.4128
 Red. masses --      2.3000                 1.5511                 1.3599
 Frc consts  --      1.0045                 0.7197                 0.6496
 IR Inten    --      7.9323                 9.7326                 0.3817

                     37                     38                     39
                      A                      A                      A
 Frequencies --    933.1139               945.4900               958.6267
 Red. masses --      2.0062                 1.3532                 2.2320
 Frc consts  --      1.0292                 0.7127                 1.2085
 IR Inten    --      5.1440                 3.0058                 7.7015

                     40                     41                     42
                      A                      A                      A
 Frequencies --    977.4986              1003.6783              1009.2657
 Red. masses --      1.4859                 1.2892                 4.1826
 Frc consts  --      0.8365                 0.7652                 2.5102
 IR Inten    --      0.5522                 0.1374                 4.0682

                     43                     44                     45
                      A                      A                      A
 Frequencies --   1022.9950              1045.3974              1056.5455
 Red. masses --      2.7465                 2.8884                 2.2978
 Frc consts  --      1.6934                 1.8598                 1.5112
 IR Inten    --     10.1406                 7.7729                27.1585

                     46                     47                     48
                      A                      A                      A
 Frequencies --   1081.1612              1093.8195              1098.1668
 Red. masses --      2.2762                 1.9232                 1.8051
 Frc consts  --      1.5676                 1.3557                 1.2826
 IR Inten    --      4.7199                 9.4053                13.8458

                     49                     50                     51
                      A                      A                      A
 Frequencies --   1124.8173              1136.3678              1148.0317
 Red. masses --      1.7253                 1.8736                 1.7696
 Frc consts  --      1.2861                 1.4255                 1.3741
 IR Inten    --     17.1603                51.8790                 6.3479

                     52                     53                     54
                      A                      A                      A
 Frequencies --   1157.3498              1173.9236              1179.7946
 Red. masses --      1.5141                 2.0429                 1.7855
 Frc consts  --      1.1949                 1.6587                 1.4643
 IR Inten    --     17.4150                16.3074                31.8219

                     55                     56                     57
                      A                      A                      A
 Frequencies --   1187.4077              1218.8236              1246.8125
 Red. masses --      1.1512                 1.8816                 2.1116
 Frc consts  --      0.9564                 1.6468                 1.9340
 IR Inten    --      1.8280                11.0804                16.8238

                     58                     59                     60
                      A                      A                      A
 Frequencies --   1265.6375              1270.7115              1298.6714
 Red. masses --      1.6270                 2.0046                 1.2952
 Frc consts  --      1.5355                 1.9071                 1.2870
 IR Inten    --     14.2020                14.4319                 1.5538

                     61                     62                     63
                      A                      A                      A
 Frequencies --   1310.9725              1337.5520              1343.6971
 Red. masses --      4.6256                 1.5670                 1.2097
 Frc consts  --      4.6838                 1.6518                 1.2869
 IR Inten    --      0.9350                 1.7274                 8.8481

                     64                     65                     66
                      A                      A                      A
 Frequencies --   1369.2266              1374.0662              1408.6173
 Red. masses --      1.4997                 1.6319                 1.2751
 Frc consts  --      1.6566                 1.8153                 1.4906
 IR Inten    --      7.2726                 9.3845                12.7368

                     67                     68                     69
                      A                      A                      A
 Frequencies --   1410.6495              1413.5836              1420.1302
 Red. masses --      1.2569                 1.2781                 1.2854
 Frc consts  --      1.4736                 1.5047                 1.5274
 IR Inten    --      4.6838                23.5476                 7.2607

                     70                     71                     72
                      A                      A                      A
 Frequencies --   1425.7831              1441.0633              1450.4646
 Red. masses --      1.2698                 1.3235                 1.2533
 Frc consts  --      1.5209                 1.6193                 1.5535
 IR Inten    --      8.4572                13.2260                 1.1694

                     73                     74                     75
                      A                      A                      A
 Frequencies --   1480.0411              1483.4787              1501.7941
 Red. masses --      1.7760                 1.2245                 1.1653
 Frc consts  --      2.2921                 1.5877                 1.5485
 IR Inten    --     23.5660                 0.6063                 9.4913

                     76                     77                     78
                      A                      A                      A
 Frequencies --   1506.7949              1508.7610              1519.6412
 Red. masses --      1.1209                 1.1055                 1.1179
 Frc consts  --      1.4995                 1.4826                 1.5210
 IR Inten    --     12.4233                13.5281                 8.3912

                     79                     80                     81
                      A                      A                      A
 Frequencies --   1522.1541              1525.0414              1528.5125
 Red. masses --      1.0650                 1.8987                 1.0654
 Frc consts  --      1.4539                 2.6017                 1.4665
 IR Inten    --      3.5524                12.9604                 6.6430

                     82                     83                     84
                      A                      A                      A
 Frequencies --   1529.7980              1532.6089              1536.2486
 Red. masses --      1.0714                 1.1419                 1.0900
 Frc consts  --      1.4773                 1.5803                 1.5157
 IR Inten    --      4.1502                 9.9640                 7.9157

                     85                     86                     87
                      A                      A                      A
 Frequencies --   1552.6353              1554.3850              1631.0988
 Red. masses --      1.0900                 1.0602                 5.6485
 Frc consts  --      1.5482                 1.5093                 8.8541
 IR Inten    --      5.5416                 2.1713                14.2851

                     88                     89                     90
                      A                      A                      A
 Frequencies --   1651.4947              2939.5320              2941.5527
 Red. masses --      5.4696                 1.0733                 1.0626
 Frc consts  --      8.7894                 5.4640                 5.4171
 IR Inten    --     51.1125                82.1476                62.4550

                     91                     92                     93
                      A                      A                      A
 Frequencies --   3008.1740              3014.9380              3038.2492
 Red. masses --      1.0815                 1.0748                 1.0680
 Frc consts  --      5.7661                 5.7562                 5.8084
 IR Inten    --     44.7613                47.0467                48.4234

                     94                     95                     96
                      A                      A                      A
 Frequencies --   3043.4626              3046.9118              3048.1664
 Red. masses --      1.0448                 1.0614                 1.0682
 Frc consts  --      5.7020                 5.8058                 5.8478
 IR Inten    --     27.5279                17.8918                68.0810

                     97                     98                     99
                      A                      A                      A
 Frequencies --   3053.6515              3055.9639              3090.9949
 Red. masses --      1.0806                 1.0421                 1.0954
 Frc consts  --      5.9371                 5.7339                 6.1665
 IR Inten    --     42.6513                21.2441                18.0644

                    100                    101                    102
                      A                      A                      A
 Frequencies --   3095.6844              3104.3401              3107.6470
 Red. masses --      1.1028                 1.1027                 1.0990
 Frc consts  --      6.2268                 6.2611                 6.2533
 IR Inten    --     34.7586                15.9200                53.8348

                    103                    104                    105
                      A                      A                      A
 Frequencies --   3113.2309              3132.5249              3155.1440
 Red. masses --      1.0971                 1.1029                 1.0892
 Frc consts  --      6.2650                 6.3763                 6.3883
 IR Inten    --     36.2818                29.2018                 9.8813

                    106                    107                    108
                      A                      A                      A
 Frequencies --   3159.4602              3169.7595              3189.7901
 Red. masses --      1.0978                 1.0891                 1.0874
 Frc consts  --      6.4562                 6.4474                 6.5186
 IR Inten    --     20.0500                22.0904                 5.3717

                    109                    110                    111
                      A                      A                      A
 Frequencies --   3204.9390              3216.7193              3493.5370
 Red. masses --      1.0928                 1.0976                 1.0735
 Frc consts  --      6.6137                 6.6915                 7.7192
 IR Inten    --     21.2792                17.2601                 1.2864

 - Thermochemistry -
 -------------------
 Temperature   298.150 Kelvin.  Pressure   1.00000 Atm.
 Atom     1 has atomic number  6 and mass  12.00000

 Molecular mass:   221.18920 amu.
 Principal axes and moments of inertia in atomic units:
                           1         2         3
     Eigenvalues --  2642.742625263.664686702.17478
           X            0.99962   0.02771  -0.00005
           Y           -0.02771   0.99962  -0.00044
           Z            0.00003   0.00044   1.00000
 This molecule is an asymmetric top.
 Rotational symmetry number  1.
 Warning -- assumption of classical behavior for rotation
           may cause significant error
 Rotational temperatures (Kelvin)      0.03277     0.01646     0.01292
 Rotational constants (GHZ):           0.68290     0.34287     0.26928
 Zero-point vibrational energy     924177.1 (Joules/Mol)
                                  220.88364 (Kcal/Mol)
 Warning -- explicit consideration of  26 degrees of freedom as
           vibrations may cause significant error
 Vibrational temperatures:     33.04    54.91    71.36    96.75   118.48
          (Kelvin)            139.65   177.72   215.08   250.38   307.72
                              329.28   357.71   367.41   382.35   429.26
                              429.83   492.48   521.84   585.85   600.32
                              655.56   669.75   725.74   742.71   797.91
                              860.10   921.13  1046.67  1081.06  1101.82
                             1124.93  1153.21  1189.89  1238.71  1276.81
                             1295.49  1342.54  1360.35  1379.25  1406.40
                             1444.07  1452.11  1471.86  1504.09  1520.13
                             1555.55  1573.76  1580.02  1618.36  1634.98
                             1651.76  1665.17  1689.01  1697.46  1708.41
                             1753.62  1793.89  1820.97  1828.27  1868.50
                             1886.20  1924.44  1933.28  1970.01  1976.97
                             2026.69  2029.61  2033.83  2043.25  2051.38
                             2073.37  2086.90  2129.45  2134.40  2160.75
                             2167.94  2170.77  2186.42  2190.04  2194.19
                             2199.19  2201.04  2205.08  2210.32  2233.90
                             2236.41  2346.79  2376.13  4229.33  4232.24
                             4328.09  4337.82  4371.36  4378.86  4383.83
                             4385.63  4393.52  4396.85  4447.25  4454.00
                             4466.45  4471.21  4479.24  4507.00  4539.55
                             4545.76  4560.58  4589.40  4611.19  4628.14
                             5026.42

 Zero-point correction=                           0.352000 (Hartree/Particle)
 Thermal correction to Energy=                    0.369221
 Thermal correction to Enthalpy=                  0.370165
 Thermal correction to Gibbs Free Energy=         0.305956
 Sum of electronic and zero-point Energies=           -673.183070
 Sum of electronic and thermal Energies=              -673.165849
 Sum of electronic and thermal Enthalpies=            -673.164905
 Sum of electronic and thermal Free Energies=         -673.229114

                     E (Thermal)             CV                S
                      KCal/Mol        Cal/Mol-Kelvin    Cal/Mol-Kelvin
 Total                  231.690             64.927            135.139
 Electronic               0.000              0.000              0.000
 Translational            0.889              2.981             42.084
 Rotational               0.889              2.981             32.900
 Vibrational            229.912             58.966             60.155
 Vibration     1          0.593              1.985              6.360
 Vibration     2          0.594              1.982              5.352
 Vibration     3          0.595              1.978              4.833
 Vibration     4          0.598              1.970              4.232
 Vibration     5          0.600              1.961              3.834
 Vibration     6          0.603              1.951              3.512
 Vibration     7          0.610              1.929              3.045
 Vibration     8          0.618              1.903              2.679
 Vibration     9          0.627              1.874              2.392
 Vibration    10          0.644              1.820              2.010
 Vibration    11          0.652              1.797              1.888
 Vibration    12          0.662              1.765              1.740
 Vibration    13          0.666              1.754              1.693
 Vibration    14          0.672              1.736              1.624
 Vibration    15          0.691              1.677              1.426
 Vibration    16          0.692              1.676              1.424
 Vibration    17          0.721              1.591              1.201
 Vibration    18          0.737              1.549              1.111
 Vibration    19          0.772              1.455              0.937
 Vibration    20          0.780              1.433              0.901
 Vibration    21          0.814              1.348              0.779
 Vibration    22          0.823              1.327              0.750
 Vibration    23          0.860              1.240              0.647
 Vibration    24          0.871              1.214              0.619
 Vibration    25          0.910              1.130              0.535
 Vibration    26          0.956              1.036              0.453

 Optimization completed.
    -- Stationary point found.
 Normal termination of Gaussian 16 at Thu Dec 10 23:22:18 2020.

 ----------------------------------------------------------------------
 # B3LYP/6-311++G(d,p) empiricaldispersion=gd3bj scf=xqc pop=npa geom=c
 heck
 ----------------------------------------------------------------------

 --------------------------------------
 CID_62417087_JID_6458_Energie_neutraal
 --------------------------------------
 Structure from the checkpoint file:  "JID_6458.chk"
 Charge =  0 Multiplicity = 1

 SCF Done:  E(RB3LYP) =  -673.720428423     A.U. after   15 cycles
 Normal termination of Gaussian 16 at Thu Dec 10 23:28:57 2020.

 ----------------------------------------------------------------------
 # B3LYP/6-311++G(d,p) empiricaldispersion=gd3bj scf=xqc pop=npa geom=c
 heck
 ----------------------------------------------------------------------

 ------------------------------------
 CID_62417087_JID_6458_Energie_kation
 ------------------------------------
 Structure from the checkpoint file:  "JID_6458.chk"
 Charge =  1 Multiplicity = 2

 SCF Done:  E(UB3LYP) =  -673.456299657     A.U. after   22 cycles
 Normal termination of Gaussian 16 at Thu Dec 10 23:42:12 2020.
 Gaussian 16:  ES64L-G16RevA.03 25-Dec-2016

 ----------------------------------------------------------------------
 # B3LYP/6-311++G(d,p) empiricaldispersion=gd3bj scf=xqc pop=npa geom=c
 heck
 ----------------------------------------------------------------------

 -----------------------------------
 CID_62417087_JID_6458_Energie_anion
 -----------------------------------
 Structure from the checkpoint file:  "JID_6458.chk"
 Charge = -1 Multiplicity = 2

                         Standard orientation:
 ---------------------------------------------------------------------
 Center     Atomic      Atomic             Coordinates (Angstroms)
 Number     Number       Type             X           Y           Z
 ---------------------------------------------------------------------
      1          6           0       -4.877756   -1.578272    0.203251
      2          6           0       -3.869527   -0.438093    0.087022
      3          7           0       -2.645480   -0.903425   -0.555903
      4          6           0       -1.652244    0.123921   -0.856706
      5          6           0       -1.125789    0.934978    0.347340
      6          6           0       -0.511048    0.002843    1.411131
      7          7           0       -0.304168    2.066021   -0.093341
      8          6           0        0.008420    3.026680    0.940320
      9          6           0        0.711772    1.939278   -1.124290
     10          6           0        2.147939    1.525131   -0.712750
     11          6           0        2.311267    0.074146   -0.340980
     12          6           0        2.954124   -0.312915    0.840966
     13          6           0        3.072592   -1.667192    1.141259
     14          6           0        2.544770   -2.600527    0.250587
     15          6           0        1.927410   -2.123958   -0.906088
     16          7           0        1.809136   -0.826064   -1.204525
     17          1           0       -5.093223   -1.999797   -0.783513
     18          1           0       -5.814262   -1.231012    0.653665
     19          1           0       -4.484612   -2.384848    0.835530
     20          1           0       -4.283806    0.362436   -0.540186
     21          1           0       -3.708776    0.006259    1.087414
     22          1           0       -2.221838   -1.638253    0.007308
     23          1           0       -0.814707   -0.378880   -1.351294
     24          1           0       -2.090469    0.824057   -1.579569
     25          1           0       -1.996858    1.411396    0.820578
     26          1           0        0.000351    0.571658    2.194212
     27          1           0       -1.299801   -0.581755    1.899830
     28          1           0        0.206825   -0.697456    0.978498
     29          1           0        0.773994    2.699674    1.669159
     30          1           0        0.371820    3.954377    0.480004
     31          1           0       -0.899636    3.264459    1.507703
     32          1           0        0.367970    1.243003   -1.889743
     33          1           0        0.798887    2.923385   -1.607563
     34          1           0        2.792203    1.728670   -1.579533
     35          1           0        2.511723    2.161008    0.101923
     36          1           0        3.343052    0.443366    1.516225
     37          1           0        3.562531   -1.988228    2.056425
     38          1           0        2.607228   -3.667029    0.442584
     39          1           0        1.503406   -2.818333   -1.629642
 ---------------------------------------------------------------------

 SCF Done:  E(UB3LYP) =  -673.710098820     A.U. after   33 cycles
 SCF Done:  E(UB3LYP) =  -673.710098820     a.u. after    1 cycles

 The electronic state is 2-A.
 Alpha  occ. eigenvalues --  -14.19479 -14.19332 -14.18311 -10.09544 -10.09312
 Alpha  occ. eigenvalues --  -10.09173 -10.09030 -10.08469 -10.08283 -10.08010
 Alpha  occ. eigenvalues --  -10.06795 -10.06728 -10.06509 -10.06345 -10.05955
 Alpha  occ. eigenvalues --  -10.04410  -0.82891  -0.81775  -0.79965  -0.68865
 Alpha  occ. eigenvalues --   -0.68028  -0.66549  -0.63705  -0.61906  -0.57906
 Alpha  occ. eigenvalues --   -0.55485  -0.53125  -0.51715  -0.50855  -0.48501
 Alpha  occ. eigenvalues --   -0.44286  -0.40669  -0.39282  -0.38716  -0.37502
 Alpha  occ. eigenvalues --   -0.36183  -0.35617  -0.35149  -0.34315  -0.32768
 Alpha  occ. eigenvalues --   -0.31626  -0.31511  -0.30872  -0.29876  -0.28907
 Alpha  occ. eigenvalues --   -0.28570  -0.27677  -0.27033  -0.26529  -0.26174
 Alpha  occ. eigenvalues --   -0.25898  -0.25032  -0.24675  -0.23867  -0.23029
 Alpha  occ. eigenvalues --   -0.22136  -0.17771  -0.14825  -0.14370  -0.12411
 Alpha  occ. eigenvalues --   -0.09628   0.04427
 Alpha virt. eigenvalues --    0.06251   0.06748   0.06923   0.07926   0.08351
 Alpha virt. eigenvalues --    0.08565   0.08870   0.09546   0.09704   0.09914
 Alpha virt. eigenvalues --    0.10822   0.11215   0.11471   0.11873   0.12448

  Beta  occ. eigenvalues --  -14.19470 -14.19333 -14.18096 -10.09532 -10.09250
  Beta  occ. eigenvalues --  -10.09156 -10.09025 -10.08455 -10.08256 -10.08008
  Beta  occ. eigenvalues --  -10.06775 -10.06547 -10.06480 -10.06354 -10.05953
  Beta  occ. eigenvalues --  -10.04391  -0.82635  -0.81725  -0.79950  -0.68599
  Beta  occ. eigenvalues --   -0.67906  -0.66502  -0.63661  -0.61843  -0.57854
  Beta  occ. eigenvalues --   -0.55433  -0.53047  -0.51550  -0.50790  -0.48334
  Beta  occ. eigenvalues --   -0.44236  -0.40590  -0.39254  -0.38676  -0.37425
  Beta  occ. eigenvalues --   -0.36121  -0.35577  -0.35043  -0.34282  -0.32720
  Beta  occ. eigenvalues --   -0.31546  -0.31420  -0.30712  -0.29791  -0.28858
  Beta  occ. eigenvalues --   -0.28541  -0.27611  -0.26963  -0.26394  -0.26057
  Beta  occ. eigenvalues --   -0.25810  -0.24996  -0.24583  -0.23846  -0.22977
  Beta  occ. eigenvalues --   -0.22104  -0.16803  -0.14473  -0.14108  -0.12393
  Beta  occ. eigenvalues --   -0.09606
  Beta virt. eigenvalues --    0.06379   0.06989   0.07304   0.08024   0.08413
  Beta virt. eigenvalues --    0.08646   0.08871   0.09039   0.09723   0.09911
  Beta virt. eigenvalues --    0.10064   0.10975   0.11360   0.11636   0.12028

 Mulliken charges and spin densities:
               1          2
     1  C    0.096210  -0.663707
     2  C   -0.096771  -0.042669
     3  N    0.031373   0.030295
     4  C   -0.860018  -0.081284
     5  C   -0.501654   0.383572
     6  C   -0.177923  -0.298933
     7  N    0.225282   0.018343
     8  C    0.514830  -0.848031
     9  C   -0.102534  -0.134698
    10  C    0.907781  -1.478594
    11  C   -0.773677   0.661341
    12  C   -0.573654   0.663451
    13  C    0.430364  -0.729742
    14  C    0.444547  -0.612878
    15  C   -0.336958   0.300600
    16  N   -0.028373   0.126723
    17  H    0.065949   0.084654
    18  H   -0.125680   0.246223
    19  H   -0.154728   0.276825
    20  H    0.040264   0.096141
    21  H   -0.026185   0.138349
    22  H    0.248456  -0.019713
    23  H    0.212430  -0.026307
    24  H    0.082126   0.075758
    25  H    0.205784  -0.026049
    26  H    0.064074   0.050457
    27  H   -0.103618   0.264282
    28  H    0.222704  -0.055454
    29  H   -0.073221   0.212522
    30  H   -0.128205   0.257921
    31  H   -0.157618   0.272322
    32  H    0.187690  -0.005870
    33  H   -0.033430   0.201222
    34  H   -0.067025   0.223223
    35  H    0.104912   0.050408
    36  H   -0.340405   0.502186
    37  H   -0.321193   0.476527
    38  H   -0.136454   0.285274
    39  H    0.034548   0.125310
 Sum of Mulliken charges =  -1.00000   1.00000

 Dipole moment (field-independent basis, Debye):
    X=             -0.9455    Y=              0.4677    Z=             -1.5143  Tot=              1.8455
 Quadrupole moment (field-independent basis, Debye-Ang):
   XX=           -168.9023   YY=           -145.8686   ZZ=           -134.6331
   XY=             -1.5969   XZ=             -0.9005   YZ=              1.0931

 Summary of Natural Population Analysis:

                                       Natural Population
                Natural  -----------------------------------------------
    Atom  No    Charge         Core      Valence    Rydberg      Total
 -----------------------------------------------------------------------
      C    1   -0.28581      0.99967     2.28154    0.00461     3.28581
      C    2   -0.08946      0.99964     2.07877    0.01105     3.08946
      N    3   -0.33931      0.99974     2.82807    0.01150     3.83931
      C    4   -0.09332      0.99959     2.08291    0.01081     3.09332
      C    5   -0.00742      0.99958     1.99485    0.01299     3.00742
      C    6   -0.30268      0.99963     2.29581    0.00724     3.30268
      N    7   -0.28431      0.99971     2.77127    0.01333     3.78431
      C    8   -0.17599      0.99964     2.16758    0.00876     3.17599
      C    9   -0.07837      0.99960     2.06630    0.01246     3.07837
      C   10   -0.21363      0.99959     2.20474    0.00930     3.21363
      C   11    0.11534      0.99953     1.87007    0.01507     2.88466
      C   12   -0.12551      0.99950     2.11692    0.00910     3.12551
      C   13   -0.05252      0.99956     2.04272    0.01023     3.05252
      C   14   -0.13103      0.99956     2.12175    0.00973     3.13103
      C   15    0.02887      0.99958     1.95793    0.01361     2.97113
      N   16   -0.22544      0.99967     2.71486    0.01091     3.72544
      H   17    0.09823      0.00000     0.40041    0.00136     0.40177
      H   18    0.09663      0.00000     0.40232    0.00105     0.40337
      H   19    0.09523      0.00000     0.40340    0.00136     0.40477
      H   20    0.08790      0.00000     0.41082    0.00128     0.41210
      H   21    0.07820      0.00000     0.42006    0.00174     0.42180
      H   22    0.17148      0.00000     0.32532    0.00320     0.32852
      H   23    0.10559      0.00000     0.39275    0.00166     0.39441
      H   24    0.09104      0.00000     0.40757    0.00139     0.40896
      H   25    0.08759      0.00000     0.41048    0.00193     0.41241
      H   26    0.10137      0.00000     0.39768    0.00095     0.39863
      H   27    0.09556      0.00000     0.40325    0.00118     0.40444
      H   28    0.10412      0.00000     0.39376    0.00212     0.39588
      H   29    0.08127      0.00000     0.41715    0.00158     0.41873
      H   30    0.09272      0.00000     0.40630    0.00098     0.40728
      H   31    0.09306      0.00000     0.40591    0.00103     0.40694
      H   32    0.10447      0.00000     0.39389    0.00163     0.39553
      H   33    0.08825      0.00000     0.41072    0.00103     0.41175
      H   34    0.10511      0.00000     0.39340    0.00149     0.39489
      H   35    0.09800      0.00000     0.40069    0.00131     0.40200
      H   36    0.10129      0.00000     0.39748    0.00123     0.39871
      H   37    0.09738      0.00000     0.40157    0.00105     0.40262
      H   38    0.10018      0.00000     0.39896    0.00086     0.39982
      H   39    0.08591      0.00000     0.41306    0.00103     0.41409
 =======================================================================
   * Total *   -0.00000     15.99381    44.80304    0.20315    61.00000

 Normal termination of Gaussian 16 at Fri Dec 11 00:02:37 2020.
