 Gaussian 16, Revision A.03,

 -----------------------------------------------------------
 # opt freq B3LYP/6-31G(d) empiricaldispersion=gd3bj scf=xqc
 -----------------------------------------------------------

 -------------------------------
 CID_107417421_JID_2303_neutraal
 -------------------------------
 Symbolic Z-matrix:
 Charge =  0 Multiplicity = 1

 SCF Done:  E(RB3LYP) =  -502.589728630     A.U. after   12 cycles
 SCF Done:  E(RB3LYP) =  -502.608153860     A.U. after   10 cycles
 SCF Done:  E(RB3LYP) =  -502.610688813     A.U. after   11 cycles
 SCF Done:  E(RB3LYP) =  -502.610971639     A.U. after   10 cycles
 SCF Done:  E(RB3LYP) =  -502.611047059     A.U. after   10 cycles
 SCF Done:  E(RB3LYP) =  -502.611069545     A.U. after    9 cycles
 SCF Done:  E(RB3LYP) =  -502.611106606     A.U. after   10 cycles
 SCF Done:  E(RB3LYP) =  -502.611185319     A.U. after   11 cycles
 SCF Done:  E(RB3LYP) =  -502.611410513     A.U. after   11 cycles
 SCF Done:  E(RB3LYP) =  -502.612193005     A.U. after   11 cycles
 SCF Done:  E(RB3LYP) =  -502.615989102     A.U. after   10 cycles
 SCF Done:  E(RB3LYP) =  -502.616004399     A.U. after    9 cycles
 SCF Done:  E(RB3LYP) =  -502.616008920     A.U. after    9 cycles
 SCF Done:  E(RB3LYP) =  -502.616008714     A.U. after    7 cycles
 SCF Done:  E(RB3LYP) =  -502.616009250     A.U. after    7 cycles
 SCF Done:  E(RB3LYP) =  -502.616009310     A.U. after    6 cycles
 Optimization completed.
    -- Stationary point found.
 Normal termination of Gaussian 16 at Wed Dec  9 17:24:57 2020.

 --------------------------------------------------------------------
 #N Geom=AllCheck Guess=TCheck SCRF=Check GenChk RB3LYP/6-31G(d) Freq
 --------------------------------------------------------------------

 Structure from the checkpoint file:  "JID_2303.chk"
 -------------------------------
 CID_107417421_JID_2303_neutraal
 -------------------------------
 Charge =  0 Multiplicity = 1

 SCF Done:  E(RB3LYP) =  -502.616009310     A.U. after    1 cycles

  Exact polarizability: 134.486  -1.732 108.899   1.501  -1.531 100.717
 Approx polarizability: 158.022  -0.744 154.273  -0.010  -2.340 153.760

                      1                      2                      3
                      A                      A                      A
 Frequencies --     33.9721                50.1946                56.3170
 Red. masses --      2.8828                 3.1343                 3.2907
 Frc consts  --      0.0020                 0.0047                 0.0061
 IR Inten    --      0.8617                 0.1092                 0.3651

                      4                      5                      6
                      A                      A                      A
 Frequencies --    101.1824               132.1023               189.0900
 Red. masses --      2.8292                 3.0378                 2.4144
 Frc consts  --      0.0171                 0.0312                 0.0509
 IR Inten    --      1.2363                 5.6138                 0.9852

                      7                      8                      9
                      A                      A                      A
 Frequencies --    225.0848               242.0904               263.0539
 Red. masses --      2.1992                 2.6366                 1.0522
 Frc consts  --      0.0656                 0.0910                 0.0429
 IR Inten    --      2.2123                 0.6462                 0.1300

                     10                     11                     12
                      A                      A                      A
 Frequencies --    285.4382               332.5264               369.7344
 Red. masses --      2.8176                 2.1240                 2.1005
 Frc consts  --      0.1353                 0.1384                 0.1692
 IR Inten    --      0.8677                 0.7878                 0.4333

                     13                     14                     15
                      A                      A                      A
 Frequencies --    426.5397               452.7180               510.3119
 Red. masses --      2.2940                 2.4148                 2.5358
 Frc consts  --      0.2459                 0.2916                 0.3891
 IR Inten    --      2.7333                 3.2361                 0.3180

                     16                     17                     18
                      A                      A                      A
 Frequencies --    567.9614               630.0255               680.2750
 Red. masses --      1.9389                 3.1105                 2.0231
 Frc consts  --      0.3685                 0.7274                 0.5516
 IR Inten    --      0.7346                 0.5895                83.3401

                     19                     20                     21
                      A                      A                      A
 Frequencies --    775.2241               803.2499               839.5877
 Red. masses --      2.2713                 1.7265                 1.6100
 Frc consts  --      0.8042                 0.6563                 0.6687
 IR Inten    --      0.7305                60.3560                 7.3959

                     22                     23                     24
                      A                      A                      A
 Frequencies --    846.8865               882.5135               904.7585
 Red. masses --      1.8439                 1.5367                 1.9845
 Frc consts  --      0.7792                 0.7052                 0.9571
 IR Inten    --      0.9197                 1.1404                 1.3989

                     25                     26                     27
                      A                      A                      A
 Frequencies --    925.5381               935.8136               943.9925
 Red. masses --      1.7687                 2.3819                 2.1271
 Frc consts  --      0.8927                 1.2290                 1.1168
 IR Inten    --      4.8923                18.1531                13.1591

                     28                     29                     30
                      A                      A                      A
 Frequencies --    966.3989               977.4404              1006.3110
 Red. masses --      1.6535                 1.5521                 2.3756
 Frc consts  --      0.9099                 0.8736                 1.4174
 IR Inten    --      3.1535                 6.2990                 1.2016

                     31                     32                     33
                      A                      A                      A
 Frequencies --   1019.7792              1021.0360              1034.6264
 Red. masses --      2.2087                 1.6601                 1.3453
 Frc consts  --      1.3533                 1.0197                 0.8485
 IR Inten    --      7.7682                 9.0032                 1.1042

                     34                     35                     36
                      A                      A                      A
 Frequencies --   1044.9107              1063.5724              1077.3602
 Red. masses --      1.9834                 2.6414                 1.8786
 Frc consts  --      1.2759                 1.7604                 1.2847
 IR Inten    --      3.0113                 1.7345                 1.0680

                     37                     38                     39
                      A                      A                      A
 Frequencies --   1100.9349              1114.7207              1130.9060
 Red. masses --      1.8877                 2.2108                 1.1936
 Frc consts  --      1.3480                 1.6186                 0.8994
 IR Inten    --      1.0503                 0.6116                11.1430

                     40                     41                     42
                      A                      A                      A
 Frequencies --   1158.7411              1173.3161              1193.1431
 Red. masses --      2.6411                 1.9095                 1.6240
 Frc consts  --      2.0893                 1.5488                 1.3622
 IR Inten    --     40.6697                 2.7824                 3.2216

                     43                     44                     45
                      A                      A                      A
 Frequencies --   1208.4601              1213.4655              1231.5067
 Red. masses --      1.5194                 1.4633                 1.4891
 Frc consts  --      1.3074                 1.2695                 1.3306
 IR Inten    --     10.8066                13.8377                 5.2265

                     46                     47                     48
                      A                      A                      A
 Frequencies --   1241.2937              1274.8471              1280.8198
 Red. masses --      1.5875                 1.2828                 1.3315
 Frc consts  --      1.4412                 1.2284                 1.2870
 IR Inten    --     18.5076                 0.5692                 6.1967

                     49                     50                     51
                      A                      A                      A
 Frequencies --   1293.9543              1312.5731              1322.9961
 Red. masses --      1.5403                 1.3563                 1.2807
 Frc consts  --      1.5195                 1.3767                 1.3208
 IR Inten    --      2.1518                 4.3827                 2.6376

                     52                     53                     54
                      A                      A                      A
 Frequencies --   1344.0536              1353.5296              1356.7709
 Red. masses --      1.3740                 1.3130                 1.4257
 Frc consts  --      1.4624                 1.4173                 1.5463
 IR Inten    --      4.3324                 3.4962                 2.9764

                     55                     56                     57
                      A                      A                      A
 Frequencies --   1366.4486              1374.6903              1384.2310
 Red. masses --      1.2605                 1.3395                 1.4477
 Frc consts  --      1.3867                 1.4914                 1.6344
 IR Inten    --      1.3664                11.4232                 3.8611

                     58                     59                     60
                      A                      A                      A
 Frequencies --   1387.8227              1407.1758              1432.7904
 Red. masses --      1.3529                 1.4601                 1.4743
 Frc consts  --      1.5352                 1.7035                 1.7832
 IR Inten    --      9.1089                 0.7015                 4.6670

                     61                     62                     63
                      A                      A                      A
 Frequencies --   1441.0286              1517.2617              1520.0083
 Red. masses --      1.2469                 1.0888                 1.0867
 Frc consts  --      1.5256                 1.4769                 1.4793
 IR Inten    --      5.0032                 1.8166                 5.0356

                     64                     65                     66
                      A                      A                      A
 Frequencies --   1523.7381              1528.9080              1530.7889
 Red. masses --      1.1639                 1.0743                 1.0723
 Frc consts  --      1.5922                 1.4796                 1.4805
 IR Inten    --     27.5717                 2.0969                13.6915

                     67                     68                     69
                      A                      A                      A
 Frequencies --   1534.0965              1538.6570              1542.9704
 Red. masses --      1.0949                 1.0968                 1.0906
 Frc consts  --      1.5182                 1.5300                 1.5299
 IR Inten    --     24.5834                 2.4933                 4.6983

                     70                     71                     72
                      A                      A                      A
 Frequencies --   1556.9585              2925.5001              3000.5897
 Red. masses --      1.1164                 1.0723                 1.0640
 Frc consts  --      1.5945                 5.4072                 5.6444
 IR Inten    --     10.0040                47.4102                82.7031

                     73                     74                     75
                      A                      A                      A
 Frequencies --   3011.0159              3018.2656              3025.4806
 Red. masses --      1.0670                 1.0832                 1.0715
 Frc consts  --      5.6995                 5.8138                 5.7789
 IR Inten    --     78.1024                26.2497                13.1857

                     76                     77                     78
                      A                      A                      A
 Frequencies --   3036.6956              3038.7762              3043.5866
 Red. masses --      1.0636                 1.0540                 1.0665
 Frc consts  --      5.7786                 5.7346                 5.8207
 IR Inten    --      5.3887                38.9691                40.5749

                     79                     80                     81
                      A                      A                      A
 Frequencies --   3047.5261              3051.2711              3070.4612
 Red. masses --      1.0848                 1.0644                 1.0986
 Frc consts  --      5.9360                 5.8390                 6.1025
 IR Inten    --     21.4658                47.4815                50.3800

                     82                     83                     84
                      A                      A                      A
 Frequencies --   3080.5338              3091.1647              3093.0031
 Red. masses --      1.0994                 1.0993                 1.0886
 Frc consts  --      6.1469                 6.1888                 6.1358
 IR Inten    --     32.8004                31.9075                46.7439

                     85                     86                     87
                      A                      A                      A
 Frequencies --   3094.3038              3101.0941              3104.4164
 Red. masses --      1.0939                 1.1026                 1.1029
 Frc consts  --      6.1708                 6.2476                 6.2624
 IR Inten    --     57.8207                49.5263                66.5101

                     88                     89                     90
                      A                      A                      A
 Frequencies --   3114.0386              3481.9896              3501.1299
 Red. masses --      1.1025                 1.0730                 1.0760
 Frc consts  --      6.2991                 7.6647                 7.7712
 IR Inten    --     36.9667                 0.0432                 4.4531

 - Thermochemistry -
 -------------------
 Temperature   298.150 Kelvin.  Pressure   1.00000 Atm.
 Atom     1 has atomic number  6 and mass  12.00000

 Molecular mass:   168.16265 amu.
 Principal axes and moments of inertia in atomic units:
                           1         2         3
     Eigenvalues --   908.435584270.440884599.42007
           X            0.99999   0.00510   0.00075
           Y           -0.00507   0.99950  -0.03136
           Z           -0.00091   0.03135   0.99951
 This molecule is an asymmetric top.
 Rotational symmetry number  1.
 Warning -- assumption of classical behavior for rotation
           may cause significant error
 Rotational temperatures (Kelvin)      0.09534     0.02028     0.01883
 Rotational constants (GHZ):           1.98665     0.42261     0.39238
 Zero-point vibrational energy     780216.8 (Joules/Mol)
                                  186.47630 (Kcal/Mol)
 Warning -- explicit consideration of  16 degrees of freedom as
           vibrations may cause significant error
 Vibrational temperatures:     48.88    72.22    81.03   145.58   190.07
          (Kelvin)            272.06   323.85   348.31   378.48   410.68
                              478.43   531.97   613.70   651.36   734.23
                              817.17   906.47   978.76  1115.37  1155.70
                             1207.98  1218.48  1269.74  1301.75  1331.64
                             1346.43  1358.19  1390.43  1406.32  1447.86
                             1467.23  1469.04  1488.60  1503.39  1530.24
                             1550.08  1584.00  1603.83  1627.12  1667.17
                             1688.14  1716.67  1738.70  1745.91  1771.86
                             1785.94  1834.22  1842.81  1861.71  1888.50
                             1903.50  1933.79  1947.43  1952.09  1966.01
                             1977.87  1991.60  1996.77  2024.61  2061.47
                             2073.32  2183.00  2186.95  2192.32  2199.76
                             2202.46  2207.22  2213.78  2219.99  2240.12
                             4209.14  4317.18  4332.18  4342.61  4352.99
                             4369.13  4372.12  4379.04  4384.71  4390.10
                             4417.71  4432.20  4447.50  4450.14  4452.01
                             4461.78  4466.56  4480.41  5009.81  5037.34

 Zero-point correction=                           0.297169 (Hartree/Particle)
 Thermal correction to Energy=                    0.309583
 Thermal correction to Enthalpy=                  0.310528
 Thermal correction to Gibbs Free Energy=         0.257368
 Sum of electronic and zero-point Energies=           -502.318840
 Sum of electronic and thermal Energies=              -502.306426
 Sum of electronic and thermal Enthalpies=            -502.305482
 Sum of electronic and thermal Free Energies=         -502.358641

                     E (Thermal)             CV                S
                      KCal/Mol        Cal/Mol-Kelvin    Cal/Mol-Kelvin
 Total                  194.266             47.483            111.883
 Electronic               0.000              0.000              0.000
 Translational            0.889              2.981             41.267
 Rotational               0.889              2.981             31.257
 Vibrational            192.489             41.521             39.359
 Vibration     1          0.594              1.983              5.583
 Vibration     2          0.595              1.978              4.810
 Vibration     3          0.596              1.975              4.582
 Vibration     4          0.604              1.948              3.431
 Vibration     5          0.612              1.921              2.915
 Vibration     6          0.633              1.855              2.237
 Vibration     7          0.650              1.803              1.918
 Vibration     8          0.658              1.776              1.787
 Vibration     9          0.670              1.741              1.641
 Vibration    10          0.683              1.701              1.501
 Vibration    11          0.714              1.611              1.248
 Vibration    12          0.742              1.534              1.081
 Vibration    13          0.788              1.412              0.870
 Vibration    14          0.811              1.355              0.788
 Vibration    15          0.865              1.227              0.633
 Vibration    16          0.924              1.101              0.508

 Optimization completed.
    -- Stationary point found.
 Normal termination of Gaussian 16 at Wed Dec  9 17:33:32 2020.

 ----------------------------------------------------------------------
 # B3LYP/6-311++G(d,p) empiricaldispersion=gd3bj scf=xqc pop=npa geom=c
 heck
 ----------------------------------------------------------------------

 ---------------------------------------
 CID_107417421_JID_2303_Energie_neutraal
 ---------------------------------------
 Structure from the checkpoint file:  "JID_2303.chk"
 Charge =  0 Multiplicity = 1

 SCF Done:  E(RB3LYP) =  -502.759731557     A.U. after   14 cycles
 Normal termination of Gaussian 16 at Wed Dec  9 17:37:39 2020.

 ----------------------------------------------------------------------
 # B3LYP/6-311++G(d,p) empiricaldispersion=gd3bj scf=xqc pop=npa geom=c
 heck
 ----------------------------------------------------------------------

 -------------------------------------
 CID_107417421_JID_2303_Energie_kation
 -------------------------------------
 Structure from the checkpoint file:  "JID_2303.chk"
 Charge =  1 Multiplicity = 2

 SCF Done:  E(UB3LYP) =  -502.462832289     A.U. after   19 cycles
 Normal termination of Gaussian 16 at Wed Dec  9 17:46:07 2020.
 Gaussian 16:  ES64L-G16RevA.03 25-Dec-2016

 ----------------------------------------------------------------------
 # B3LYP/6-311++G(d,p) empiricaldispersion=gd3bj scf=xqc pop=npa geom=c
 heck
 ----------------------------------------------------------------------

 ------------------------------------
 CID_107417421_JID_2303_Energie_anion
 ------------------------------------
 Structure from the checkpoint file:  "JID_2303.chk"
 Charge = -1 Multiplicity = 2

                         Standard orientation:
 ---------------------------------------------------------------------
 Center     Atomic      Atomic             Coordinates (Angstroms)
 Number     Number       Type             X           Y           Z
 ---------------------------------------------------------------------
      1          6           0        1.591648    2.096386   -0.519964
      2          6           0        1.638299    0.821962    0.329639
      3          6           0        3.040814    0.571910    0.952071
      4          6           0        3.660841   -0.549701    0.103692
      5          6           0        2.457098   -1.450952   -0.195889
      6          6           0        1.322030   -0.457496   -0.513665
      7          6           0       -0.069117   -1.033673   -0.261632
      8          7           0       -1.118856   -0.104483   -0.673586
      9          6           0       -2.461641   -0.604957   -0.451280
     10          6           0       -2.978478   -0.636176    1.023805
     11          7           0       -3.580647    0.699595    0.794479
     12          6           0       -3.538694    0.482748   -0.672654
     13          1           0        1.752334    2.991703    0.091950
     14          1           0        2.371273    2.073572   -1.291964
     15          1           0        0.628402    2.198525   -1.032538
     16          1           0        0.897677    0.919002    1.135823
     17          1           0        3.651957    1.481080    0.976474
     18          1           0        2.936702    0.226673    1.988173
     19          1           0        4.481712   -1.069640    0.609218
     20          1           0        4.059795   -0.139807   -0.833781
     21          1           0        2.202979   -2.034588    0.700873
     22          1           0        2.632140   -2.163495   -1.009462
     23          1           0        1.376904   -0.189257   -1.577090
     24          1           0       -0.196236   -1.956343   -0.844627
     25          1           0       -0.145259   -1.325183    0.804675
     26          1           0       -1.016577    0.767598   -0.154944
     27          1           0       -2.585291   -1.535301   -1.013852
     28          1           0       -3.705385   -1.446153    1.192046
     29          1           0       -2.224971   -0.665231    1.820865
     30          1           0       -4.508092    0.834612    1.191440
     31          1           0       -3.227380    1.355528   -1.258943
     32          1           0       -4.462970    0.070613   -1.105327
 ---------------------------------------------------------------------

 SCF Done:  E(UB3LYP) =  -502.743710478     A.U. after   31 cycles

 The electronic state is 2-A.
 Alpha  occ. eigenvalues --  -14.19696 -14.19157 -10.09633 -10.09008 -10.08746
 Alpha  occ. eigenvalues --  -10.08414 -10.07656 -10.07120 -10.06868 -10.06721
 Alpha  occ. eigenvalues --  -10.06706 -10.06595  -0.83893  -0.79023  -0.74460
 Alpha  occ. eigenvalues --   -0.65174  -0.64394  -0.59373  -0.57043  -0.56454
 Alpha  occ. eigenvalues --   -0.52693  -0.47982  -0.46127  -0.45018  -0.41837
 Alpha  occ. eigenvalues --   -0.38797  -0.38401  -0.37204  -0.35586  -0.32941
 Alpha  occ. eigenvalues --   -0.32211  -0.31131  -0.30150  -0.29995  -0.29271
 Alpha  occ. eigenvalues --   -0.28607  -0.27275  -0.24704  -0.24255  -0.23816
 Alpha  occ. eigenvalues --   -0.23183  -0.22687  -0.22185  -0.21389  -0.21257
 Alpha  occ. eigenvalues --   -0.13377  -0.12199   0.04490
 Alpha virt. eigenvalues --    0.05947   0.07189   0.07406   0.08238   0.08684
 Alpha virt. eigenvalues --    0.08904   0.09928   0.10196   0.10878   0.11050
 Alpha virt. eigenvalues --    0.11337   0.11780   0.12929   0.13358   0.13637

  Beta  occ. eigenvalues --  -14.19691 -14.19131 -10.09626 -10.08995 -10.08724
  Beta  occ. eigenvalues --  -10.08386 -10.07651 -10.07117 -10.06848 -10.06706
  Beta  occ. eigenvalues --  -10.06689 -10.06584  -0.83865  -0.79001  -0.74440
  Beta  occ. eigenvalues --   -0.65151  -0.64364  -0.59324  -0.56981  -0.56414
  Beta  occ. eigenvalues --   -0.52652  -0.47928  -0.46079  -0.44985  -0.41745
  Beta  occ. eigenvalues --   -0.38762  -0.38375  -0.37172  -0.35561  -0.32919
  Beta  occ. eigenvalues --   -0.32189  -0.31102  -0.30099  -0.29962  -0.29242
  Beta  occ. eigenvalues --   -0.28575  -0.27249  -0.24659  -0.24224  -0.23787
  Beta  occ. eigenvalues --   -0.23158  -0.22660  -0.22153  -0.21362  -0.21238
  Beta  occ. eigenvalues --   -0.13341  -0.12171
  Beta virt. eigenvalues --    0.06465   0.07336   0.07566   0.07804   0.08792
  Beta virt. eigenvalues --    0.09192   0.09406   0.10229   0.10453   0.11175
  Beta virt. eigenvalues --    0.11443   0.11603   0.12194   0.13161   0.13485

 Mulliken charges and spin densities:
               1          2
     1  C   -0.005637  -0.723505
     2  C   -0.039794   0.386939
     3  C   -0.091908  -0.444311
     4  C    0.244973  -0.578424
     5  C   -0.153673  -0.325979
     6  C   -0.474591   1.046975
     7  C    0.242064  -1.280804
     8  N    0.215096  -0.125357
     9  C   -1.997709   1.973918
    10  C    1.507338  -1.938036
    11  N   -0.347106   0.172729
    12  C    1.625611  -2.025623
    13  H   -0.016758   0.151674
    14  H    0.011654   0.128667
    15  H    0.127505   0.012659
    16  H    0.058075   0.139305
    17  H   -0.107787   0.262106
    18  H   -0.151074   0.298945
    19  H   -0.416514   0.579850
    20  H    0.083688   0.046034
    21  H   -0.077360   0.219102
    22  H   -0.041443   0.178076
    23  H    0.063468   0.138433
    24  H   -0.099657   0.239785
    25  H    0.170991  -0.050910
    26  H    0.349761  -0.206886
    27  H   -0.218043   0.436835
    28  H   -0.663237   0.801669
    29  H   -0.125942   0.284700
    30  H   -0.061010   0.303443
    31  H    0.077744   0.064152
    32  H   -0.688725   0.833836
 Sum of Mulliken charges =  -1.00000   1.00000

 Dipole moment (field-independent basis, Debye):
    X=              4.8735    Y=              2.1657    Z=             -1.9658  Tot=              5.6838
 Quadrupole moment (field-independent basis, Debye-Ang):
   XX=           -181.4058   YY=           -113.1239   ZZ=           -110.9768
   XY=             -2.7163   XZ=             -2.5648   YZ=              0.6964

 Summary of Natural Population Analysis:

                                       Natural Population
                Natural  -----------------------------------------------
    Atom  No    Charge         Core      Valence    Rydberg      Total
 -----------------------------------------------------------------------
      C    1   -0.28269      0.99964     2.27809    0.00496     3.28269
      C    2   -0.11391      0.99960     2.10406    0.01025     3.11391
      C    3   -0.18875      0.99962     2.18031    0.00881     3.18875
      C    4   -0.19104      0.99964     2.18324    0.00816     3.19104
      C    5   -0.18797      0.99962     2.17966    0.00869     3.18797
      C    6   -0.11021      0.99958     2.09968    0.01094     3.11021
      C    7   -0.08138      0.99959     2.07119    0.01060     3.08138
      N    8   -0.33793      0.99973     2.82770    0.01051     3.83793
      C    9   -0.01302      0.99960     1.99881    0.01462     3.01302
      C   10   -0.09345      0.99964     2.08292    0.01089     3.09345
      N   11   -0.34955      0.99977     2.83633    0.01345     3.84955
      C   12   -0.08434      0.99964     2.07319    0.01151     3.08434
      H   13    0.09636      0.00000     0.40278    0.00086     0.40364
      H   14    0.09488      0.00000     0.40405    0.00107     0.40512
      H   15    0.10169      0.00000     0.39736    0.00095     0.39831
      H   16    0.09531      0.00000     0.40291    0.00178     0.40469
      H   17    0.09758      0.00000     0.40144    0.00098     0.40242
      H   18    0.09807      0.00000     0.40057    0.00136     0.40193
      H   19    0.10036      0.00000     0.39834    0.00130     0.39964
      H   20    0.09159      0.00000     0.40715    0.00126     0.40841
      H   21    0.09507      0.00000     0.40353    0.00141     0.40493
      H   22    0.09938      0.00000     0.39977    0.00085     0.40062
      H   23    0.09659      0.00000     0.40162    0.00179     0.40341
      H   24    0.09222      0.00000     0.40638    0.00140     0.40778
      H   25    0.07924      0.00000     0.41892    0.00184     0.42076
      H   26    0.17294      0.00000     0.32284    0.00422     0.32706
      H   27    0.09357      0.00000     0.40495    0.00148     0.40643
      H   28    0.08849      0.00000     0.40813    0.00338     0.41151
      H   29    0.08798      0.00000     0.41050    0.00152     0.41202
      H   30    0.17601      0.00000     0.32033    0.00366     0.32399
      H   31    0.08820      0.00000     0.41039    0.00142     0.41180
      H   32    0.08873      0.00000     0.40861    0.00266     0.41127
 =======================================================================
   * Total *   -0.00000     11.99566    34.84574    0.15859    47.00000

 Normal termination of Gaussian 16 at Wed Dec  9 17:58:59 2020.
