 Gaussian 16, Revision A.03,

 -----------------------------------------------------------
 # opt freq B3LYP/6-31G(d) empiricaldispersion=gd3bj scf=xqc
 -----------------------------------------------------------

 -----------------------------
 CID_153401214_JID_31_neutraal
 -----------------------------
 Symbolic Z-matrix:
 Charge =  0 Multiplicity = 1

 SCF Done:  E(RB3LYP) =  -463.629016492     A.U. after   14 cycles
 SCF Done:  E(RB3LYP) =  -463.653512854     A.U. after   13 cycles
 SCF Done:  E(RB3LYP) =  -463.657022616     A.U. after   12 cycles
 SCF Done:  E(RB3LYP) =  -463.658164213     A.U. after   12 cycles
 SCF Done:  E(RB3LYP) =  -463.657224867     A.U. after   12 cycles
 SCF Done:  E(RB3LYP) =  -463.658133087     A.U. after   12 cycles
 SCF Done:  E(RB3LYP) =  -463.658530485     A.U. after    9 cycles
 SCF Done:  E(RB3LYP) =  -463.658751145     A.U. after   12 cycles
 SCF Done:  E(RB3LYP) =  -463.658814944     A.U. after   11 cycles
 SCF Done:  E(RB3LYP) =  -463.658832188     A.U. after   10 cycles
 SCF Done:  E(RB3LYP) =  -463.658834283     A.U. after    9 cycles
 SCF Done:  E(RB3LYP) =  -463.658835504     A.U. after    9 cycles
 SCF Done:  E(RB3LYP) =  -463.658837948     A.U. after    8 cycles
 SCF Done:  E(RB3LYP) =  -463.658838158     A.U. after    7 cycles
 Optimization completed.
    -- Stationary point found.

 1\1\GINC-NODE351\FOpt\RB3LYP\6-31G(d)\C8H14O2\VSC10255\08-Dec-2020\0\\
 # opt freq B3LYP/6-31G(d) empiricaldispersion=gd3bj scf=xqc\\CID_15340
 1214_JID_31_neutraal\\0,1\C,1.0175598754,-0.2156206344,-0.0440938118\C
 ,0.899071663,0.0885255669,1.4522179321\C,1.2968763902,1.5125855964,1.8
 755667427\C,0.4004336074,2.6738919494,1.3854913123\C,-1.0983117007,2.4
 064319948,1.6826345778\O,-1.35914724,2.1473044689,3.0495490699\C,0.833
 6626983,3.9128846945,2.0573439896\C,1.1876051961,4.9323779202,2.598207
 6306\O,0.604622483,2.7615578761,-0.0312154965\C,-0.0042272206,3.857374

 Normal termination of Gaussian 16 at Tue Dec  8 10:16:53 2020.

 --------------------------------------------------------------------
 #N Geom=AllCheck Guess=TCheck SCRF=Check GenChk RB3LYP/6-31G(d) Freq
 --------------------------------------------------------------------

 Structure from the checkpoint file:  "JID_31.chk"
 -----------------------------
 CID_153401214_JID_31_neutraal
 -----------------------------
 Charge =  0 Multiplicity = 1

 SCF Done:  E(RB3LYP) =  -463.658838158     A.U. after    1 cycles

  Exact polarizability: 104.641  -0.911  80.700  -8.287   5.018  76.482
 Approx polarizability: 143.959  -4.730 110.275 -16.557   5.843 109.519

                      1                      2                      3
                      A                      A                      A
 Frequencies --     57.3382                87.3702               110.1716
 Red. masses --      2.6592                 1.8817                 3.5600
 Frc consts  --      0.0052                 0.0085                 0.0255
 IR Inten    --      0.3998                 2.4216                 1.4303

                      4                      5                      6
                      A                      A                      A
 Frequencies --    119.5758               133.6698               164.9632
 Red. masses --      2.9344                 2.9641                 2.5002
 Frc consts  --      0.0247                 0.0312                 0.0401
 IR Inten    --      0.9546                 2.5499                 1.2330

                      7                      8                      9
                      A                      A                      A
 Frequencies --    207.9626               227.9515               250.5313
 Red. masses --      1.5248                 1.4692                 2.4988
 Frc consts  --      0.0389                 0.0450                 0.0924
 IR Inten    --      0.2398                 3.4121                 0.6391

                     10                     11                     12
                      A                      A                      A
 Frequencies --    271.9930               302.4672               348.4529
 Red. masses --      2.4718                 2.1192                 1.2866
 Frc consts  --      0.1077                 0.1142                 0.0920
 IR Inten    --      8.1715                44.7747                72.7831

                     13                     14                     15
                      A                      A                      A
 Frequencies --    371.4964               394.2748               439.6185
 Red. masses --      2.4150                 3.0256                 6.3291
 Frc consts  --      0.1964                 0.2771                 0.7207
 IR Inten    --      2.7123                 0.1539                 2.5909

                     16                     17                     18
                      A                      A                      A
 Frequencies --    496.0434               549.8460               608.7294
 Red. masses --      2.7202                 3.9547                 1.2558
 Frc consts  --      0.3944                 0.7044                 0.2742
 IR Inten    --      1.7011                 4.7356                45.9053

                     19                     20                     21
                      A                      A                      A
 Frequencies --    623.3097               644.2810               702.6675
 Red. masses --      5.0729                 1.2303                 2.6389
 Frc consts  --      1.1612                 0.3009                 0.7677
 IR Inten    --      6.2495                37.2628                11.6073

                     22                     23                     24
                      A                      A                      A
 Frequencies --    798.9802               840.7025               893.6117
 Red. masses --      1.5680                 1.8532                 2.0465
 Frc consts  --      0.5897                 0.7717                 0.9629
 IR Inten    --      2.4221                 5.8642                 4.9449

                     25                     26                     27
                      A                      A                      A
 Frequencies --    928.9076               986.5494              1054.5905
 Red. masses --      1.8447                 2.0906                 1.7452
 Frc consts  --      0.9378                 1.1988                 1.1436
 IR Inten    --      4.9615                33.1446                 6.1591

                     28                     29                     30
                      A                      A                      A
 Frequencies --   1084.4253              1100.1806              1112.3976
 Red. masses --      2.5141                 4.0811                 2.9963
 Frc consts  --      1.7420                 2.9104                 2.1845
 IR Inten    --     75.4580                78.2301                35.6875

                     31                     32                     33
                      A                      A                      A
 Frequencies --   1138.6061              1152.1378              1190.2620
 Red. masses --      2.4333                 2.5576                 1.2735
 Frc consts  --      1.8586                 2.0003                 1.0630
 IR Inten    --     49.8535                43.8105                 2.4582

                     34                     35                     36
                      A                      A                      A
 Frequencies --   1199.0673              1229.0512              1270.1576
 Red. masses --      2.8723                 1.4369                 1.5607
 Frc consts  --      2.4332                 1.2789                 1.4835
 IR Inten    --     16.8490                21.5280                23.4662

                     37                     38                     39
                      A                      A                      A
 Frequencies --   1299.4896              1330.5767              1390.7017
 Red. masses --      1.2814                 1.2145                 1.2807
 Frc consts  --      1.2749                 1.2668                 1.4593
 IR Inten    --      8.6395                 7.2416                10.1815

                     40                     41                     42
                      A                      A                      A
 Frequencies --   1402.4696              1407.1629              1441.1102
 Red. masses --      1.4538                 1.3595                 1.2407
 Frc consts  --      1.6848                 1.5860                 1.5182
 IR Inten    --      4.2570                10.4927                25.0087

                     43                     44                     45
                      A                      A                      A
 Frequencies --   1446.7857              1497.1768              1506.4647
 Red. masses --      1.2540                 1.1326                 1.0790
 Frc consts  --      1.5466                 1.4958                 1.4428
 IR Inten    --      5.7307                 0.4375                 2.3733

                     46                     47                     48
                      A                      A                      A
 Frequencies --   1515.1595              1524.4604              1525.7303
 Red. masses --      1.0716                 1.0611                 1.0447
 Frc consts  --      1.4495                 1.4529                 1.4328
 IR Inten    --      0.9389                 4.2194                 5.7618

                     49                     50                     51
                      A                      A                      A
 Frequencies --   1535.9931              1540.2630              1542.8363
 Red. masses --      1.0608                 1.0513                 1.0752
 Frc consts  --      1.4746                 1.4694                 1.5079
 IR Inten    --      8.7702                 7.8447                 2.5615

                     52                     53                     54
                      A                      A                      A
 Frequencies --   2231.7633              3019.2187              3025.5710
 Red. masses --      5.9421                 1.0668                 1.0372
 Frc consts  --     17.4375                 5.7295                 5.5939
 IR Inten    --      1.3592                41.1604                48.0019

                     55                     56                     57
                      A                      A                      A
 Frequencies --   3034.2603              3051.5831              3056.1419
 Red. masses --      1.0672                 1.0759                 1.0501
 Frc consts  --      5.7890                 5.9028                 5.7785
 IR Inten    --     47.0671                13.7814                41.5106

                     58                     59                     60
                      A                      A                      A
 Frequencies --   3068.9558              3087.2246              3105.5995
 Red. masses --      1.0693                 1.1018                 1.1032
 Frc consts  --      5.9337                 6.1872                 6.2688
 IR Inten    --     32.7937                41.6347                17.7424

                     61                     62                     63
                      A                      A                      A
 Frequencies --   3114.2256              3133.1314              3142.8062
 Red. masses --      1.1024                 1.0957                 1.1011
 Frc consts  --      6.2991                 6.3370                 6.4079
 IR Inten    --     47.2957                26.5965                26.7192

                     64                     65                     66
                      A                      A                      A
 Frequencies --   3157.1963              3495.2005              3753.3028
 Red. masses --      1.0984                 1.1604                 1.0659
 Frc consts  --      6.4508                 8.3524                 8.8469
 IR Inten    --     23.1099                55.2885                13.4359

 - Thermochemistry -
 -------------------
 Temperature   298.150 Kelvin.  Pressure   1.00000 Atm.
 Atom     1 has atomic number  6 and mass  12.00000

 Molecular mass:   142.09938 amu.
 Principal axes and moments of inertia in atomic units:
                           1         2         3
     Eigenvalues --  1181.323961719.226432078.59446
           X            0.99949   0.02860   0.01411
           Y           -0.02941   0.99768   0.06138
           Z           -0.01232  -0.06176   0.99802
 This molecule is an asymmetric top.
 Rotational symmetry number  1.
 Warning -- assumption of classical behavior for rotation
           may cause significant error
 Rotational temperatures (Kelvin)      0.07332     0.05038     0.04167
 Rotational constants (GHZ):           1.52773     1.04974     0.86825
 Zero-point vibrational energy     547141.4 (Joules/Mol)
                                  130.76994 (Kcal/Mol)
 Warning -- explicit consideration of  18 degrees of freedom as
           vibrations may cause significant error
 Vibrational temperatures:     82.50   125.71   158.51   172.04   192.32
          (Kelvin)            237.35   299.21   327.97   360.46   391.34
                              435.18   501.35   534.50   567.27   632.51
                              713.70   791.11   875.83   896.80   926.98
                             1010.98  1149.55  1209.58  1285.71  1336.49
                             1419.42  1517.32  1560.25  1582.91  1600.49
                             1638.20  1657.67  1712.52  1725.19  1768.33
                             1827.47  1869.68  1914.40  2000.91  2017.84
                             2024.59  2073.44  2081.60  2154.10  2167.47
                             2179.98  2193.36  2195.19  2209.95  2216.09
                             2219.80  3211.01  4343.98  4353.12  4365.62
                             4390.55  4397.11  4415.54  4441.83  4468.26
                             4480.68  4507.88  4521.80  4542.50  5028.81
                             5400.17

 Zero-point correction=                           0.208395 (Hartree/Particle)
 Thermal correction to Energy=                    0.220781
 Thermal correction to Enthalpy=                  0.221725
 Thermal correction to Gibbs Free Energy=         0.170614
 Sum of electronic and zero-point Energies=           -463.450443
 Sum of electronic and thermal Energies=              -463.438057
 Sum of electronic and thermal Enthalpies=            -463.437113
 Sum of electronic and thermal Free Energies=         -463.488224

                     E (Thermal)             CV                S
                      KCal/Mol        Cal/Mol-Kelvin    Cal/Mol-Kelvin
 Total                  138.542             44.850            107.573
 Electronic               0.000              0.000              0.000
 Translational            0.889              2.981             40.765
 Rotational               0.889              2.981             29.825
 Vibrational            136.765             38.888             36.983
 Vibration     1          0.596              1.975              4.547
 Vibration     2          0.601              1.958              3.718
 Vibration     3          0.606              1.941              3.266
 Vibration     4          0.609              1.933              3.107
 Vibration     5          0.613              1.920              2.893
 Vibration     6          0.623              1.886              2.492
 Vibration     7          0.641              1.828              2.061
 Vibration     8          0.651              1.798              1.895
 Vibration     9          0.663              1.762              1.727
 Vibration    10          0.675              1.725              1.584
 Vibration    11          0.694              1.669              1.403
 Vibration    12          0.726              1.578              1.173
 Vibration    13          0.743              1.531              1.074
 Vibration    14          0.761              1.482              0.984
 Vibration    15          0.800              1.384              0.828
 Vibration    16          0.852              1.259              0.668
 Vibration    17          0.905              1.140              0.544
 Vibration    18          0.968              1.013              0.435

                           ! Non-Optimized Parameters !

 1\1\GINC-NODE351\Freq\RB3LYP\6-31G(d)\C8H14O2\VSC10255\08-Dec-2020\0\\
 #N Geom=AllCheck Guess=TCheck SCRF=Check GenChk RB3LYP/6-31G(d) Freq\\
 CID_153401214_JID_31_neutraal\\0,1\C,1.0175598754,-0.2156206344,-0.044
 0938118\C,0.899071663,0.0885255669,1.4522179321\C,1.2968763902,1.51258
 55964,1.8755667427\C,0.4004336074,2.6738919494,1.3854913123\C,-1.09831
 17007,2.4064319948,1.6826345778\O,-1.35914724,2.1473044689,3.049549069
 9\C,0.8336626983,3.9128846945,2.0573439896\C,1.1876051961,4.9323779202
 ,2.5982076306\O,0.604622483,2.7615578761,-0.0312154965\C,-0.0042272206

 Normal termination of Gaussian 16 at Tue Dec  8 10:21:13 2020.

 ----------------------------------------------------------------------
 # B3LYP/6-311++G(d,p) empiricaldispersion=gd3bj scf=xqc pop=npa geom=c
 heck
 ----------------------------------------------------------------------

 -------------------------------------
 CID_153401214_JID_31_Energie_neutraal
 -------------------------------------
 Structure from the checkpoint file:  "JID_31.chk"
 Charge =  0 Multiplicity = 1

 SCF Done:  E(RB3LYP) =  -463.807095224     A.U. after   14 cycles
 Normal termination of Gaussian 16 at Tue Dec  8 10:22:46 2020.

 ----------------------------------------------------------------------
 # B3LYP/6-311++G(d,p) empiricaldispersion=gd3bj scf=xqc pop=npa geom=c
 heck
 ----------------------------------------------------------------------

 -----------------------------------
 CID_153401214_JID_31_Energie_kation
 -----------------------------------
 Structure from the checkpoint file:  "JID_31.chk"
 Charge =  1 Multiplicity = 2

 SCF Done:  E(UB3LYP) =  -463.470809876     A.U. after   23 cycles
 Normal termination of Gaussian 16 at Tue Dec  8 10:25:56 2020.
 Gaussian 16:  ES64L-G16RevA.03 25-Dec-2016

 ----------------------------------
 CID_153401214_JID_31_Energie_anion
 ----------------------------------
 Structure from the checkpoint file:  "JID_31.chk"
 Charge = -1 Multiplicity = 2

                         Standard orientation:
 ---------------------------------------------------------------------
 Center     Atomic      Atomic             Coordinates (Angstroms)
 Number     Number       Type             X           Y           Z
 ---------------------------------------------------------------------
      1          6           0       -2.826713    0.748942   -0.178959
      2          6           0       -2.167655   -0.598958   -0.486048
      3          6           0       -0.738268   -0.528058   -1.049293
      4          6           0        0.368719    0.001934   -0.107962
      5          6           0        0.349708   -0.721228    1.264168
      6          8           0        0.450644   -2.128905    1.155099
      7          6           0        1.673923   -0.197669   -0.764297
      8          6           0        2.745370   -0.351386   -1.298665
      9          8           0        0.096945    1.397771    0.077014
     10          6           0        1.066566    2.148555    0.793094
     11          1           0       -2.300069    1.281585    0.615225
     12          1           0       -3.870685    0.606921    0.122976
     13          1           0       -2.814244    1.394845   -1.064297
     14          1           0       -2.193269   -1.228994    0.415242
     15          1           0       -2.775671   -1.132076   -1.228792
     16          1           0       -0.429594   -1.526960   -1.377727
     17          1           0       -0.724316    0.108984   -1.940427
     18          1           0        1.211957   -0.408942    1.856995
     19          1           0       -0.559877   -0.406755    1.795329
     20          1           0       -0.374418   -2.455330    0.765243
     21          1           0        3.688969   -0.498826   -1.772827
     22          1           0        1.086636    1.896165    1.862064
     23          1           0        2.070903    2.009983    0.374219
     24          1           0        0.773066    3.195683    0.687644
 ---------------------------------------------------------------------

 SCF Done:  E(UB3LYP) =  -463.790092608     A.U. after   30 cycles

 The electronic state is 2-A.
 Alpha  occ. eigenvalues --  -19.03112 -19.02612 -10.15260 -10.11861 -10.11189
 Alpha  occ. eigenvalues --  -10.07496 -10.07046 -10.06847 -10.06509 -10.04813
 Alpha  occ. eigenvalues --   -0.94528  -0.92671  -0.71457  -0.66753  -0.63265
 Alpha  occ. eigenvalues --   -0.59158  -0.58045  -0.52530  -0.47624  -0.44688
 Alpha  occ. eigenvalues --   -0.41766  -0.40772  -0.38282  -0.36208  -0.34112
 Alpha  occ. eigenvalues --   -0.33533  -0.32677  -0.31655  -0.29183  -0.27608
 Alpha  occ. eigenvalues --   -0.26004  -0.24719  -0.23775  -0.23200  -0.21639
 Alpha  occ. eigenvalues --   -0.20018  -0.18429  -0.17675  -0.15880   0.04697
 Alpha virt. eigenvalues --    0.06533   0.07038   0.08224   0.08973   0.09875
 Alpha virt. eigenvalues --    0.09948   0.10617   0.11182   0.11995   0.12302
 Alpha virt. eigenvalues --    0.12699   0.13471   0.13803   0.14849   0.15066

  Beta  occ. eigenvalues --  -19.03101 -19.02585 -10.15259 -10.11836 -10.11164
  Beta  occ. eigenvalues --  -10.07497 -10.07032 -10.06822 -10.06468 -10.04790
  Beta  occ. eigenvalues --   -0.94504  -0.92619  -0.71426  -0.66715  -0.63230
  Beta  occ. eigenvalues --   -0.59092  -0.57995  -0.52470  -0.47538  -0.44634
  Beta  occ. eigenvalues --   -0.41711  -0.40740  -0.38226  -0.36172  -0.34071
  Beta  occ. eigenvalues --   -0.33490  -0.32636  -0.31614  -0.29149  -0.27584
  Beta  occ. eigenvalues --   -0.25967  -0.24681  -0.23719  -0.23149  -0.21602
  Beta  occ. eigenvalues --   -0.19985  -0.18408  -0.17648  -0.15856
  Beta virt. eigenvalues --    0.06999   0.07732   0.07958   0.08808   0.09689
  Beta virt. eigenvalues --    0.10283   0.10486   0.10913   0.11404   0.12393
  Beta virt. eigenvalues --    0.12692   0.12922   0.13867   0.14099   0.15217

 Mulliken charges and spin densities:
               1          2
     1  C    0.799563  -1.357390
     2  C    0.064954  -0.109887
     3  C   -0.457778  -0.152109
     4  C   -1.828863   1.826488
     5  C    1.191039  -1.871887
     6  O   -0.240242   0.066514
     7  C    3.559209  -3.238991
     8  C   -1.781066   1.534096
     9  O   -0.071992   0.017598
    10  C    0.761846  -1.068238
    11  H   -0.165668   0.336122
    12  H   -0.325047   0.464028
    13  H    0.097547   0.026568
    14  H   -0.260319   0.359978
    15  H   -0.737844   0.917952
    16  H    0.152412   0.030894
    17  H   -0.086138   0.266807
    18  H    0.241105  -0.037704
    19  H   -0.180467   0.380831
    20  H   -0.105817   0.362649
    21  H   -1.117812   1.299866
    22  H   -0.347928   0.495613
    23  H   -0.067420   0.215400
    24  H   -0.093273   0.234802
 Sum of Mulliken charges =  -1.00000   1.00000

 Dipole moment (field-independent basis, Debye):
    X=              0.6572    Y=              1.6018    Z=              0.1265  Tot=              1.7360
 Quadrupole moment (field-independent basis, Debye-Ang):
   XX=           -125.1792   YY=           -102.3402   ZZ=            -99.9655
   XY=             -3.4108   XZ=              4.3280   YZ=             -1.3720

 Summary of Natural Population Analysis:

                                       Natural Population
                Natural  -----------------------------------------------
    Atom  No    Charge         Core      Valence    Rydberg      Total
 -----------------------------------------------------------------------
      C    1   -0.28565      0.99966     2.27942    0.00657     3.28565
      C    2   -0.19178      0.99963     2.18296    0.00918     3.19178
      C    3   -0.19175      0.99958     2.17936    0.01280     3.19175
      C    4    0.09034      0.99944     1.89272    0.01750     2.90966
      C    5   -0.01473      0.99955     2.00105    0.01414     3.01473
      O    6   -0.36356      0.99990     3.35694    0.00673     4.36356
      C    7   -0.01031      0.99936     1.99939    0.01156     3.01031
      C    8   -0.10680      0.99927     2.10329    0.00425     3.10680
      O    9   -0.30004      0.99988     3.28909    0.01108     4.30004
      C   10   -0.10214      0.99959     2.09313    0.00942     3.10214
      H   11    0.10354      0.00000     0.39503    0.00143     0.39646
      H   12    0.09612      0.00000     0.40281    0.00107     0.40388
      H   13    0.09510      0.00000     0.40389    0.00102     0.40490
      H   14    0.09112      0.00000     0.40639    0.00249     0.40888
      H   15    0.10045      0.00000     0.39755    0.00200     0.39955
      H   16    0.10541      0.00000     0.39315    0.00144     0.39459
      H   17    0.10584      0.00000     0.39256    0.00160     0.39416
      H   18    0.09148      0.00000     0.40698    0.00154     0.40852
      H   19    0.08634      0.00000     0.41188    0.00178     0.41366
      H   20    0.23078      0.00000     0.26517    0.00405     0.26922
      H   21    0.11200      0.00000     0.38589    0.00211     0.38800
      H   22    0.07939      0.00000     0.41907    0.00154     0.42061
      H   23    0.08791      0.00000     0.41063    0.00146     0.41209
      H   24    0.09094      0.00000     0.40808    0.00098     0.40906
 =======================================================================
   * Total *   -0.00000      9.99585    28.87641    0.12774    39.00000

 Normal termination of Gaussian 16 at Tue Dec  8 10:29:57 2020.
