 Gaussian 16, Revision A.03,

 -----------------------------------------------------------
 # opt freq B3LYP/6-31G(d) empiricaldispersion=gd3bj scf=xqc
 -----------------------------------------------------------

 -------------------------------
 CID_117839395_JID_3109_neutraal
 -------------------------------
 Symbolic Z-matrix:
 Charge =  0 Multiplicity = 1

 SCF Done:  E(RB3LYP) =  -1285.67147043     A.U. after   16 cycles
 SCF Done:  E(RB3LYP) =  -1285.67598095     A.U. after   14 cycles
 SCF Done:  E(RB3LYP) =  -1285.67684744     A.U. after   14 cycles
 SCF Done:  E(RB3LYP) =  -1285.67746136     A.U. after   15 cycles
 SCF Done:  E(RB3LYP) =  -1285.67841055     A.U. after   16 cycles
 SCF Done:  E(RB3LYP) =  -1285.67913621     A.U. after   13 cycles
 SCF Done:  E(RB3LYP) =  -1285.67989573     A.U. after   13 cycles
 SCF Done:  E(RB3LYP) =  -1285.68034339     A.U. after   15 cycles
 SCF Done:  E(RB3LYP) =  -1285.68043430     A.U. after   13 cycles
 SCF Done:  E(RB3LYP) =  -1285.68045707     A.U. after   12 cycles
 SCF Done:  E(RB3LYP) =  -1285.68046095     A.U. after    9 cycles
 SCF Done:  E(RB3LYP) =  -1285.68046140     A.U. after    9 cycles
 SCF Done:  E(RB3LYP) =  -1285.68046197     A.U. after    9 cycles
 SCF Done:  E(RB3LYP) =  -1285.68046220     A.U. after    9 cycles
 SCF Done:  E(RB3LYP) =  -1285.68046224     A.U. after    8 cycles
 Optimization completed.
    -- Stationary point found.
 Normal termination of Gaussian 16 at Wed Dec  9 22:26:27 2020.

 --------------------------------------------------------------------
 #N Geom=AllCheck Guess=TCheck SCRF=Check GenChk RB3LYP/6-31G(d) Freq
 --------------------------------------------------------------------

 Structure from the checkpoint file:  "JID_3109.chk"
 -------------------------------
 CID_117839395_JID_3109_neutraal
 -------------------------------
 Charge =  0 Multiplicity = 1

 SCF Done:  E(RB3LYP) =  -1285.68046224     A.U. after    1 cycles

  Exact polarizability: 161.556 -13.754 149.014 -10.622  -2.902  81.236
 Approx polarizability: 231.735 -33.404 309.709 -15.145  -5.048 139.414

                      1                      2                      3
                      A                      A                      A
 Frequencies --     23.2074                35.1003                61.5410
 Red. masses --      4.7171                 8.8169                 7.7661
 Frc consts  --      0.0015                 0.0064                 0.0173
 IR Inten    --      0.7220                 0.7292                 5.2045

                      4                      5                      6
                      A                      A                      A
 Frequencies --    133.4371               168.3833               206.0856
 Red. masses --      6.3156                11.9236                 6.1636
 Frc consts  --      0.0663                 0.1992                 0.1542
 IR Inten    --      4.5200                 1.4653                 1.6415

                      7                      8                      9
                      A                      A                      A
 Frequencies --    255.6623               305.6847               361.5212
 Red. masses --      6.8782                 7.0810                 5.0519
 Frc consts  --      0.2649                 0.3898                 0.3890
 IR Inten    --      2.1473                 1.3295                45.4603

                     10                     11                     12
                      A                      A                      A
 Frequencies --    411.5784               420.3767               453.7425
 Red. masses --      4.3546                 4.4176                 2.6489
 Frc consts  --      0.4346                 0.4600                 0.3213
 IR Inten    --      7.9913                 1.1160               186.0035

                     13                     14                     15
                      A                      A                      A
 Frequencies --    501.6542               528.0226               567.0458
 Red. masses --      3.0470                 4.9024                14.8904
 Frc consts  --      0.4518                 0.8053                 2.8209
 IR Inten    --    107.3571                26.9679                15.6931

                     16                     17                     18
                      A                      A                      A
 Frequencies --    584.8038               629.9921               704.4936
 Red. masses --      8.4874                 6.4437                 2.4321
 Frc consts  --      1.7102                 1.5068                 0.7112
 IR Inten    --     14.9781                 0.2243                23.0906

                     19                     20                     21
                      A                      A                      A
 Frequencies --    716.0181               720.9493               767.6311
 Red. masses --      5.8706                10.6981                 1.5323
 Frc consts  --      1.7733                 3.2762                 0.5320
 IR Inten    --      3.4255                 1.1129                32.3796

                     22                     23                     24
                      A                      A                      A
 Frequencies --    863.2500               942.9678               954.2097
 Red. masses --      1.2391                 1.3291                 9.2982
 Frc consts  --      0.5440                 0.6963                 4.9881
 IR Inten    --      0.3200                 1.7932                16.5651

                     25                     26                     27
                      A                      A                      A
 Frequencies --    985.1465              1012.8782              1018.7847
 Red. masses --      1.3480                 1.3130                 5.8791
 Frc consts  --      0.7708                 0.7936                 3.5952
 IR Inten    --      0.4101                 0.5285                 3.6305

                     28                     29                     30
                      A                      A                      A
 Frequencies --   1029.1761              1052.3495              1095.1935
 Red. masses --     10.5799                 3.1865                 3.5890
 Frc consts  --      6.6025                 2.0791                 2.5363
 IR Inten    --     17.2203                 1.8508                38.6707

                     31                     32                     33
                      A                      A                      A
 Frequencies --   1108.8864              1110.8234              1144.4655
 Red. masses --      2.7270                 1.6004                 5.4167
 Frc consts  --      1.9757                 1.1635                 4.1801
 IR Inten    --      2.1274                 3.5186                65.5395

                     34                     35                     36
                      A                      A                      A
 Frequencies --   1190.1364              1197.6240              1216.2582
 Red. masses --     11.2800                 1.1008                 1.1459
 Frc consts  --      9.4135                 0.9303                 0.9987
 IR Inten    --     33.1166                 0.0820                 3.6620

                     37                     38                     39
                      A                      A                      A
 Frequencies --   1332.4680              1340.7881              1361.7965
 Red. masses --      5.4627                 3.3437                 2.3561
 Frc consts  --      5.7144                 3.5415                 2.5744
 IR Inten    --    239.1834                92.7268                24.5169

                     40                     41                     42
                      A                      A                      A
 Frequencies --   1364.4749              1465.8659              1489.8747
 Red. masses --      2.0596                 2.8534                 2.1544
 Frc consts  --      2.2593                 3.6124                 2.8176
 IR Inten    --      3.3643                51.0755                 7.8337

                     43                     44                     45
                      A                      A                      A
 Frequencies --   1526.8144              1636.7147              1643.1642
 Red. masses --      2.0228                 5.4312                 5.3205
 Frc consts  --      2.7783                 8.5721                 8.4638
 IR Inten    --     11.4867                 1.0691                 0.3974

                     46                     47                     48
                      A                      A                      A
 Frequencies --   3192.4097              3201.2015              3209.1648
 Red. masses --      1.0857                 1.0888                 1.0924
 Frc consts  --      6.5194                 6.5737                 6.6287
 IR Inten    --      0.0598                 5.2965                13.5266

                     49                     50                     51
                      A                      A                      A
 Frequencies --   3216.4521              3221.8846              3564.3869
 Red. masses --      1.0954                 1.0975                 1.0806
 Frc consts  --      6.6771                 6.7125                 8.0888
 IR Inten    --      5.9593                21.3427                70.8507

 - Thermochemistry -
 -------------------
 Temperature   298.150 Kelvin.  Pressure   1.00000 Atm.
 Atom     1 has atomic number  6 and mass  12.00000

 Molecular mass:   210.00339 amu.
 Principal axes and moments of inertia in atomic units:
                           1         2         3
     Eigenvalues --  1572.761524346.504644986.00010
           X            0.99994   0.00304  -0.01012
           Y           -0.00318   0.99990  -0.01404
           Z            0.01007   0.01407   0.99985
 This molecule is an asymmetric top.
 Rotational symmetry number  1.
 Warning -- assumption of classical behavior for rotation
           may cause significant error
 Rotational temperatures (Kelvin)      0.05507     0.01993     0.01737
 Rotational constants (GHZ):           1.14750     0.41522     0.36196
 Zero-point vibrational energy     342410.4 (Joules/Mol)
                                   81.83804 (Kcal/Mol)
 Warning -- explicit consideration of  16 degrees of freedom as
           vibrations may cause significant error
 Vibrational temperatures:     33.39    50.50    88.54   191.99   242.27
          (Kelvin)            296.51   367.84   439.81   520.15   592.17
                              604.83   652.83   721.77   759.71   815.85
                              841.40   906.42  1013.61  1030.19  1037.29
                             1104.45  1242.02  1356.72  1372.89  1417.41
                             1457.31  1465.80  1480.75  1514.10  1575.74
                             1595.44  1598.23  1646.63  1712.34  1723.11
                             1749.92  1917.12  1929.10  1959.32  1963.18
                             2109.05  2143.60  2196.75  2354.87  2364.15
                             4593.17  4605.81  4617.27  4627.76  4635.57
                             5128.36

 Zero-point correction=                           0.130417 (Hartree/Particle)
 Thermal correction to Energy=                    0.141598
 Thermal correction to Enthalpy=                  0.142542
 Thermal correction to Gibbs Free Energy=         0.090577
 Sum of electronic and zero-point Energies=          -1285.550045
 Sum of electronic and thermal Energies=             -1285.538864
 Sum of electronic and thermal Enthalpies=           -1285.537920
 Sum of electronic and thermal Free Energies=        -1285.589886

                     E (Thermal)             CV                S
                      KCal/Mol        Cal/Mol-Kelvin    Cal/Mol-Kelvin
 Total                   88.854             41.128            109.371
 Electronic               0.000              0.000              0.000
 Translational            0.889              2.981             41.930
 Rotational               0.889              2.981             31.900
 Vibrational             87.077             35.166             35.541
 Vibration     1          0.593              1.985              6.339
 Vibration     2          0.594              1.982              5.518
 Vibration     3          0.597              1.973              4.407
 Vibration     4          0.613              1.920              2.896
 Vibration     5          0.625              1.881              2.453
 Vibration     6          0.641              1.831              2.078
 Vibration     7          0.666              1.753              1.691
 Vibration     8          0.696              1.663              1.386
 Vibration     9          0.736              1.552              1.116
 Vibration    10          0.776              1.445              0.921
 Vibration    11          0.783              1.426              0.891
 Vibration    12          0.812              1.353              0.785
 Vibration    13          0.857              1.246              0.654
 Vibration    14          0.883              1.188              0.592
 Vibration    15          0.923              1.103              0.510
 Vibration    16          0.942              1.064              0.477

 Optimization completed.
    -- Stationary point found.
 Normal termination of Gaussian 16 at Wed Dec  9 22:30:52 2020.

 ----------------------------------------------------------------------
 # B3LYP/6-311++G(d,p) empiricaldispersion=gd3bj scf=xqc pop=npa geom=c
 heck
 ----------------------------------------------------------------------

 ---------------------------------------
 CID_117839395_JID_3109_Energie_neutraal
 ---------------------------------------
 Structure from the checkpoint file:  "JID_3109.chk"
 Charge =  0 Multiplicity = 1

 SCF Done:  E(RB3LYP) =  -1285.86171779     A.U. after   16 cycles
 Normal termination of Gaussian 16 at Wed Dec  9 22:32:50 2020.

 ----------------------------------------------------------------------
 # B3LYP/6-311++G(d,p) empiricaldispersion=gd3bj scf=xqc pop=npa geom=c
 heck
 ----------------------------------------------------------------------

 -------------------------------------
 CID_117839395_JID_3109_Energie_kation
 -------------------------------------
 Structure from the checkpoint file:  "JID_3109.chk"
 Charge =  1 Multiplicity = 2

 SCF Done:  E(UB3LYP) =  -1285.55807196     A.U. after   33 cycles
 SCF Done:  E(UB3LYP) =  -1285.55807197     a.u. after    2 cycles
 Normal termination of Gaussian 16 at Wed Dec  9 22:43:02 2020.
 Gaussian 16:  ES64L-G16RevA.03 25-Dec-2016

 ----------------------------------------------------------------------
 # B3LYP/6-311++G(d,p) empiricaldispersion=gd3bj scf=xqc pop=npa geom=c
 heck
 ----------------------------------------------------------------------

 ------------------------------------
 CID_117839395_JID_3109_Energie_anion
 ------------------------------------
 Structure from the checkpoint file:  "JID_3109.chk"
 Charge = -1 Multiplicity = 2

                         Standard orientation:
 ---------------------------------------------------------------------
 Center     Atomic      Atomic             Coordinates (Angstroms)
 Number     Number       Type             X           Y           Z
 ---------------------------------------------------------------------
      1          6           0        3.756793    0.479501   -0.877361
      2          6           0        3.599889   -0.807735   -0.361597
      3          6           0        2.432861   -1.146105    0.323856
      4          6           0        1.436102   -0.180681    0.503973
      5          6           0        1.595510    1.118851    0.005020
      6          6           0        2.755030    1.437355   -0.698712
      7         16           0       -0.031955   -0.604490    1.436552
      8          7           0       -1.212422   -0.593387    0.182263
      9          6           0       -2.115755    0.395409   -0.179270
     10         16           0       -2.110864    1.982742    0.269804
     11          7           0       -3.031879   -0.247880   -1.036555
     12          7           0       -2.714615   -1.482496   -1.171497
     13          7           0       -1.683911   -1.775955   -0.370366
     14          1           0        4.662379    0.738185   -1.418302
     15          1           0        4.379644   -1.550824   -0.499728
     16          1           0        2.295403   -2.147245    0.721072
     17          1           0        0.810205    1.851450    0.160931
     18          1           0        2.881373    2.438726   -1.099159
     19          1           0       -1.006695   -2.463865   -0.688870
 ---------------------------------------------------------------------

 SCF Done:  E(UB3LYP) =  -1285.89428876     A.U. after   30 cycles

 The electronic state is 2-A.
 Alpha  occ. eigenvalues --  -88.75635 -88.63885 -14.26410 -14.25723 -14.22328
 Alpha  occ. eigenvalues --  -14.18806 -10.11151 -10.09479 -10.08360 -10.08199
 Alpha  occ. eigenvalues --  -10.08135 -10.08001 -10.06955  -7.83945  -7.72691
 Alpha  occ. eigenvalues --   -5.80511  -5.79971  -5.79214  -5.69095  -5.68532
 Alpha  occ. eigenvalues --   -5.68237  -0.98953  -0.82110  -0.76454  -0.74898
 Alpha  occ. eigenvalues --   -0.67725  -0.65319  -0.61350  -0.57112  -0.52470
 Alpha  occ. eigenvalues --   -0.51115  -0.50032  -0.45624  -0.42920  -0.41386
 Alpha  occ. eigenvalues --   -0.37144  -0.35887  -0.34993  -0.33602  -0.32908
 Alpha  occ. eigenvalues --   -0.29650  -0.27353  -0.25356  -0.24945  -0.24144
 Alpha  occ. eigenvalues --   -0.20725  -0.19222  -0.18564  -0.17171  -0.16263
 Alpha  occ. eigenvalues --   -0.14919  -0.11636  -0.07297  -0.06521   0.02699
 Alpha virt. eigenvalues --    0.06237   0.06706   0.07881   0.08336   0.09497
 Alpha virt. eigenvalues --    0.10670   0.11353   0.12304   0.13053   0.14232
 Alpha virt. eigenvalues --    0.14733   0.15305   0.15809   0.16337   0.16867

  Beta  occ. eigenvalues --  -88.75579 -88.63861 -14.26130 -14.25420 -14.21554
  Beta  occ. eigenvalues --  -14.18839 -10.10898 -10.09411 -10.08365 -10.08161
  Beta  occ. eigenvalues --  -10.08080 -10.08016 -10.06884  -7.83891  -7.72669
  Beta  occ. eigenvalues --   -5.80327  -5.79945  -5.79183  -5.69091  -5.68446
  Beta  occ. eigenvalues --   -5.68227  -0.98279  -0.81435  -0.76319  -0.74368
  Beta  occ. eigenvalues --   -0.67433  -0.65232  -0.60947  -0.56843  -0.51849
  Beta  occ. eigenvalues --   -0.51026  -0.49820  -0.45252  -0.42611  -0.41038
  Beta  occ. eigenvalues --   -0.36709  -0.35814  -0.34558  -0.32922  -0.32417
  Beta  occ. eigenvalues --   -0.29123  -0.27097  -0.25305  -0.24282  -0.23524
  Beta  occ. eigenvalues --   -0.20175  -0.17601  -0.17178  -0.16753  -0.15970
  Beta  occ. eigenvalues --   -0.14561  -0.11271  -0.06563  -0.06230
  Beta virt. eigenvalues --    0.06636   0.06897   0.07870   0.08296   0.09396
  Beta virt. eigenvalues --    0.09887   0.10908   0.11605   0.12420   0.13537
  Beta virt. eigenvalues --    0.14273   0.14827   0.15498   0.16317   0.16439

 Mulliken charges and spin densities:
               1          2
     1  C   -0.228680   0.055205
     2  C   -0.220040   0.027922
     3  C   -0.117492   0.175750
     4  C    0.347561  -0.133109
     5  C   -0.221454  -0.122518
     6  C   -0.336585   0.025722
     7  S   -0.206852   0.194824
     8  N    0.117804   0.086861
     9  C   -0.272909   0.129727
    10  S   -0.499206   0.068856
    11  N   -0.091809  -0.019627
    12  N   -0.059065   0.327134
    13  N   -0.029765   0.109245
    14  H    0.119869  -0.002993
    15  H    0.137028  -0.002541
    16  H    0.139715   0.025342
    17  H    0.033535   0.020563
    18  H    0.159063   0.009500
    19  H    0.229283   0.024138
 Sum of Mulliken charges =  -1.00000   1.00000

 Dipole moment (field-independent basis, Debye):
    X=              9.4385    Y=             -3.4460    Z=              0.2297  Tot=             10.0505
 Quadrupole moment (field-independent basis, Debye-Ang):
   XX=           -133.6189   YY=           -104.1435   ZZ=           -104.6600
   XY=              4.6982   XZ=             -9.4274   YZ=             -2.5407

 Summary of Natural Population Analysis:

                                       Natural Population
                Natural  -----------------------------------------------
    Atom  No    Charge         Core      Valence    Rydberg      Total
 -----------------------------------------------------------------------
      C    1   -0.09311      0.99958     2.08450    0.00903     3.09311
      C    2   -0.10417      0.99957     2.09551    0.00909     3.10417
      C    3   -0.10569      0.99950     2.09565    0.01054     3.10569
      C    4   -0.08587      0.99940     2.07319    0.01328     3.08587
      C    5   -0.08381      0.99949     2.07350    0.01082     3.08381
      C    6   -0.10640      0.99957     2.09808    0.00875     3.10640
      S    7    0.24312      4.99948     2.73357    0.02383     7.75688
      N    8   -0.19779      0.99959     2.67467    0.02352     3.69779
      C    9    0.13020      0.99964     1.84926    0.02090     2.86980
      S   10   -0.13971      4.99954     3.12389    0.01628     8.13971
      N   11   -0.17379      0.99973     2.65558    0.01848     3.67379
      N   12    0.09151      0.99978     2.38878    0.01992     3.40849
      N   13   -0.07800      0.99971     2.56290    0.01539     3.57800
      H   14    0.09427      0.00000     0.40477    0.00096     0.40573
      H   15    0.09493      0.00000     0.40401    0.00106     0.40507
      H   16    0.10175      0.00000     0.39669    0.00156     0.39825
      H   17    0.12200      0.00000     0.37594    0.00206     0.37800
      H   18    0.09830      0.00000     0.40077    0.00093     0.40170
      H   19    0.19224      0.00000     0.30591    0.00184     0.30776
 =======================================================================
   * Total *   -0.00000     20.99458    32.79717    0.20826    54.00000

 Normal termination of Gaussian 16 at Wed Dec  9 22:48:15 2020.
