 Gaussian 16, Revision A.03,

 -----------------------------------------------------------
 # opt freq B3LYP/6-31G(d) empiricaldispersion=gd3bj scf=xqc
 -----------------------------------------------------------

 ------------------------------
 CID_82728490_JID_4841_neutraal
 ------------------------------
 Symbolic Z-matrix:
 Charge =  0 Multiplicity = 1

 SCF Done:  E(RB3LYP) =  -669.069057636     A.U. after   14 cycles
 SCF Done:  E(RB3LYP) =  -669.075338308     A.U. after   12 cycles
 SCF Done:  E(RB3LYP) =  -669.076532136     A.U. after   12 cycles
 SCF Done:  E(RB3LYP) =  -669.077362700     A.U. after   12 cycles
 SCF Done:  E(RB3LYP) =  -669.077601057     A.U. after   12 cycles
 SCF Done:  E(RB3LYP) =  -669.077631822     A.U. after   10 cycles
 SCF Done:  E(RB3LYP) =  -669.077681803     A.U. after   10 cycles
 SCF Done:  E(RB3LYP) =  -669.077686297     A.U. after    8 cycles
 SCF Done:  E(RB3LYP) =  -669.077688010     A.U. after    8 cycles
 SCF Done:  E(RB3LYP) =  -669.077688503     A.U. after    8 cycles
 SCF Done:  E(RB3LYP) =  -669.077693575     A.U. after    8 cycles
 SCF Done:  E(RB3LYP) =  -669.077694848     A.U. after    8 cycles
 SCF Done:  E(RB3LYP) =  -669.077695859     A.U. after    9 cycles
 SCF Done:  E(RB3LYP) =  -669.077696176     A.U. after    7 cycles
 SCF Done:  E(RB3LYP) =  -669.077696229     A.U. after    7 cycles
 Optimization completed.
    -- Stationary point found.
 Normal termination of Gaussian 16 at Thu Dec 10 10:48:07 2020.

 --------------------------------------------------------------------
 #N Geom=AllCheck Guess=TCheck SCRF=Check GenChk RB3LYP/6-31G(d) Freq
 --------------------------------------------------------------------

 Structure from the checkpoint file:  "JID_4841.chk"
 ------------------------------
 CID_82728490_JID_4841_neutraal
 ------------------------------
 Charge =  0 Multiplicity = 1

 SCF Done:  E(RB3LYP) =  -669.077696229     A.U. after    1 cycles

  Exact polarizability: 138.593  -6.489 122.916   0.150  -5.924 100.592
 Approx polarizability: 170.591 -11.776 189.905  -2.516 -16.100 147.354

                      1                      2                      3
                      A                      A                      A
 Frequencies --     28.0878                31.4251                39.2688
 Red. masses --      3.4156                 4.9252                 3.3848
 Frc consts  --      0.0016                 0.0029                 0.0031
 IR Inten    --      0.9533                 0.4395                 2.5579

                      4                      5                      6
                      A                      A                      A
 Frequencies --     54.3889                93.3689               147.3456
 Red. masses --      3.8984                 3.6467                 2.4925
 Frc consts  --      0.0068                 0.0187                 0.0319
 IR Inten    --      0.5161                 0.2807                 1.0919

                      7                      8                      9
                      A                      A                      A
 Frequencies --    163.7279               190.3354               220.6231
 Red. masses --      3.5681                 2.7612                 3.1383
 Frc consts  --      0.0564                 0.0589                 0.0900
 IR Inten    --      1.5257                 0.8274                 0.4008

                     10                     11                     12
                      A                      A                      A
 Frequencies --    240.6711               247.4719               275.2525
 Red. masses --      1.1982                 1.1966                 2.9625
 Frc consts  --      0.0409                 0.0432                 0.1322
 IR Inten    --      0.4106                 3.6350                13.1291

                     13                     14                     15
                      A                      A                      A
 Frequencies --    280.6991               313.9787               335.0929
 Red. masses --      2.1168                 2.4606                 2.3152
 Frc consts  --      0.0983                 0.1429                 0.1532
 IR Inten    --      9.3403                 2.8641                 9.8736

                     16                     17                     18
                      A                      A                      A
 Frequencies --    346.5648               389.3352               391.0151
 Red. masses --      1.5117                 1.9596                 1.3838
 Frc consts  --      0.1070                 0.1750                 0.1247
 IR Inten    --     83.7951                11.9559                54.1814

                     19                     20                     21
                      A                      A                      A
 Frequencies --    416.5256               480.5725               517.0962
 Red. masses --      2.1981                 3.3582                 2.3692
 Frc consts  --      0.2247                 0.4569                 0.3732
 IR Inten    --      9.1098                10.7355                 3.5140

                     22                     23                     24
                      A                      A                      A
 Frequencies --    544.9624               560.5963               603.7058
 Red. masses --      3.1390                 3.1563                 4.4881
 Frc consts  --      0.5492                 0.5844                 0.9638
 IR Inten    --      4.7293                 4.7094                 5.5084

                     25                     26                     27
                      A                      A                      A
 Frequencies --    650.7271               667.9358               705.6853
 Red. masses --      3.5666                 3.2964                 1.6106
 Frc consts  --      0.8898                 0.8665                 0.4726
 IR Inten    --     32.2466                13.0598               104.1235

                     28                     29                     30
                      A                      A                      A
 Frequencies --    763.0831               816.2537               839.2077
 Red. masses --      1.7752                 2.6424                 2.1482
 Frc consts  --      0.6090                 1.0373                 0.8914
 IR Inten    --    173.3796                46.3112                 1.0513

                     31                     32                     33
                      A                      A                      A
 Frequencies --    867.7600               889.7131               900.4995
 Red. masses --      1.6809                 1.9865                 2.1898
 Frc consts  --      0.7458                 0.9265                 1.0462
 IR Inten    --      3.9640                 7.4971                38.8977

                     34                     35                     36
                      A                      A                      A
 Frequencies --    928.1937               963.6546               970.4685
 Red. masses --      1.4760                 4.8437                 2.4335
 Frc consts  --      0.7492                 2.6501                 1.3503
 IR Inten    --      3.6109                66.4391                11.4823

                     37                     38                     39
                      A                      A                      A
 Frequencies --   1001.1637              1036.6614              1059.1185
 Red. masses --      1.5606                 2.5015                 2.0271
 Frc consts  --      0.9216                 1.5839                 1.3397
 IR Inten    --      6.8979                27.0637                19.7482

                     40                     41                     42
                      A                      A                      A
 Frequencies --   1076.8669              1092.9986              1109.1112
 Red. masses --      2.3992                 2.4821                 2.3298
 Frc consts  --      1.6392                 1.7470                 1.6886
 IR Inten    --      9.9491                32.0978                 7.2342

                     43                     44                     45
                      A                      A                      A
 Frequencies --   1125.8146              1152.5675              1170.4926
 Red. masses --      2.0774                 2.7862                 2.1350
 Frc consts  --      1.5513                 2.1807                 1.7234
 IR Inten    --     47.8192                45.2161                30.3463

                     46                     47                     48
                      A                      A                      A
 Frequencies --   1177.5844              1185.2701              1207.2709
 Red. masses --      1.5152                 3.1144                 1.8937
 Frc consts  --      1.2380                 2.5779                 1.6262
 IR Inten    --     25.4248                38.8737                19.5976

                     49                     50                     51
                      A                      A                      A
 Frequencies --   1225.8469              1248.7619              1281.3150
 Red. masses --      1.4166                 1.3123                 1.3031
 Frc consts  --      1.2542                 1.2057                 1.2605
 IR Inten    --     10.7829                27.5077                 4.0555

                     52                     53                     54
                      A                      A                      A
 Frequencies --   1311.9422              1321.5056              1339.5825
 Red. masses --      1.2832                 1.3224                 1.3321
 Frc consts  --      1.3012                 1.3607                 1.4084
 IR Inten    --      6.6686                 3.0245                55.5136

                     55                     56                     57
                      A                      A                      A
 Frequencies --   1352.0508              1370.0735              1387.1510
 Red. masses --      1.3518                 1.2587                 1.4768
 Frc consts  --      1.4560                 1.3920                 1.6743
 IR Inten    --     18.4580                17.6048                48.6137

                     58                     59                     60
                      A                      A                      A
 Frequencies --   1397.8623              1406.8460              1410.9631
 Red. masses --      1.3012                 1.3380                 1.3495
 Frc consts  --      1.4980                 1.5602                 1.5829
 IR Inten    --      6.2253                 2.6511                 2.3826

                     61                     62                     63
                      A                      A                      A
 Frequencies --   1423.2157              1429.4885              1436.4784
 Red. masses --      1.4090                 1.3686                 1.5124
 Frc consts  --      1.6815                 1.6477                 1.8388
 IR Inten    --      1.3461                 0.8873                19.0565

                     64                     65                     66
                      A                      A                      A
 Frequencies --   1450.7796              1512.7297              1518.3208
 Red. masses --      1.4905                 1.1036                 1.0529
 Frc consts  --      1.8484                 1.4879                 1.4301
 IR Inten    --      8.2891                 2.7074                 3.8193

                     67                     68                     69
                      A                      A                      A
 Frequencies --   1520.9647              1526.9968              1527.6767
 Red. masses --      1.2044                 1.0971                 1.0663
 Frc consts  --      1.6416                 1.5072                 1.4662
 IR Inten    --     27.7631                 7.5192                 5.7541

                     70                     71                     72
                      A                      A                      A
 Frequencies --   1537.2191              1539.8509              1562.2318
 Red. masses --      1.0609                 1.0681                 1.0979
 Frc consts  --      1.4771                 1.4921                 1.5788
 IR Inten    --      8.2645                15.5116                 0.6846

                     73                     74                     75
                      A                      A                      A
 Frequencies --   1667.3446              1728.7405              2938.8680
 Red. masses --      1.2260                 4.9707                 1.0824
 Frc consts  --      2.0081                 8.7525                 5.5082
 IR Inten    --     63.6987                71.6466                69.7233

                     76                     77                     78
                      A                      A                      A
 Frequencies --   3023.4698              3038.6608              3043.0168
 Red. masses --      1.0660                 1.0769                 1.0530
 Frc consts  --      5.7416                 5.8588                 5.7448
 IR Inten    --     73.6816                 3.5612                26.1796

                     79                     80                     81
                      A                      A                      A
 Frequencies --   3045.4518              3049.6937              3056.4109
 Red. masses --      1.0507                 1.0762                 1.0366
 Frc consts  --      5.7416                 5.8971                 5.7052
 IR Inten    --     42.3423                22.8206                26.3561

                     82                     83                     84
                      A                      A                      A
 Frequencies --   3070.6951              3107.7110              3110.7030
 Red. masses --      1.0970                 1.1012                 1.1002
 Frc consts  --      6.0943                 6.2663                 6.2723
 IR Inten    --     71.0893                17.0965                28.2280

                     85                     86                     87
                      A                      A                      A
 Frequencies --   3121.1409              3127.7714              3129.7658
 Red. masses --      1.0956                 1.1024                 1.0987
 Frc consts  --      6.2881                 6.3543                 6.3408
 IR Inten    --     11.0297                21.8755                25.9548

                     88                     89                     90
                      A                      A                      A
 Frequencies --   3136.0205              3142.6125              3500.9520
 Red. masses --      1.1030                 1.0858                 1.0730
 Frc consts  --      6.3915                 6.3183                 7.7487
 IR Inten    --     21.0030                12.3695                 0.8437

                     91                     92                     93
                      A                      A                      A
 Frequencies --   3528.9808              3631.9346              3777.1408
 Red. masses --      1.0475                 1.0970                 1.0678
 Frc consts  --      7.6858                 8.5257                 8.9753
 IR Inten    --      8.7176                10.1308                59.7583

 - Thermochemistry -
 -------------------
 Temperature   298.150 Kelvin.  Pressure   1.00000 Atm.
 Atom     1 has atomic number  6 and mass  12.00000

 Molecular mass:   201.14773 amu.
 Principal axes and moments of inertia in atomic units:
                           1         2         3
     Eigenvalues --  1425.471105387.357675834.06721
           X            0.99990  -0.00691   0.01206
           Y            0.00693   0.99997  -0.00188
           Z           -0.01204   0.00196   0.99993
 This molecule is an asymmetric top.
 Rotational symmetry number  1.
 Warning -- assumption of classical behavior for rotation
           may cause significant error
 Rotational temperatures (Kelvin)      0.06076     0.01608     0.01485
 Rotational constants (GHZ):           1.26607     0.33500     0.30935
 Zero-point vibrational energy     767327.6 (Joules/Mol)
                                  183.39569 (Kcal/Mol)
 Warning -- explicit consideration of  24 degrees of freedom as
           vibrations may cause significant error
 Vibrational temperatures:     40.41    45.21    56.50    78.25   134.34
          (Kelvin)            212.00   235.57   273.85   317.43   346.27
                              356.06   396.03   403.86   451.75   482.12
                              498.63   560.17   562.58   599.29   691.44
                              743.99   784.08   806.57   868.60   936.25
                              961.01  1015.32  1097.91  1174.41  1207.43
                             1248.51  1280.10  1295.62  1335.46  1386.48
                             1396.29  1440.45  1491.52  1523.84  1549.37
                             1572.58  1595.76  1619.80  1658.29  1684.08
                             1694.28  1705.34  1736.99  1763.72  1796.69
                             1843.53  1887.59  1901.35  1927.36  1945.30
                             1971.23  1995.80  2011.21  2024.14  2030.06
                             2047.69  2056.72  2066.77  2087.35  2176.48
                             2184.52  2188.33  2197.01  2197.99  2211.72
                             2215.50  2247.70  2398.94  2487.27  4228.38
                             4350.10  4371.96  4378.22  4381.73  4387.83
                             4397.49  4418.05  4471.30  4475.61  4490.63
                             4500.17  4503.03  4512.03  4521.52  5037.09
                             5077.42  5225.54  5434.46

 Zero-point correction=                           0.292260 (Hartree/Particle)
 Thermal correction to Energy=                    0.307978
 Thermal correction to Enthalpy=                  0.308922
 Thermal correction to Gibbs Free Energy=         0.247954
 Sum of electronic and zero-point Energies=           -668.785437
 Sum of electronic and thermal Energies=              -668.769718
 Sum of electronic and thermal Enthalpies=            -668.768774
 Sum of electronic and thermal Free Energies=         -668.829742

                     E (Thermal)             CV                S
                      KCal/Mol        Cal/Mol-Kelvin    Cal/Mol-Kelvin
 Total                  193.259             58.564            128.318
 Electronic               0.000              0.000              0.000
 Translational            0.889              2.981             41.801
 Rotational               0.889              2.981             32.172
 Vibrational            191.482             52.602             54.345
 Vibration     1          0.593              1.984              5.960
 Vibration     2          0.594              1.983              5.737
 Vibration     3          0.594              1.981              5.296
 Vibration     4          0.596              1.976              4.651
 Vibration     5          0.602              1.954              3.588
 Vibration     6          0.617              1.906              2.706
 Vibration     7          0.623              1.887              2.506
 Vibration     8          0.634              1.853              2.225
 Vibration     9          0.647              1.810              1.954
 Vibration    10          0.658              1.778              1.798
 Vibration    11          0.661              1.767              1.749
 Vibration    12          0.677              1.719              1.563
 Vibration    13          0.680              1.709              1.529
 Vibration    14          0.702              1.647              1.341
 Vibration    15          0.716              1.605              1.235
 Vibration    16          0.725              1.582              1.182
 Vibration    17          0.757              1.493              1.003
 Vibration    18          0.759              1.489              0.996
 Vibration    19          0.780              1.434              0.904
 Vibration    20          0.837              1.293              0.709
 Vibration    21          0.872              1.212              0.617
 Vibration    22          0.900              1.151              0.555
 Vibration    23          0.916              1.117              0.523
 Vibration    24          0.962              1.024              0.443

                           ! Non-Optimized Parameters !
 Normal termination of Gaussian 16 at Thu Dec 10 10:58:03 2020.

 ----------------------------------------------------------------------
 # B3LYP/6-311++G(d,p) empiricaldispersion=gd3bj scf=xqc pop=npa geom=c
 heck
 ----------------------------------------------------------------------

 --------------------------------------
 CID_82728490_JID_4841_Energie_neutraal
 --------------------------------------
 Structure from the checkpoint file:  "JID_4841.chk"
 Charge =  0 Multiplicity = 1

 SCF Done:  E(RB3LYP) =  -669.289068710     A.U. after   14 cycles
 Normal termination of Gaussian 16 at Thu Dec 10 11:02:33 2020.

 ----------------------------------------------------------------------
 # B3LYP/6-311++G(d,p) empiricaldispersion=gd3bj scf=xqc pop=npa geom=c
 heck
 ----------------------------------------------------------------------

 ------------------------------------
 CID_82728490_JID_4841_Energie_kation
 ------------------------------------
 Structure from the checkpoint file:  "JID_4841.chk"
 Charge =  1 Multiplicity = 2

 SCF Done:  E(UB3LYP) =  -669.004020185     A.U. after   25 cycles
 Normal termination of Gaussian 16 at Thu Dec 10 11:13:47 2020.
 Gaussian 16:  ES64L-G16RevA.03 25-Dec-2016

 ----------------------------------------------------------------------
 # B3LYP/6-311++G(d,p) empiricaldispersion=gd3bj scf=xqc pop=npa geom=c
 heck
 ----------------------------------------------------------------------

 -----------------------------------
 CID_82728490_JID_4841_Energie_anion
 -----------------------------------
 Structure from the checkpoint file:  "JID_4841.chk"
 Charge = -1 Multiplicity = 2

                         Standard orientation:
 ---------------------------------------------------------------------
 Center     Atomic      Atomic             Coordinates (Angstroms)
 Number     Number       Type             X           Y           Z
 ---------------------------------------------------------------------
      1          6           0       -3.567398   -1.109119   -1.362373
      2          6           0       -2.938171   -0.581785   -0.086328
      3          6           0       -1.484238   -0.105617   -0.239416
      4          6           0       -1.375781    0.920331    0.911203
      5          6           0       -2.778943    1.533485    0.926003
      6          8           0       -3.672509    0.548089    0.387895
      7          7           0       -0.570668   -1.232540   -0.300192
      8          6           0        0.811513   -0.944088   -0.649033
      9          6           0        1.714003   -0.363445    0.482152
     10          6           0        1.968032   -1.396809    1.584870
     11          6           0        2.975917    0.176302   -0.147373
     12          7           0        3.079060    1.331450   -0.709307
     13          8           0        1.825904    2.020096   -0.685372
     14          7           0        4.074018   -0.676044   -0.255013
     15          1           0       -4.594865   -1.441976   -1.184834
     16          1           0       -2.979238   -1.952567   -1.738367
     17          1           0       -3.587418   -0.322664   -2.124832
     18          1           0       -2.959372   -1.375846    0.683799
     19          1           0       -1.393176    0.431407   -1.193081
     20          1           0       -0.590960    1.663643    0.749783
     21          1           0       -1.167852    0.393407    1.851681
     22          1           0       -2.827818    2.433760    0.297170
     23          1           0       -3.113850    1.809341    1.933236
     24          1           0       -0.635879   -1.794977    0.545533
     25          1           0        1.283513   -1.865897   -1.013555
     26          1           0        0.797931   -0.235599   -1.481603
     27          1           0        1.200756    0.495783    0.915668
     28          1           0        2.433482   -2.306756    1.187696
     29          1           0        2.605792   -0.995370    2.381144
     30          1           0        1.022475   -1.691205    2.052998
     31          1           0        2.065877    2.858997   -1.105232
     32          1           0        4.299717   -1.180445    0.594356
     33          1           0        4.887254   -0.204109   -0.638380
 ---------------------------------------------------------------------

 SCF Done:  E(UB3LYP) =  -669.276761503     A.U. after   33 cycles
 SCF Done:  E(UB3LYP) =  -669.276761503     a.u. after    1 cycles

 The electronic state is 2-A.
 Alpha  occ. eigenvalues --  -19.06090 -19.02778 -14.23888 -14.21733 -14.20484
 Alpha  occ. eigenvalues --  -10.13689 -10.12697 -10.12473 -10.10836 -10.09652
 Alpha  occ. eigenvalues --  -10.08056 -10.07316 -10.07176 -10.05733  -0.97302
 Alpha  occ. eigenvalues --   -0.94545  -0.83576  -0.81641  -0.72221  -0.69482
 Alpha  occ. eigenvalues --   -0.67811  -0.66474  -0.59043  -0.56861  -0.52283
 Alpha  occ. eigenvalues --   -0.50273  -0.48688  -0.47210  -0.43109  -0.41581
 Alpha  occ. eigenvalues --   -0.40963  -0.38168  -0.37699  -0.36464  -0.35602
 Alpha  occ. eigenvalues --   -0.34749  -0.33907  -0.33350  -0.31591  -0.31026
 Alpha  occ. eigenvalues --   -0.30197  -0.29176  -0.29024  -0.28396  -0.27500
 Alpha  occ. eigenvalues --   -0.25808  -0.25241  -0.24222  -0.23591  -0.22597
 Alpha  occ. eigenvalues --   -0.22276  -0.18088  -0.16337  -0.13522  -0.11911
 Alpha  occ. eigenvalues --    0.04555
 Alpha virt. eigenvalues --    0.06446   0.06902   0.07465   0.08238   0.09058
 Alpha virt. eigenvalues --    0.09500   0.10171   0.10467   0.11107   0.11297
 Alpha virt. eigenvalues --    0.11671   0.12240   0.12388   0.12922   0.13667

  Beta  occ. eigenvalues --  -19.06083 -19.02778 -14.23879 -14.21668 -14.20466
  Beta  occ. eigenvalues --  -10.13686 -10.12685 -10.12464 -10.10836 -10.09647
  Beta  occ. eigenvalues --  -10.08049 -10.07299 -10.07172 -10.05662  -0.97292
  Beta  occ. eigenvalues --   -0.94540  -0.83516  -0.81612  -0.72158  -0.69461
  Beta  occ. eigenvalues --   -0.67791  -0.66439  -0.59010  -0.56796  -0.52228
  Beta  occ. eigenvalues --   -0.50228  -0.48660  -0.47133  -0.43065  -0.41550
  Beta  occ. eigenvalues --   -0.40940  -0.38131  -0.37657  -0.36428  -0.35575
  Beta  occ. eigenvalues --   -0.34729  -0.33870  -0.33320  -0.31570  -0.30980
  Beta  occ. eigenvalues --   -0.30178  -0.29149  -0.28992  -0.28382  -0.27453
  Beta  occ. eigenvalues --   -0.25775  -0.25207  -0.24186  -0.23560  -0.22585
  Beta  occ. eigenvalues --   -0.22235  -0.18048  -0.16324  -0.13494  -0.11888
  Beta virt. eigenvalues --    0.06404   0.07216   0.07636   0.07847   0.08716
  Beta virt. eigenvalues --    0.09504   0.10104   0.10336   0.10752   0.11348
  Beta virt. eigenvalues --    0.11471   0.11963   0.12597   0.12845   0.13149

 Mulliken charges and spin densities:
               1          2
     1  C   -0.275469  -0.121779
     2  C   -0.142820  -0.090354
     3  C   -0.404106  -0.115798
     4  C   -0.247717   0.199704
     5  C    0.362269  -0.973337
     6  O   -0.127972   0.029743
     7  N    0.169547  -0.028980
     8  C   -0.617916   0.060484
     9  C   -0.725353   1.139066
    10  C    3.135336  -3.966504
    11  C   -0.449974   0.446908
    12  N   -0.287978  -0.008138
    13  O   -0.138510   0.002586
    14  N   -0.313506   0.020275
    15  H    0.080801   0.066428
    16  H    0.121102   0.041419
    17  H    0.111578   0.019938
    18  H   -0.219187   0.381992
    19  H    0.185137  -0.026348
    20  H    0.056412   0.083805
    21  H   -0.031565   0.232533
    22  H    0.067840   0.069327
    23  H   -0.042672   0.208907
    24  H    0.265415  -0.048627
    25  H   -0.037715   0.245902
    26  H    0.121458  -0.005594
    27  H    0.320639  -0.066848
    28  H   -0.234812   0.389190
    29  H   -0.840614   1.018051
    30  H   -0.515950   0.638343
    31  H    0.247708   0.024389
    32  H   -0.338310   0.612079
    33  H   -0.253095   0.521238
 Sum of Mulliken charges =  -1.00000   1.00000

 Dipole moment (field-independent basis, Debye):
    X=             -7.1116    Y=              5.1146    Z=             -5.7332  Tot=             10.4692
 Quadrupole moment (field-independent basis, Debye-Ang):
   XX=           -181.6894   YY=           -118.8066   ZZ=           -127.5098
   XY=             13.1770   XZ=             -6.2534   YZ=              5.8874

 Summary of Natural Population Analysis:

                                       Natural Population
                Natural  -----------------------------------------------
    Atom  No    Charge         Core      Valence    Rydberg      Total
 -----------------------------------------------------------------------
      C    1   -0.29016      0.99964     2.28550    0.00502     3.29016
      C    2    0.06672      0.99954     1.91706    0.01667     2.93328
      C    3   -0.01380      0.99956     2.00169    0.01254     3.01380
      C    4   -0.21908      0.99961     2.21146    0.00800     3.21908
      C    5   -0.00742      0.99960     1.99606    0.01176     3.00742
      O    6   -0.30965      0.99989     3.30101    0.00875     4.30965
      N    7   -0.33937      0.99973     2.82799    0.01166     3.83937
      C    8   -0.07791      0.99960     2.06704    0.01127     3.07791
      C    9   -0.15447      0.99954     2.14282    0.01211     3.15447
      C   10   -0.29202      0.99965     2.28507    0.00730     3.29202
      C   11    0.21128      0.99958     1.76854    0.02060     2.78872
      N   12   -0.13825      0.99959     2.62493    0.01373     3.63825
      O   13   -0.29991      0.99990     3.29374    0.00627     4.29991
      N   14   -0.39627      0.99971     2.88621    0.01035     3.89627
      H   15    0.09931      0.00000     0.39977    0.00092     0.40069
      H   16    0.10664      0.00000     0.39241    0.00095     0.39336
      H   17    0.09631      0.00000     0.40267    0.00102     0.40369
      H   18    0.07943      0.00000     0.41885    0.00171     0.42057
      H   19    0.09080      0.00000     0.40750    0.00171     0.40920
      H   20    0.11045      0.00000     0.38834    0.00121     0.38955
      H   21    0.10143      0.00000     0.39680    0.00177     0.39857
      H   22    0.07772      0.00000     0.42110    0.00118     0.42228
      H   23    0.08611      0.00000     0.41262    0.00128     0.41389
      H   24    0.17668      0.00000     0.32022    0.00310     0.32332
      H   25    0.09520      0.00000     0.40367    0.00113     0.40480
      H   26    0.09928      0.00000     0.39947    0.00125     0.40072
      H   27    0.11307      0.00000     0.38353    0.00340     0.38693
      H   28    0.10180      0.00000     0.39596    0.00224     0.39820
      H   29    0.10722      0.00000     0.38977    0.00300     0.39278
      H   30    0.10356      0.00000     0.39401    0.00243     0.39644
      H   31    0.23124      0.00000     0.26610    0.00266     0.26876
      H   32    0.19541      0.00000     0.29710    0.00749     0.30459
      H   33    0.18864      0.00000     0.30768    0.00368     0.31136
 =======================================================================
   * Total *   -0.00000     13.99514    40.80669    0.19818    55.00000

 Normal termination of Gaussian 16 at Thu Dec 10 11:28:22 2020.
