 Gaussian 16, Revision A.03,

 -----------------------------------------------------------
 # opt freq B3LYP/6-31G(d) empiricaldispersion=gd3bj scf=xqc
 -----------------------------------------------------------

 ------------------------------
 CID_62579301_JID_4280_neutraal
 ------------------------------
 Symbolic Z-matrix:
 Charge =  0 Multiplicity = 1

 SCF Done:  E(RB3LYP) =  -1281.78678744     A.U. after   14 cycles
 SCF Done:  E(RB3LYP) =  -1281.76134909     A.U. after   13 cycles
 SCF Done:  E(RB3LYP) =  -1281.78935787     A.U. after   13 cycles
 SCF Done:  E(RB3LYP) =  -1281.79138317     A.U. after   11 cycles
 SCF Done:  E(RB3LYP) =  -1281.79128247     A.U. after   12 cycles
 SCF Done:  E(RB3LYP) =  -1281.79145183     A.U. after   12 cycles
 SCF Done:  E(RB3LYP) =  -1281.79184011     A.U. after   12 cycles
 SCF Done:  E(RB3LYP) =  -1281.79203052     A.U. after   11 cycles
 SCF Done:  E(RB3LYP) =  -1281.79204268     A.U. after   10 cycles
 SCF Done:  E(RB3LYP) =  -1281.79205203     A.U. after    9 cycles
 SCF Done:  E(RB3LYP) =  -1281.79205345     A.U. after    8 cycles
 SCF Done:  E(RB3LYP) =  -1281.79205409     A.U. after    8 cycles
 SCF Done:  E(RB3LYP) =  -1281.79205436     A.U. after    7 cycles
 SCF Done:  E(RB3LYP) =  -1281.79205448     A.U. after    7 cycles
 SCF Done:  E(RB3LYP) =  -1281.79205451     A.U. after    7 cycles
 Optimization completed.
    -- Stationary point found.
 Normal termination of Gaussian 16 at Thu Dec 10 09:27:20 2020.

 --------------------------------------------------------------------
 #N Geom=AllCheck Guess=TCheck SCRF=Check GenChk RB3LYP/6-31G(d) Freq
 --------------------------------------------------------------------

 Structure from the checkpoint file:  "JID_4280.chk"
 ------------------------------
 CID_62579301_JID_4280_neutraal
 ------------------------------
 Charge =  0 Multiplicity = 1

 SCF Done:  E(RB3LYP) =  -1281.79205451     A.U. after    1 cycles

  Exact polarizability: 140.975   6.854 165.875 -14.365  -0.464 136.539
 Approx polarizability: 191.683  12.057 260.860 -35.331   2.378 237.241

                      1                      2                      3
                      A                      A                      A
 Frequencies --     26.8503                35.9333                56.9764
 Red. masses --      6.8919                 4.2710                 4.8460
 Frc consts  --      0.0029                 0.0032                 0.0093
 IR Inten    --      0.1861                 1.1558                 1.4367

                      4                      5                      6
                      A                      A                      A
 Frequencies --     63.6588                83.0217                91.7975
 Red. masses --      3.1971                 4.2930                 3.6032
 Frc consts  --      0.0076                 0.0174                 0.0179
 IR Inten    --      0.1930                 0.4180                 1.9258

                      7                      8                      9
                      A                      A                      A
 Frequencies --    133.6386               148.5859               212.1739
 Red. masses --      3.2871                 4.0849                 2.8062
 Frc consts  --      0.0346                 0.0531                 0.0744
 IR Inten    --      1.5307                 0.7514                 0.2938

                     10                     11                     12
                      A                      A                      A
 Frequencies --    241.6350               260.5585               292.0933
 Red. masses --      1.2473                 2.9522                 2.2934
 Frc consts  --      0.0429                 0.1181                 0.1153
 IR Inten    --      2.1362                 2.6522                 2.1274

                     13                     14                     15
                      A                      A                      A
 Frequencies --    310.9415               322.5348               328.7137
 Red. masses --      2.7373                 2.3908                 1.1429
 Frc consts  --      0.1559                 0.1465                 0.0728
 IR Inten    --      1.0313                 1.3381                 0.2216

                     16                     17                     18
                      A                      A                      A
 Frequencies --    350.4690               355.7243               423.6921
 Red. masses --      2.4613                 2.0959                 3.0322
 Frc consts  --      0.1781                 0.1563                 0.3207
 IR Inten    --      0.0935                 2.1350                 6.1896

                     19                     20                     21
                      A                      A                      A
 Frequencies --    448.5771               510.1196               524.2904
 Red. masses --      2.4335                 4.0985                 3.1950
 Frc consts  --      0.2885                 0.6284                 0.5174
 IR Inten    --      1.6917                 3.9571                 0.8118

                     22                     23                     24
                      A                      A                      A
 Frequencies --    569.7635               580.8624               620.0199
 Red. masses --      3.2425                 3.5714                 2.6813
 Frc consts  --      0.6202                 0.7100                 0.6073
 IR Inten    --      0.1390                 2.8927                 1.4782

                     25                     26                     27
                      A                      A                      A
 Frequencies --    654.1036               672.0985               703.5950
 Red. masses --      5.7349                 4.6848                 1.1908
 Frc consts  --      1.4457                 1.2468                 0.3473
 IR Inten    --      1.2764                 6.0033                67.3722

                     28                     29                     30
                      A                      A                      A
 Frequencies --    747.3649               786.3068               828.9674
 Red. masses --      6.7499                 2.1428                 1.2602
 Frc consts  --      2.2213                 0.7806                 0.5102
 IR Inten    --      1.8138                37.5454                 2.8924

                     31                     32                     33
                      A                      A                      A
 Frequencies --    836.2591               862.5801               884.5561
 Red. masses --      1.4274                 3.2351                 1.9651
 Frc consts  --      0.5881                 1.4182                 0.9059
 IR Inten    --     66.2209                20.4480                 3.1672

                     34                     35                     36
                      A                      A                      A
 Frequencies --    899.6003               908.6018               918.9864
 Red. masses --      2.5622                 1.3973                 2.0585
 Frc consts  --      1.2217                 0.6797                 1.0243
 IR Inten    --      1.1914                 1.6445                 8.3652

                     37                     38                     39
                      A                      A                      A
 Frequencies --    948.3321               973.7735               998.5806
 Red. masses --      1.1729                 1.4017                 2.2174
 Frc consts  --      0.6215                 0.7831                 1.3028
 IR Inten    --      2.5735                 0.7735                32.4176

                     40                     41                     42
                      A                      A                      A
 Frequencies --   1012.6614              1047.4178              1078.0872
 Red. masses --      1.8623                 1.9025                 1.5625
 Frc consts  --      1.1252                 1.2298                 1.0700
 IR Inten    --      6.6671                 4.4475                 3.9605

                     43                     44                     45
                      A                      A                      A
 Frequencies --   1093.5698              1109.8566              1127.5049
 Red. masses --      1.3534                 1.4325                 1.6113
 Frc consts  --      0.9536                 1.0396                 1.2069
 IR Inten    --      9.6192                 3.4567                 2.4601

                     46                     47                     48
                      A                      A                      A
 Frequencies --   1145.0228              1147.2884              1182.8998
 Red. masses --      2.0647                 2.3377                 3.5053
 Frc consts  --      1.5949                 1.8129                 2.8898
 IR Inten    --      6.0640                 3.0383                49.1305

                     49                     50                     51
                      A                      A                      A
 Frequencies --   1199.1896              1223.0782              1229.9634
 Red. masses --      1.8904                 1.1797                 1.3770
 Frc consts  --      1.6017                 1.0397                 1.2273
 IR Inten    --      7.7420                 3.9326                 1.2868

                     52                     53                     54
                      A                      A                      A
 Frequencies --   1249.2685              1289.7709              1307.5361
 Red. masses --      1.3133                 1.3337                 1.2353
 Frc consts  --      1.2076                 1.3072                 1.2443
 IR Inten    --      2.2145                 9.9547                31.4436

                     55                     56                     57
                      A                      A                      A
 Frequencies --   1326.6465              1341.8780              1367.3102
 Red. masses --      1.3869                 1.2502                 1.3100
 Frc consts  --      1.4382                 1.3263                 1.4430
 IR Inten    --      6.5919                 7.2848                 9.0609

                     58                     59                     60
                      A                      A                      A
 Frequencies --   1370.4197              1399.8529              1408.2529
 Red. masses --      1.3165                 1.5498                 1.6141
 Frc consts  --      1.4567                 1.7894                 1.8860
 IR Inten    --      0.2851                13.7008                 6.1643

                     61                     62                     63
                      A                      A                      A
 Frequencies --   1423.3813              1432.7476              1451.7813
 Red. masses --      1.3438                 1.2424                 1.2180
 Frc consts  --      1.6041                 1.5026                 1.5126
 IR Inten    --      3.9463                 9.4943                 1.4700

                     64                     65                     66
                      A                      A                      A
 Frequencies --   1480.7855              1503.6453              1509.1028
 Red. masses --      1.0930                 2.4941                 1.0836
 Frc consts  --      1.4121                 3.3224                 1.4540
 IR Inten    --      4.4722                 5.7894                 6.7172

                     67                     68                     69
                      A                      A                      A
 Frequencies --   1510.3570              1513.6812              1520.9433
 Red. masses --      1.1198                 1.3538                 1.0626
 Frc consts  --      1.5051                 1.8276                 1.4482
 IR Inten    --      7.1442                 1.2701                 1.7205

                     70                     71                     72
                      A                      A                      A
 Frequencies --   1528.0837              1534.0802              1536.5138
 Red. masses --      1.1721                 1.0766                 1.0888
 Frc consts  --      1.6126                 1.4928                 1.5146
 IR Inten    --     14.7601                28.3854                 4.6588

                     73                     74                     75
                      A                      A                      A
 Frequencies --   1550.4279              1605.5469              2966.8621
 Red. masses --      1.0494                 5.3891                 1.0694
 Frc consts  --      1.4863                 8.1848                 5.5461
 IR Inten    --      4.8205                 1.4261                53.9200

                     76                     77                     78
                      A                      A                      A
 Frequencies --   3040.3707              3044.6814              3045.1192
 Red. masses --      1.0867                 1.0423                 1.0621
 Frc consts  --      5.9187                 5.6928                 5.8025
 IR Inten    --     27.1444                14.6440                34.6862

                     79                     80                     81
                      A                      A                      A
 Frequencies --   3049.4142              3053.1250              3062.3125
 Red. masses --      1.0413                 1.0617                 1.0835
 Frc consts  --      5.7049                 5.8310                 5.9866
 IR Inten    --     34.5566                50.7816                13.7898

                     82                     83                     84
                      A                      A                      A
 Frequencies --   3084.9420              3085.4052              3102.1727
 Red. masses --      1.0727                 1.0962                 1.1019
 Frc consts  --      6.0151                 6.1483                 6.2480
 IR Inten    --     12.2579                40.8491                32.7977

                     85                     86                     87
                      A                      A                      A
 Frequencies --   3111.7116              3118.2004              3136.1540
 Red. masses --      1.0994                 1.0934                 1.1036
 Frc consts  --      6.2719                 6.2637                 6.3955
 IR Inten    --     17.5833                43.7691                10.8947

                     88                     89                     90
                      A                      A                      A
 Frequencies --   3147.9143              3148.8855              3217.6947
 Red. masses --      1.1012                 1.1007                 1.0886
 Frc consts  --      6.4292                 6.4302                 6.6404
 IR Inten    --      6.5752                18.5845                 6.2567

                     91                     92                     93
                      A                      A                      A
 Frequencies --   3231.2189              3271.9637              3501.8977
 Red. masses --      1.0953                 1.0971                 1.0714
 Frc consts  --      6.7380                 6.9204                 7.7415
 IR Inten    --      4.6780                 1.0377                 5.0734

 - Thermochemistry -
 -------------------
 Temperature   298.150 Kelvin.  Pressure   1.00000 Atm.
 Atom     1 has atomic number  6 and mass  12.00000

 Molecular mass:   229.09589 amu.
 Principal axes and moments of inertia in atomic units:
                           1         2         3
     Eigenvalues --  2418.559364741.081635656.62162
           X            0.99978  -0.00467   0.02057
           Y            0.00519   0.99967  -0.02530
           Z           -0.02045   0.02540   0.99947
 This molecule is an asymmetric top.
 Rotational symmetry number  1.
 Warning -- assumption of classical behavior for rotation
           may cause significant error
 Rotational temperatures (Kelvin)      0.03581     0.01827     0.01531
 Rotational constants (GHZ):           0.74621     0.38066     0.31905
 Zero-point vibrational energy     752420.8 (Joules/Mol)
                                  179.83289 (Kcal/Mol)
 Warning -- explicit consideration of  24 degrees of freedom as
           vibrations may cause significant error
 Vibrational temperatures:     38.63    51.70    81.98    91.59   119.45
          (Kelvin)            132.08   192.28   213.78   305.27   347.66
                              374.89   420.26   447.38   464.06   472.95
                              504.25   511.81   609.60   645.40   733.95
                              754.34   819.76   835.73   892.07   941.11
                              967.00  1012.32  1075.29  1131.32  1192.70
                             1203.19  1241.06  1272.68  1294.32  1307.28
                             1322.22  1364.44  1401.04  1436.73  1456.99
                             1507.00  1551.13  1573.40  1596.84  1622.23
                             1647.43  1650.69  1701.93  1725.37  1759.74
                             1769.64  1797.42  1855.69  1881.25  1908.75
                             1930.66  1967.25  1971.73  2014.08  2026.16
                             2047.93  2061.40  2088.79  2130.52  2163.41
                             2171.26  2173.07  2177.85  2188.30  2198.57
                             2207.20  2210.70  2230.72  2310.02  4268.65
                             4374.42  4380.62  4381.25  4387.43  4392.77
                             4405.98  4438.54  4439.21  4463.33  4477.06
                             4486.39  4512.23  4529.15  4530.54  4629.54
                             4649.00  4707.63  5038.45

 Zero-point correction=                           0.286582 (Hartree/Particle)
 Thermal correction to Energy=                    0.302452
 Thermal correction to Enthalpy=                  0.303396
 Thermal correction to Gibbs Free Energy=         0.241830
 Sum of electronic and zero-point Energies=          -1281.505473
 Sum of electronic and thermal Energies=             -1281.489602
 Sum of electronic and thermal Enthalpies=           -1281.488658
 Sum of electronic and thermal Free Energies=        -1281.550225

                     E (Thermal)             CV                S
                      KCal/Mol        Cal/Mol-Kelvin    Cal/Mol-Kelvin
 Total                  189.792             59.357            129.578
 Electronic               0.000              0.000              0.000
 Translational            0.889              2.981             42.189
 Rotational               0.889              2.981             32.539
 Vibrational            188.014             53.396             54.849
 Vibration     1          0.593              1.984              6.049
 Vibration     2          0.594              1.982              5.472
 Vibration     3          0.596              1.975              4.559
 Vibration     4          0.597              1.972              4.340
 Vibration     5          0.600              1.961              3.818
 Vibration     6          0.602              1.955              3.621
 Vibration     7          0.613              1.920              2.893
 Vibration     8          0.618              1.904              2.690
 Vibration     9          0.643              1.822              2.025
 Vibration    10          0.658              1.777              1.791
 Vibration    11          0.669              1.745              1.658
 Vibration    12          0.687              1.688              1.462
 Vibration    13          0.700              1.653              1.357
 Vibration    14          0.708              1.630              1.297
 Vibration    15          0.712              1.618              1.266
 Vibration    16          0.727              1.574              1.164
 Vibration    17          0.731              1.564              1.141
 Vibration    18          0.786              1.419              0.880
 Vibration    19          0.808              1.364              0.800
 Vibration    20          0.865              1.228              0.633
 Vibration    21          0.879              1.196              0.600
 Vibration    22          0.926              1.097              0.505
 Vibration    23          0.938              1.073              0.484
 Vibration    24          0.980              0.990              0.416

                           ! Non-Optimized Parameters !
 Normal termination of Gaussian 16 at Thu Dec 10 09:39:09 2020.

 ----------------------------------------------------------------------
 # B3LYP/6-311++G(d,p) empiricaldispersion=gd3bj scf=xqc pop=npa geom=c
 heck
 ----------------------------------------------------------------------

 --------------------------------------
 CID_62579301_JID_4280_Energie_neutraal
 --------------------------------------
 Structure from the checkpoint file:  "JID_4280.chk"
 Charge =  0 Multiplicity = 1

 SCF Done:  E(RB3LYP) =  -1281.98151268     A.U. after   15 cycles
 Normal termination of Gaussian 16 at Thu Dec 10 09:45:22 2020.

 ----------------------------------------------------------------------
 # B3LYP/6-311++G(d,p) empiricaldispersion=gd3bj scf=xqc pop=npa geom=c
 heck
 ----------------------------------------------------------------------

 ------------------------------------
 CID_62579301_JID_4280_Energie_kation
 ------------------------------------
 Structure from the checkpoint file:  "JID_4280.chk"
 Charge =  1 Multiplicity = 2

 SCF Done:  E(UB3LYP) =  -1281.70168742     A.U. after   23 cycles
 Normal termination of Gaussian 16 at Thu Dec 10 09:58:44 2020.
 Gaussian 16:  ES64L-G16RevA.03 25-Dec-2016

 ----------------------------------------------------------------------
 # B3LYP/6-311++G(d,p) empiricaldispersion=gd3bj scf=xqc pop=npa geom=c
 heck
 ----------------------------------------------------------------------

 -----------------------------------
 CID_62579301_JID_4280_Energie_anion
 -----------------------------------
 Structure from the checkpoint file:  "JID_4280.chk"
 Charge = -1 Multiplicity = 2

                         Standard orientation:
 ---------------------------------------------------------------------
 Center     Atomic      Atomic             Coordinates (Angstroms)
 Number     Number       Type             X           Y           Z
 ---------------------------------------------------------------------
      1          6           0        2.943758   -0.799285    1.655497
      2          6           0        2.360505   -1.524595    0.445806
      3          6           0        0.969193   -2.096640    0.727196
      4         16           0        2.389009   -0.521177   -1.135227
      5          6           0        2.586664    1.248336   -0.665603
      6          6           0        1.284237    2.017950   -0.462452
      7          7           0        0.558359    1.519596    0.698574
      8          6           0       -0.690900    2.212573    0.985640
      9          6           0       -1.808984    2.039314   -0.076744
     10          6           0       -2.101631    0.595499   -0.354628
     11          6           0       -1.664601   -0.174239   -1.400818
     12          6           0       -2.048760   -1.547779   -1.302610
     13          6           0       -2.765797   -1.816540   -0.171593
     14         16           0       -2.985350   -0.388122    0.794403
     15          1           0        2.329039    0.062651    1.933338
     16          1           0        3.967320   -0.458179    1.469257
     17          1           0        2.970009   -1.489688    2.507363
     18          1           0        3.023795   -2.358285    0.189594
     19          1           0        0.261679   -1.325805    1.047951
     20          1           0        0.546766   -2.581417   -0.156324
     21          1           0        1.032370   -2.840476    1.532361
     22          1           0        3.219364    1.324948    0.220806
     23          1           0        3.138833    1.682543   -1.505294
     24          1           0        1.530728    3.073743   -0.280383
     25          1           0        0.703790    1.981821   -1.401108
     26          1           0        0.339997    0.539956    0.523801
     27          1           0       -1.063589    1.841235    1.947999
     28          1           0       -0.476269    3.280702    1.114153
     29          1           0       -2.708168    2.565763    0.267377
     30          1           0       -1.508625    2.513465   -1.017640
     31          1           0       -1.072948    0.228160   -2.215554
     32          1           0       -1.797166   -2.298007   -2.043949
     33          1           0       -3.186083   -2.759086    0.151274
 ---------------------------------------------------------------------

 SCF Done:  E(UB3LYP) =  -1281.96692205     A.U. after   33 cycles
 SCF Done:  E(UB3LYP) =  -1281.96692205     a.u. after    1 cycles

 The electronic state is 2-A.
 Alpha  occ. eigenvalues --  -88.77085 -88.73418 -14.19515 -10.11127 -10.09811
 Alpha  occ. eigenvalues --  -10.09811 -10.09389 -10.09364 -10.09336 -10.07710
 Alpha  occ. eigenvalues --  -10.07537 -10.06943 -10.06922 -10.06603  -7.85718
 Alpha  occ. eigenvalues --   -7.82033  -5.81998  -5.81638  -5.81328  -5.78435
 Alpha  occ. eigenvalues --   -5.78046  -5.77409  -0.81251  -0.77775  -0.72143
 Alpha  occ. eigenvalues --   -0.68384  -0.65940  -0.63157  -0.60405  -0.59613
 Alpha  occ. eigenvalues --   -0.57782  -0.52578  -0.50570  -0.45993  -0.45516
 Alpha  occ. eigenvalues --   -0.43212  -0.40369  -0.39388  -0.38269  -0.36104
 Alpha  occ. eigenvalues --   -0.35418  -0.33881  -0.32473  -0.32054  -0.31230
 Alpha  occ. eigenvalues --   -0.30475  -0.29955  -0.29112  -0.28079  -0.27266
 Alpha  occ. eigenvalues --   -0.26829  -0.26181  -0.25682  -0.25242  -0.25055
 Alpha  occ. eigenvalues --   -0.23484  -0.23360  -0.19722  -0.15436  -0.13837
 Alpha  occ. eigenvalues --   -0.13041  -0.12100   0.04449
 Alpha virt. eigenvalues --    0.06114   0.06594   0.07367   0.07839   0.08220
 Alpha virt. eigenvalues --    0.08975   0.09068   0.09390   0.09796   0.10703
 Alpha virt. eigenvalues --    0.11381   0.11625   0.11916   0.12237   0.12656

  Beta  occ. eigenvalues --  -88.77072 -88.73417 -14.19509 -10.11119 -10.09794
  Beta  occ. eigenvalues --  -10.09737 -10.09342 -10.09317 -10.09311 -10.07697
  Beta  occ. eigenvalues --  -10.07535 -10.06928 -10.06906 -10.06593  -7.85706
  Beta  occ. eigenvalues --   -7.82031  -5.81992  -5.81633  -5.81291  -5.78432
  Beta  occ. eigenvalues --   -5.78045  -5.77408  -0.81231  -0.77692  -0.72122
  Beta  occ. eigenvalues --   -0.68326  -0.65874  -0.63092  -0.60332  -0.59587
  Beta  occ. eigenvalues --   -0.57736  -0.52523  -0.50510  -0.45911  -0.45482
  Beta  occ. eigenvalues --   -0.43113  -0.40307  -0.39354  -0.38232  -0.36068
  Beta  occ. eigenvalues --   -0.35382  -0.33820  -0.32420  -0.32007  -0.31180
  Beta  occ. eigenvalues --   -0.30439  -0.29915  -0.29065  -0.28034  -0.27221
  Beta  occ. eigenvalues --   -0.26711  -0.26142  -0.25637  -0.25200  -0.24999
  Beta  occ. eigenvalues --   -0.23439  -0.23320  -0.19706  -0.15271  -0.13623
  Beta  occ. eigenvalues --   -0.12927  -0.12023
  Beta virt. eigenvalues --    0.06377   0.07106   0.07165   0.07928   0.08238
  Beta virt. eigenvalues --    0.08611   0.09287   0.09406   0.09767   0.10223
  Beta virt. eigenvalues --    0.10890   0.11601   0.11952   0.12293   0.12416

 Mulliken charges and spin densities:
               1          2
     1  C    0.370642  -1.013010
     2  C   -0.489931   0.433650
     3  C   -0.260556  -0.200451
     4  S    0.524979  -0.437121
     5  C   -0.002723  -0.437601
     6  C   -0.065711  -0.412027
     7  N    0.007004   0.040863
     8  C   -0.072678  -0.317073
     9  C    1.306312  -1.719489
    10  C   -0.656227   0.730194
    11  C   -0.933015   1.057178
    12  C    1.285750  -1.790730
    13  C   -0.833559   0.639977
    14  S    0.459555  -0.374550
    15  H    0.072162   0.137563
    16  H   -0.098752   0.246082
    17  H    0.050514   0.076155
    18  H    0.005846   0.250419
    19  H    0.005542   0.121018
    20  H    0.090488   0.004860
    21  H   -0.248463   0.390664
    22  H    0.244329  -0.079163
    23  H   -0.364757   0.625726
    24  H   -0.644208   0.816014
    25  H    0.198062  -0.158425
    26  H    0.395715  -0.214685
    27  H    0.060731   0.104077
    28  H   -0.335740   0.481778
    29  H   -0.549091   0.738947
    30  H   -0.179934   0.355779
    31  H   -0.154558   0.327014
    32  H    0.044851   0.105844
    33  H   -0.232577   0.470524
 Sum of Mulliken charges =  -1.00000   1.00000

 Dipole moment (field-independent basis, Debye):
    X=             -0.0463    Y=             -4.0933    Z=              0.4254  Tot=              4.1156
 Quadrupole moment (field-independent basis, Debye-Ang):
   XX=           -162.5172   YY=           -163.5517   ZZ=           -137.2513
   XY=              2.8028   XZ=              0.2411   YZ=              3.1305

 Summary of Natural Population Analysis:

                                       Natural Population
                Natural  -----------------------------------------------
    Atom  No    Charge         Core      Valence    Rydberg      Total
 -----------------------------------------------------------------------
      C    1   -0.29836      0.99963     2.29252    0.00622     3.29836
      C    2   -0.16233      0.99958     2.15015    0.01260     3.16233
      C    3   -0.28753      0.99962     2.28015    0.00775     3.28753
      S    4    0.07375      4.99962     2.91122    0.01541     7.92625
      C    5   -0.25244      0.99958     2.24128    0.01159     3.25244
      C    6   -0.09204      0.99960     2.07987    0.01257     3.09204
      N    7   -0.35351      0.99974     2.84166    0.01211     3.85351
      C    8   -0.07885      0.99962     2.06708    0.01215     3.07885
      C    9   -0.21841      0.99957     2.20771    0.01113     3.21841
      C   10   -0.08877      0.99949     2.07490    0.01438     3.08877
      C   11   -0.12977      0.99944     2.11992    0.01041     3.12977
      C   12   -0.12851      0.99953     2.11808    0.01090     3.12851
      C   13   -0.18694      0.99953     2.17670    0.01071     3.18694
      S   14    0.19627      4.99940     2.78510    0.01924     7.80373
      H   15    0.11176      0.00000     0.38673    0.00151     0.38824
      H   16    0.10036      0.00000     0.39866    0.00097     0.39964
      H   17    0.10137      0.00000     0.39758    0.00105     0.39863
      H   18    0.09778      0.00000     0.40089    0.00133     0.40222
      H   19    0.09813      0.00000     0.40027    0.00160     0.40187
      H   20    0.10503      0.00000     0.39373    0.00125     0.39497
      H   21    0.09748      0.00000     0.40128    0.00124     0.40252
      H   22    0.10590      0.00000     0.39252    0.00158     0.39410
      H   23    0.10771      0.00000     0.39108    0.00121     0.39229
      H   24    0.09647      0.00000     0.40146    0.00206     0.40353
      H   25    0.08101      0.00000     0.41701    0.00198     0.41899
      H   26    0.17826      0.00000     0.31578    0.00595     0.32174
      H   27    0.09135      0.00000     0.40744    0.00121     0.40865
      H   28    0.09649      0.00000     0.40175    0.00176     0.40351
      H   29    0.10861      0.00000     0.38931    0.00207     0.39139
      H   30    0.10783      0.00000     0.39047    0.00169     0.39217
      H   31    0.10971      0.00000     0.38891    0.00137     0.39029
      H   32    0.10509      0.00000     0.39398    0.00093     0.39491
      H   33    0.10710      0.00000     0.39194    0.00096     0.39290
 =======================================================================
   * Total *   -0.00000     21.99394    39.80714    0.19892    62.00000

 Normal termination of Gaussian 16 at Thu Dec 10 10:18:21 2020.
