 Gaussian 16, Revision A.03,

 -----------------------------------------------------------
 # opt freq B3LYP/6-31G(d) empiricaldispersion=gd3bj scf=xqc
 -----------------------------------------------------------

 ------------------------------
 CID_65615349_JID_6936_neutraal
 ------------------------------
 Symbolic Z-matrix:
 Charge =  0 Multiplicity = 1

 SCF Done:  E(RB3LYP) =  -1062.08787506     A.U. after   15 cycles
 SCF Done:  E(RB3LYP) =  -1062.09139034     A.U. after   12 cycles
 SCF Done:  E(RB3LYP) =  -1062.09194957     A.U. after   12 cycles
 SCF Done:  E(RB3LYP) =  -1062.09214963     A.U. after   12 cycles
 SCF Done:  E(RB3LYP) =  -1062.09222066     A.U. after   11 cycles
 SCF Done:  E(RB3LYP) =  -1062.09223991     A.U. after   11 cycles
 SCF Done:  E(RB3LYP) =  -1062.09225229     A.U. after   10 cycles
 SCF Done:  E(RB3LYP) =  -1062.09226077     A.U. after   10 cycles
 SCF Done:  E(RB3LYP) =  -1062.09226739     A.U. after   10 cycles
 SCF Done:  E(RB3LYP) =  -1062.09227603     A.U. after   11 cycles
 SCF Done:  E(RB3LYP) =  -1062.10120981     A.U. after    9 cycles
 SCF Done:  E(RB3LYP) =  -1062.10121053     A.U. after    9 cycles
 SCF Done:  E(RB3LYP) =  -1062.10121097     A.U. after    8 cycles
 SCF Done:  E(RB3LYP) =  -1062.10121105     A.U. after    9 cycles
 SCF Done:  E(RB3LYP) =  -1062.10121106     A.U. after    7 cycles
 Optimization completed.
    -- Stationary point found.
 Normal termination of Gaussian 16 at Fri Dec 11 01:49:13 2020.

 --------------------------------------------------------------------
 #N Geom=AllCheck Guess=TCheck SCRF=Check GenChk RB3LYP/6-31G(d) Freq
 --------------------------------------------------------------------

 Structure from the checkpoint file:  "JID_6936.chk"
 ------------------------------
 CID_65615349_JID_6936_neutraal
 ------------------------------
 Charge =  0 Multiplicity = 1

 SCF Done:  E(RB3LYP) =  -1062.10121106     A.U. after    1 cycles

  Exact polarizability: 157.606  16.686 137.896  17.597 -12.553 129.415
 Approx polarizability: 225.377  34.799 224.564  33.285 -35.993 227.940

                      1                      2                      3
                      A                      A                      A
 Frequencies --     23.7842                37.5854                51.1622
 Red. masses --      4.8258                 4.7990                 1.8911
 Frc consts  --      0.0016                 0.0040                 0.0029
 IR Inten    --      1.4327                 0.3756                 0.4503

                      4                      5                      6
                      A                      A                      A
 Frequencies --     90.8206                98.5025               108.8088
 Red. masses --      4.1687                 2.2181                 2.7819
 Frc consts  --      0.0203                 0.0127                 0.0194
 IR Inten    --      0.4726                 0.7537                 0.7298

                      7                      8                      9
                      A                      A                      A
 Frequencies --    132.4553               140.3079               197.5067
 Red. masses --      1.0827                 4.2353                 4.7836
 Frc consts  --      0.0112                 0.0491                 0.1099
 IR Inten    --      0.1318                 2.7933                 4.4448

                     10                     11                     12
                      A                      A                      A
 Frequencies --    219.0194               242.7381               266.7777
 Red. masses --      3.6388                 3.6268                 3.8978
 Frc consts  --      0.1028                 0.1259                 0.1634
 IR Inten    --      1.0347                 2.1734                 1.4660

                     13                     14                     15
                      A                      A                      A
 Frequencies --    275.7331               321.9284               338.1323
 Red. masses --      2.8283                 3.2026                 3.2024
 Frc consts  --      0.1267                 0.1956                 0.2157
 IR Inten    --      2.5369                 5.0788                10.9067

                     16                     17                     18
                      A                      A                      A
 Frequencies --    361.0465               386.2545               420.0202
 Red. masses --      1.3460                 2.3099                 3.3117
 Frc consts  --      0.1034                 0.2030                 0.3442
 IR Inten    --     29.5047                12.6977                 4.2815

                     19                     20                     21
                      A                      A                      A
 Frequencies --    447.1675               520.4283               547.2456
 Red. masses --      2.1584                 3.4341                 3.7668
 Frc consts  --      0.2543                 0.5480                 0.6646
 IR Inten    --      3.2744                 1.2138                 1.4861

                     22                     23                     24
                      A                      A                      A
 Frequencies --    561.0177               637.4695               650.4401
 Red. masses --      6.9261                 5.2251                 5.1261
 Frc consts  --      1.2844                 1.2510                 1.2778
 IR Inten    --      1.7902                 1.2809                 0.7388

                     25                     26                     27
                      A                      A                      A
 Frequencies --    666.8700               680.1485               719.9080
 Red. masses --      5.5227                 4.2369                 4.4507
 Frc consts  --      1.4471                 1.1548                 1.3590
 IR Inten    --      4.7390                 9.5562                 7.8833

                     28                     29                     30
                      A                      A                      A
 Frequencies --    743.8656               768.3997               801.6583
 Red. masses --      1.2378                 5.3843                 4.4225
 Frc consts  --      0.4036                 1.8731                 1.6745
 IR Inten    --     30.2833                18.2718                 6.4555

                     31                     32                     33
                      A                      A                      A
 Frequencies --    828.7441               863.4015               890.7412
 Red. masses --      2.7764                 4.1918                 1.3743
 Frc consts  --      1.1235                 1.8411                 0.6425
 IR Inten    --      0.5905                 6.1542                 5.9412

                     34                     35                     36
                      A                      A                      A
 Frequencies --    929.9231               943.7002               983.6248
 Red. masses --      1.9169                 1.8680                 2.1744
 Frc consts  --      0.9767                 0.9802                 1.2395
 IR Inten    --      5.9429               164.3111                28.2908

                     37                     38                     39
                      A                      A                      A
 Frequencies --    998.0246              1000.3719              1025.8680
 Red. masses --      5.5369                 4.6480                 1.5148
 Frc consts  --      3.2493                 2.7406                 0.9393
 IR Inten    --      9.9512                 5.6958                10.4539

                     40                     41                     42
                      A                      A                      A
 Frequencies --   1033.4837              1064.3225              1079.0361
 Red. masses --      2.2148                 2.8106                 1.5049
 Frc consts  --      1.3938                 1.8758                 1.0323
 IR Inten    --      8.7388                38.6683                 2.9704

                     43                     44                     45
                      A                      A                      A
 Frequencies --   1107.7968              1122.7437              1161.7883
 Red. masses --      1.8375                 2.0672                 1.3245
 Frc consts  --      1.3286                 1.5353                 1.0533
 IR Inten    --     44.6038                48.1808                 4.5017

                     46                     47                     48
                      A                      A                      A
 Frequencies --   1180.8863              1185.2135              1210.6585
 Red. masses --      1.4671                 1.6072                 1.3442
 Frc consts  --      1.2054                 1.3302                 1.1608
 IR Inten    --     14.2295                23.1469                 1.8106

                     49                     50                     51
                      A                      A                      A
 Frequencies --   1224.9423              1242.9278              1270.8107
 Red. masses --      2.4464                 1.5397                 1.3742
 Frc consts  --      2.1628                 1.4014                 1.3076
 IR Inten    --     15.2004                 6.2145                 8.8134

                     52                     53                     54
                      A                      A                      A
 Frequencies --   1308.4761              1321.0783              1336.5573
 Red. masses --      3.2765                 2.8440                 1.8739
 Frc consts  --      3.3052                 2.9244                 1.9723
 IR Inten    --     10.7110                15.0755                35.0458

                     55                     56                     57
                      A                      A                      A
 Frequencies --   1349.0993              1382.4621              1404.5093
 Red. masses --      4.1064                 1.4932                 1.4003
 Frc consts  --      4.4035                 1.6814                 1.6275
 IR Inten    --     13.4027                10.0673                17.0623

                     58                     59                     60
                      A                      A                      A
 Frequencies --   1435.7970              1441.8307              1442.8253
 Red. masses --      2.2186                 1.8772                 1.2988
 Frc consts  --      2.6948                 2.2993                 1.5930
 IR Inten    --     30.7252                 5.7660                 3.2487

                     61                     62                     63
                      A                      A                      A
 Frequencies --   1474.9221              1499.6173              1503.0732
 Red. masses --      1.3687                 1.1491                 1.0940
 Frc consts  --      1.7543                 1.5225                 1.4562
 IR Inten    --      3.3468                 8.9726                 1.2454

                     64                     65                     66
                      A                      A                      A
 Frequencies --   1505.6297              1509.3618              1512.3481
 Red. masses --      1.0558                 1.2995                 1.1893
 Frc consts  --      1.4102                 1.7443                 1.6026
 IR Inten    --      4.3276                34.2584                 9.9806

                     67                     68                     69
                      A                      A                      A
 Frequencies --   1524.4992              1548.4173              1559.2708
 Red. masses --      1.3423                 2.2669                 4.8753
 Frc consts  --      1.8380                 3.2022                 6.9838
 IR Inten    --      8.6356                31.2270                 5.7526

                     70                     71                     72
                      A                      A                      A
 Frequencies --   1568.2149              1596.3131              1716.5903
 Red. masses --      2.8802                 4.8944                 1.0861
 Frc consts  --      4.1733                 7.3483                 1.8856
 IR Inten    --     17.1961                33.9274                19.6453

                     73                     74                     75
                      A                      A                      A
 Frequencies --   3052.3698              3059.6252              3064.5833
 Red. masses --      1.0371                 1.0605                 1.0698
 Frc consts  --      5.6929                 5.8493                 5.9195
 IR Inten    --     24.1893                 8.4313                15.4910

                     76                     77                     78
                      A                      A                      A
 Frequencies --   3078.5217              3089.5303              3097.6981
 Red. masses --      1.0881                 1.0338                 1.0992
 Frc consts  --      6.0757                 5.8141                 6.2145
 IR Inten    --     16.0996                19.0475                24.1047

                     79                     80                     81
                      A                      A                      A
 Frequencies --   3107.0080              3140.7204              3147.2304
 Red. masses --      1.1009                 1.1017                 1.0936
 Frc consts  --      6.2616                 6.4028                 6.3821
 IR Inten    --     16.5429                14.9282                10.8804

                     82                     83                     84
                      A                      A                      A
 Frequencies --   3161.5759              3192.1048              3273.9935
 Red. masses --      1.1049                 1.1034                 1.0970
 Frc consts  --      6.5069                 6.6245                 6.9284
 IR Inten    --      8.0483                 6.9943                 9.3394

                     85                     86                     87
                      A                      A                      A
 Frequencies --   3274.5658              3440.3373              3529.8816
 Red. masses --      1.0947                 1.0515                 1.0902
 Frc consts  --      6.9159                 7.3328                 8.0031
 IR Inten    --      1.4067                13.8289                 7.2473

 - Thermochemistry -
 -------------------
 Temperature   298.150 Kelvin.  Pressure   1.00000 Atm.
 Atom     1 has atomic number  6 and mass  12.00000

 Molecular mass:   237.10482 amu.
 Principal axes and moments of inertia in atomic units:
                           1         2         3
     Eigenvalues --  2538.092384830.487865607.71490
           X            0.99935   0.02753   0.02319
           Y           -0.02781   0.99954   0.01187
           Z           -0.02286  -0.01251   0.99966
 This molecule is an asymmetric top.
 Rotational symmetry number  1.
 Warning -- assumption of classical behavior for rotation
           may cause significant error
 Rotational temperatures (Kelvin)      0.03413     0.01793     0.01545
 Rotational constants (GHZ):           0.71106     0.37361     0.32183
 Zero-point vibrational energy     672641.3 (Joules/Mol)
                                  160.76514 (Kcal/Mol)
 Warning -- explicit consideration of  22 degrees of freedom as
           vibrations may cause significant error
 Vibrational temperatures:     34.22    54.08    73.61   130.67   141.72
          (Kelvin)            156.55   190.57   201.87   284.17   315.12
                              349.25   383.83   396.72   463.18   486.50
                              519.47   555.73   604.32   643.37   748.78
                              787.36   807.18   917.18   935.84   959.48
                              978.58  1035.79  1070.26  1105.56  1153.41
                             1192.38  1242.24  1281.58  1337.95  1357.77
                             1415.22  1435.93  1439.31  1476.00  1486.95
                             1531.32  1552.49  1593.87  1615.38  1671.55
                             1699.03  1705.26  1741.87  1762.42  1788.30
                             1828.41  1882.61  1900.74  1923.01  1941.05
                             1989.05  2020.78  2065.79  2074.47  2075.90
                             2122.08  2157.61  2162.59  2166.27  2171.63
                             2175.93  2193.41  2227.83  2243.44  2256.31
                             2296.74  2469.79  4391.68  4402.12  4409.25
                             4429.31  4445.14  4456.90  4470.29  4518.80
                             4528.16  4548.80  4592.73  4710.55  4711.37
                             4949.88  5078.71

 Zero-point correction=                           0.256196 (Hartree/Particle)
 Thermal correction to Energy=                    0.271935
 Thermal correction to Enthalpy=                  0.272879
 Thermal correction to Gibbs Free Energy=         0.211579
 Sum of electronic and zero-point Energies=          -1061.845016
 Sum of electronic and thermal Energies=             -1061.829276
 Sum of electronic and thermal Enthalpies=           -1061.828332
 Sum of electronic and thermal Free Energies=        -1061.889632

                     E (Thermal)             CV                S
                      KCal/Mol        Cal/Mol-Kelvin    Cal/Mol-Kelvin
 Total                  170.642             58.321            129.016
 Electronic               0.000              0.000              0.000
 Translational            0.889              2.981             42.291
 Rotational               0.889              2.981             32.597
 Vibrational            168.864             52.360             54.128
 Vibration     1          0.593              1.985              6.290
 Vibration     2          0.594              1.982              5.382
 Vibration     3          0.595              1.977              4.772
 Vibration     4          0.602              1.956              3.642
 Vibration     5          0.604              1.950              3.484
 Vibration     6          0.606              1.942              3.290
 Vibration     7          0.613              1.921              2.910
 Vibration     8          0.615              1.913              2.800
 Vibration     9          0.637              1.843              2.156
 Vibration    10          0.647              1.812              1.967
 Vibration    11          0.659              1.775              1.783
 Vibration    12          0.672              1.734              1.617
 Vibration    13          0.677              1.718              1.560
 Vibration    14          0.707              1.632              1.300
 Vibration    15          0.718              1.599              1.221
 Vibration    16          0.735              1.553              1.118
 Vibration    17          0.755              1.500              1.015
 Vibration    18          0.783              1.427              0.892
 Vibration    19          0.806              1.367              0.804
 Vibration    20          0.875              1.205              0.609
 Vibration    21          0.902              1.146              0.550
 Vibration    22          0.917              1.116              0.522

 Optimization completed.
    -- Stationary point found.
 Normal termination of Gaussian 16 at Fri Dec 11 02:00:33 2020.

 ----------------------------------------------------------------------
 # B3LYP/6-311++G(d,p) empiricaldispersion=gd3bj scf=xqc pop=npa geom=c
 heck
 ----------------------------------------------------------------------

 --------------------------------------
 CID_65615349_JID_6936_Energie_neutraal
 --------------------------------------
 Structure from the checkpoint file:  "JID_6936.chk"
 Charge =  0 Multiplicity = 1

 SCF Done:  E(RB3LYP) =  -1062.31112591     A.U. after   16 cycles
 Normal termination of Gaussian 16 at Fri Dec 11 02:05:20 2020.

 ----------------------------------------------------------------------
 # B3LYP/6-311++G(d,p) empiricaldispersion=gd3bj scf=xqc pop=npa geom=c
 heck
 ----------------------------------------------------------------------

 ------------------------------------
 CID_65615349_JID_6936_Energie_kation
 ------------------------------------
 Structure from the checkpoint file:  "JID_6936.chk"
 Charge =  1 Multiplicity = 2

 SCF Done:  E(UB3LYP) =  -1062.00722990     A.U. after   28 cycles
 Normal termination of Gaussian 16 at Fri Dec 11 02:16:33 2020.
 Gaussian 16:  ES64L-G16RevA.03 25-Dec-2016

 ----------------------------------------------------------------------
 # B3LYP/6-311++G(d,p) empiricaldispersion=gd3bj scf=xqc pop=npa geom=c
 heck
 ----------------------------------------------------------------------

 -----------------------------------
 CID_65615349_JID_6936_Energie_anion
 -----------------------------------
 Structure from the checkpoint file:  "JID_6936.chk"
 Charge = -1 Multiplicity = 2

                         Standard orientation:
 ---------------------------------------------------------------------
 Center     Atomic      Atomic             Coordinates (Angstroms)
 Number     Number       Type             X           Y           Z
 ---------------------------------------------------------------------
      1          6           0        3.751179    0.065355    1.657963
      2          6           0        2.850334   -0.003502    0.462557
      3          6           0        2.998017    0.695603   -0.702022
      4         16           0        1.716616    0.310637   -1.809303
      5          6           0        1.057341   -0.794918   -0.604872
      6          7           0        1.746543   -0.840103    0.499350
      7          6           0       -0.179656   -1.593438   -0.890638
      8          6           0       -0.955694   -2.053386    0.356366
      9          6           0       -1.271167   -0.878975    1.329292
     10          6           0       -1.904598    0.271766    0.621274
     11          7           0       -3.038431    0.203784   -0.079630
     12          6           0       -3.158051    1.454290   -0.603847
     13          7           0       -2.187208    2.294127   -0.280629
     14          7           0       -1.385849    1.521368    0.507131
     15          6           0       -0.159473    2.088533    1.038332
     16          7           0       -2.135878   -2.774248   -0.120868
     17          1           0        3.193693    0.380761    2.547778
     18          1           0        4.178634   -0.919550    1.877775
     19          1           0        4.570891    0.770472    1.495388
     20          1           0        3.775014    1.400200   -0.963493
     21          1           0       -0.849411   -1.008270   -1.531717
     22          1           0        0.082494   -2.490170   -1.464800
     23          1           0       -0.326577   -2.758677    0.909588
     24          1           0       -1.957180   -1.252258    2.098797
     25          1           0       -0.350312   -0.570941    1.826519
     26          1           0       -3.983910    1.756257   -1.233454
     27          1           0        0.602865    2.149036    0.257449
     28          1           0       -0.376476    3.089254    1.415741
     29          1           0        0.209649    1.461223    1.848864
     30          1           0       -2.590184   -3.233644    0.667381
     31          1           0       -2.808672   -2.086351   -0.466889
 ---------------------------------------------------------------------

 SCF Done:  E(UB3LYP) =  -1062.30150735     A.U. after   33 cycles
 SCF Done:  E(UB3LYP) =  -1062.30150735     a.u. after    1 cycles

 The electronic state is 2-A.
 Alpha  occ. eigenvalues --  -88.77095 -14.30723 -14.24527 -14.21298 -14.20401
 Alpha  occ. eigenvalues --  -14.19607 -10.15157 -10.12936 -10.12890 -10.11682
 Alpha  occ. eigenvalues --  -10.11329 -10.10227 -10.08688 -10.08640 -10.08403
 Alpha  occ. eigenvalues --  -10.06372  -7.85740  -5.82004  -5.81664  -5.81362
 Alpha  occ. eigenvalues --   -0.98671  -0.85855  -0.81588  -0.79880  -0.75616
 Alpha  occ. eigenvalues --   -0.69348  -0.68911  -0.66001  -0.63522  -0.61695
 Alpha  occ. eigenvalues --   -0.56539  -0.53576  -0.51482  -0.48473  -0.47560
 Alpha  occ. eigenvalues --   -0.43715  -0.42086  -0.40932  -0.39399  -0.37429
 Alpha  occ. eigenvalues --   -0.36303  -0.35406  -0.34688  -0.33918  -0.33333
 Alpha  occ. eigenvalues --   -0.32032  -0.31690  -0.31315  -0.30895  -0.29421
 Alpha  occ. eigenvalues --   -0.27778  -0.27263  -0.25918  -0.25756  -0.25160
 Alpha  occ. eigenvalues --   -0.23549  -0.19857  -0.19455  -0.17929  -0.17439
 Alpha  occ. eigenvalues --   -0.17147  -0.15070  -0.13317   0.04315
 Alpha virt. eigenvalues --    0.06452   0.06638   0.07733   0.07920   0.08537
 Alpha virt. eigenvalues --    0.08892   0.09210   0.09892   0.09980   0.10629
 Alpha virt. eigenvalues --    0.11100   0.11357   0.12305   0.12590   0.13207

  Beta  occ. eigenvalues --  -88.77078 -14.30707 -14.24517 -14.21293 -14.20385
  Beta  occ. eigenvalues --  -14.19596 -10.15145 -10.12938 -10.12749 -10.11657
  Beta  occ. eigenvalues --  -10.11318 -10.10217 -10.08625 -10.08598 -10.08414
  Beta  occ. eigenvalues --  -10.06328  -7.85724  -5.81986  -5.81657  -5.81313
  Beta  occ. eigenvalues --   -0.98650  -0.85744  -0.81569  -0.79860  -0.75590
  Beta  occ. eigenvalues --   -0.69245  -0.68797  -0.65949  -0.63480  -0.61653
  Beta  occ. eigenvalues --   -0.56420  -0.53564  -0.51434  -0.48368  -0.47481
  Beta  occ. eigenvalues --   -0.43651  -0.41999  -0.40864  -0.39351  -0.37344
  Beta  occ. eigenvalues --   -0.36277  -0.35349  -0.34594  -0.33851  -0.33250
  Beta  occ. eigenvalues --   -0.31997  -0.31629  -0.31250  -0.30831  -0.29344
  Beta  occ. eigenvalues --   -0.27678  -0.27174  -0.25835  -0.25695  -0.25048
  Beta  occ. eigenvalues --   -0.23524  -0.19802  -0.19440  -0.17681  -0.17370
  Beta  occ. eigenvalues --   -0.17103  -0.15047  -0.12906
  Beta virt. eigenvalues --    0.06691   0.07383   0.07527   0.07824   0.08444
  Beta virt. eigenvalues --    0.08955   0.09072   0.09493   0.10236   0.10291
  Beta virt. eigenvalues --    0.11032   0.11264   0.11581   0.12382   0.12850

 Mulliken charges and spin densities:
               1          2
     1  C    2.849090  -3.323163
     2  C   -1.450594   1.246229
     3  C   -0.382514   0.063923
     4  S    0.511080  -0.588827
     5  C   -1.059163   0.782695
     6  N   -0.100097   0.138676
     7  C    0.830017  -0.595044
     8  C    0.355701  -0.591605
     9  C    0.366385  -1.075259
    10  C   -1.145664   0.966389
    11  N   -0.140472   0.034714
    12  C    0.003232   0.089320
    13  N   -0.123076   0.002764
    14  N    0.096849   0.025694
    15  C    0.337178  -0.656225
    16  N   -0.377687   0.075814
    17  H   -0.250545   0.407323
    18  H   -0.142289   0.299437
    19  H   -0.490365   0.646017
    20  H   -1.046900   1.290847
    21  H    0.184975  -0.020509
    22  H    0.072102   0.173560
    23  H   -0.064844   0.320074
    24  H   -0.327097   0.559260
    25  H    0.264038  -0.176246
    26  H    0.139711   0.011197
    27  H    0.062887   0.118863
    28  H   -0.156596   0.343916
    29  H   -0.210236   0.355454
    30  H    0.142216   0.078120
    31  H    0.252678  -0.003406
 Sum of Mulliken charges =  -1.00000   1.00000

 Dipole moment (field-independent basis, Debye):
    X=             -5.9058    Y=             -0.9247    Z=             -2.8757  Tot=              6.6335
 Quadrupole moment (field-independent basis, Debye-Ang):
   XX=           -172.5880   YY=           -151.0949   ZZ=           -138.7395
   XY=            -13.2808   XZ=             -5.1578   YZ=             -0.4367

 Summary of Natural Population Analysis:

                                       Natural Population
                Natural  -----------------------------------------------
    Atom  No    Charge         Core      Valence    Rydberg      Total
 -----------------------------------------------------------------------
      C    1   -0.29313      0.99962     2.28725    0.00625     3.29313
      C    2    0.06421      0.99948     1.92163    0.01467     2.93579
      C    3   -0.20031      0.99945     2.18973    0.01113     3.20031
      S    4    0.18448      4.99942     2.79712    0.01898     7.81552
      C    5    0.06536      0.99960     1.91646    0.01858     2.93464
      N    6   -0.26048      0.99962     2.74896    0.01190     3.76048
      C    7   -0.22188      0.99955     2.21138    0.01095     3.22188
      C    8   -0.00117      0.99961     1.98832    0.01325     3.00117
      C    9   -0.22655      0.99957     2.21680    0.01018     3.22655
      C   10    0.20633      0.99959     1.77687    0.01721     2.79367
      N   11   -0.28624      0.99969     2.77729    0.00926     3.78624
      C   12    0.08802      0.99970     1.89473    0.01755     2.91198
      N   13   -0.16146      0.99973     2.65085    0.01088     3.66146
      N   14   -0.11109      0.99960     2.59913    0.01235     3.61109
      C   15   -0.17603      0.99963     2.16800    0.00841     3.17603
      N   16   -0.42607      0.99977     2.91676    0.00954     3.92607
      H   17    0.10740      0.00000     0.39029    0.00231     0.39260
      H   18    0.10481      0.00000     0.39401    0.00118     0.39519
      H   19    0.10533      0.00000     0.39290    0.00177     0.39467
      H   20    0.11434      0.00000     0.38368    0.00197     0.38566
      H   21    0.10777      0.00000     0.39107    0.00116     0.39223
      H   22    0.11806      0.00000     0.38080    0.00114     0.38194
      H   23    0.09994      0.00000     0.39818    0.00188     0.40006
      H   24    0.11115      0.00000     0.38718    0.00166     0.38885
      H   25    0.12051      0.00000     0.37747    0.00202     0.37949
      H   26    0.08994      0.00000     0.40929    0.00078     0.41006
      H   27    0.11008      0.00000     0.38825    0.00167     0.38992
      H   28    0.10403      0.00000     0.39484    0.00113     0.39597
      H   29    0.10609      0.00000     0.39253    0.00138     0.39391
      H   30    0.17245      0.00000     0.32601    0.00154     0.32755
      H   31    0.18410      0.00000     0.31365    0.00225     0.31590
 =======================================================================
   * Total *    0.00000     19.99364    42.78142    0.22494    63.00000

 Normal termination of Gaussian 16 at Fri Dec 11 02:29:48 2020.
