 Gaussian 16, Revision A.03,

 -----------------------------------------------------------
 # opt freq B3LYP/6-31G(d) empiricaldispersion=gd3bj scf=xqc
 -----------------------------------------------------------

 -------------------------------
 CID_139304724_JID_3931_neutraal
 -------------------------------
 Symbolic Z-matrix:
 Charge =  0 Multiplicity = 1

 SCF Done:  E(RB3LYP) =  -884.770293354     A.U. after   14 cycles
 SCF Done:  E(RB3LYP) =  -884.784548861     A.U. after   13 cycles
 SCF Done:  E(RB3LYP) =  -884.785592834     A.U. after   13 cycles
 SCF Done:  E(RB3LYP) =  -884.786900472     A.U. after   12 cycles
 SCF Done:  E(RB3LYP) =  -884.787218532     A.U. after   11 cycles
 SCF Done:  E(RB3LYP) =  -884.787221275     A.U. after   11 cycles
 SCF Done:  E(RB3LYP) =  -884.787403108     A.U. after   10 cycles
 SCF Done:  E(RB3LYP) =  -884.787433980     A.U. after   10 cycles
 SCF Done:  E(RB3LYP) =  -884.787459882     A.U. after   10 cycles
 SCF Done:  E(RB3LYP) =  -884.787485839     A.U. after   11 cycles
 SCF Done:  E(RB3LYP) =  -884.787967940     A.U. after   11 cycles
 SCF Done:  E(RB3LYP) =  -884.787971393     A.U. after    9 cycles
 SCF Done:  E(RB3LYP) =  -884.787972616     A.U. after    8 cycles
 SCF Done:  E(RB3LYP) =  -884.787972857     A.U. after    7 cycles
 SCF Done:  E(RB3LYP) =  -884.787973004     A.U. after    6 cycles
 Optimization completed.
    -- Stationary point found.
 Normal termination of Gaussian 16 at Mon Dec 14 13:25:46 2020.

 --------------------------------------------------------------------
 #N Geom=AllCheck Guess=TCheck SCRF=Check GenChk RB3LYP/6-31G(d) Freq
 --------------------------------------------------------------------

 Structure from the checkpoint file:  "JID_3931.chk"
 -------------------------------
 CID_139304724_JID_3931_neutraal
 -------------------------------
 Charge =  0 Multiplicity = 1

 SCF Done:  E(RB3LYP) =  -884.787973004     A.U. after    1 cycles

  Exact polarizability: 155.128  -7.861 136.717   4.572   3.977 124.969
 Approx polarizability: 214.854 -14.415 196.719  11.939  14.589 195.560

                      1                      2                      3
                      A                      A                      A
 Frequencies --     35.7075                64.3070                89.8390
 Red. masses --      3.2865                 2.5158                 2.2647
 Frc consts  --      0.0025                 0.0061                 0.0108
 IR Inten    --      0.0752                 0.0434                 0.0776

                      4                      5                      6
                      A                      A                      A
 Frequencies --     98.4351               111.7396               141.9200
 Red. masses --      3.5575                 3.7807                 3.4333
 Frc consts  --      0.0203                 0.0278                 0.0407
 IR Inten    --      0.2034                 0.3838                 0.7114

                      7                      8                      9
                      A                      A                      A
 Frequencies --    171.8608               191.6340               217.6484
 Red. masses --      2.4819                 1.6981                 2.3839
 Frc consts  --      0.0432                 0.0367                 0.0665
 IR Inten    --      0.6831                 0.7391                 0.2301

                     10                     11                     12
                      A                      A                      A
 Frequencies --    233.8306               242.2423               244.3535
 Red. masses --      1.2012                 1.1843                 1.0784
 Frc consts  --      0.0387                 0.0409                 0.0379
 IR Inten    --      0.5625                 0.4835                 0.2034

                     13                     14                     15
                      A                      A                      A
 Frequencies --    256.1850               264.1997               277.5978
 Red. masses --      1.6280                 1.6875                 1.4175
 Frc consts  --      0.0630                 0.0694                 0.0644
 IR Inten    --      0.8664                 0.3604                 0.5658

                     16                     17                     18
                      A                      A                      A
 Frequencies --    302.3946               337.0691               352.4958
 Red. masses --      3.5265                 2.2108                 2.6289
 Frc consts  --      0.1900                 0.1480                 0.1925
 IR Inten    --      1.5713                 0.9257                 2.2736

                     19                     20                     21
                      A                      A                      A
 Frequencies --    385.3797               407.4233               434.1434
 Red. masses --      3.1771                 2.7598                 2.9769
 Frc consts  --      0.2780                 0.2699                 0.3306
 IR Inten    --      3.1474                 3.6210                 1.6712

                     22                     23                     24
                      A                      A                      A
 Frequencies --    484.9975               506.3909               536.1357
 Red. masses --      2.4858                 2.9666                 3.1448
 Frc consts  --      0.3445                 0.4482                 0.5326
 IR Inten    --      1.9858                22.7138                 1.4245

                     25                     26                     27
                      A                      A                      A
 Frequencies --    566.6240               620.0335               672.4278
 Red. masses --      3.5062                 4.8240                 2.1207
 Frc consts  --      0.6632                 1.0927                 0.5650
 IR Inten    --      5.5368                12.5653                52.0921

                     28                     29                     30
                      A                      A                      A
 Frequencies --    726.5441               767.4737               814.2425
 Red. masses --      3.5827                 1.2890                 2.0032
 Frc consts  --      1.1143                 0.4473                 0.7825
 IR Inten    --      3.0665                22.7503                12.1747

                     31                     32                     33
                      A                      A                      A
 Frequencies --    857.0298               870.4000               930.0584
 Red. masses --      1.9852                 1.4510                 1.7416
 Frc consts  --      0.8591                 0.6477                 0.8876
 IR Inten    --      1.7028                14.2716                 3.0830

                     34                     35                     36
                      A                      A                      A
 Frequencies --    944.6829               971.1134               977.2473
 Red. masses --      1.2046                 1.5413                 1.8764
 Frc consts  --      0.6334                 0.8564                 1.0558
 IR Inten    --      1.9454                 0.2124                 3.2680

                     37                     38                     39
                      A                      A                      A
 Frequencies --    988.5511              1021.9327              1032.6345
 Red. masses --      1.9974                 1.8733                 1.5128
 Frc consts  --      1.1500                 1.1527                 0.9505
 IR Inten    --     19.4815                 0.6386                37.0185

                     40                     41                     42
                      A                      A                      A
 Frequencies --   1069.6146              1080.6893              1091.5021
 Red. masses --      1.6152                 1.6508                 2.1208
 Frc consts  --      1.0887                 1.1359                 1.4887
 IR Inten    --      5.0443                 2.0041                 1.3095

                     43                     44                     45
                      A                      A                      A
 Frequencies --   1106.8790              1111.3350              1124.6870
 Red. masses --      1.9444                 1.5795                 1.9039
 Frc consts  --      1.4036                 1.1494                 1.4189
 IR Inten    --      3.9250                 2.5407                 3.6753

                     46                     47                     48
                      A                      A                      A
 Frequencies --   1151.2285              1175.1436              1192.1986
 Red. masses --      1.8820                 2.1090                 2.1204
 Frc consts  --      1.4696                 1.7159                 1.7757
 IR Inten    --      7.4327                13.3548                 8.5598

                     49                     50                     51
                      A                      A                      A
 Frequencies --   1218.4437              1242.4322              1267.6710
 Red. masses --      2.0368                 2.2270                 3.2966
 Frc consts  --      1.7816                 2.0254                 3.1213
 IR Inten    --     30.5791                 7.0194                33.5901

                     52                     53                     54
                      A                      A                      A
 Frequencies --   1306.7614              1358.3077              1378.8922
 Red. masses --      1.1827                 1.5082                 1.2919
 Frc consts  --      1.1899                 1.6395                 1.4472
 IR Inten    --      2.3026                 8.4973                 3.6809

                     55                     56                     57
                      A                      A                      A
 Frequencies --   1394.4990              1401.4431              1416.6530
 Red. masses --      1.3097                 1.4280                 1.4576
 Frc consts  --      1.5006                 1.6524                 1.7235
 IR Inten    --     20.9441                 2.6675                 1.9394

                     58                     59                     60
                      A                      A                      A
 Frequencies --   1426.1114              1434.0985              1439.4692
 Red. masses --      1.2835                 1.3943                 1.2310
 Frc consts  --      1.5379                 1.6895                 1.5028
 IR Inten    --      8.4852                 1.3890                 0.3560

                     61                     62                     63
                      A                      A                      A
 Frequencies --   1442.1594              1445.4192              1493.4352
 Red. masses --      1.2575                 1.2634                 1.1809
 Frc consts  --      1.5410                 1.5551                 1.5519
 IR Inten    --     14.7709                 2.0353                13.8915

                     64                     65                     66
                      A                      A                      A
 Frequencies --   1510.5147              1512.0046              1513.7466
 Red. masses --      1.0520                 1.0627                 1.0556
 Frc consts  --      1.4142                 1.4315                 1.4252
 IR Inten    --      3.2666                 2.6811                 3.6817

                     67                     68                     69
                      A                      A                      A
 Frequencies --   1518.5439              1521.8271              1525.5948
 Red. masses --      1.0598                 1.0640                 1.0643
 Frc consts  --      1.4399                 1.4519                 1.4594
 IR Inten    --      1.9761                 1.5773                 7.4578

                     70                     71                     72
                      A                      A                      A
 Frequencies --   1528.1601              1529.1914              1533.6840
 Red. masses --      1.0656                 1.0421                 1.0795
 Frc consts  --      1.4661                 1.4358                 1.4961
 IR Inten    --      3.1575                 4.6134                 5.5586

                     73                     74                     75
                      A                      A                      A
 Frequencies --   1535.3275              1543.0028              1728.7034
 Red. masses --      1.0586                 1.0519                 7.3333
 Frc consts  --      1.4703                 1.4755                12.9119
 IR Inten    --      4.2241                 7.3607                 0.5589

                     76                     77                     78
                      A                      A                      A
 Frequencies --   2980.1189              3003.6700              3036.2675
 Red. masses --      1.0818                 1.0691                 1.0383
 Frc consts  --      5.6606                 5.6828                 5.6397
 IR Inten    --     39.7876                27.4913                24.1183

                     79                     80                     81
                      A                      A                      A
 Frequencies --   3044.2290              3048.8335              3051.3267
 Red. masses --      1.0368                 1.0361                 1.0419
 Frc consts  --      5.6613                 5.6746                 5.7153
 IR Inten    --     26.8669                35.6925                20.4477

                     82                     83                     84
                      A                      A                      A
 Frequencies --   3058.3100              3064.7804              3085.3983
 Red. masses --      1.0358                 1.0907                 1.0997
 Frc consts  --      5.7080                 6.0359                 6.1678
 IR Inten    --     24.4225                10.0577                22.8750

                     85                     86                     87
                      A                      A                      A
 Frequencies --   3108.8568              3115.0892              3115.3376
 Red. masses --      1.0996                 1.0974                 1.1018
 Frc consts  --      6.2618                 6.2741                 6.3003
 IR Inten    --     32.0889                23.2118                37.7079

                     88                     89                     90
                      A                      A                      A
 Frequencies --   3123.5798              3124.0425              3125.8331
 Red. masses --      1.1030                 1.1018                 1.1001
 Frc consts  --      6.3405                 6.3357                 6.3329
 IR Inten    --     29.5418                13.0722                10.9421

                     91                     92                     93
                      A                      A                      A
 Frequencies --   3129.1752              3133.5381              3140.0388
 Red. masses --      1.1021                 1.1025                 1.0886
 Frc consts  --      6.3582                 6.3782                 6.3238
 IR Inten    --     37.7220                36.0471                41.5354

                     94                     95                     96
                      A                      A                      A
 Frequencies --   3166.9968              3181.3049              3548.8026
 Red. masses --      1.0911                 1.0946                 1.0742
 Frc consts  --      6.4479                 6.5272                 7.9705
 IR Inten    --      1.5818                13.4877                 1.2322

 - Thermochemistry -
 -------------------
 Temperature   298.150 Kelvin.  Pressure   1.00000 Atm.
 Atom     1 has atomic number  6 and mass  12.00000

 Molecular mass:   199.13947 amu.
 Principal axes and moments of inertia in atomic units:
                           1         2         3
     Eigenvalues --  2487.156333088.790953997.26172
           X            0.99980   0.01374   0.01440
           Y           -0.01296   0.99851  -0.05309
           Z           -0.01511   0.05289   0.99849
 This molecule is an asymmetric top.
 Rotational symmetry number  1.
 Warning -- assumption of classical behavior for rotation
           may cause significant error
 Rotational temperatures (Kelvin)      0.03482     0.02804     0.02167
 Rotational constants (GHZ):           0.72562     0.58429     0.45149
 Zero-point vibrational energy     800324.6 (Joules/Mol)
                                  191.28218 (Kcal/Mol)
 Warning -- explicit consideration of  26 degrees of freedom as
           vibrations may cause significant error
 Vibrational temperatures:     51.38    92.52   129.26   141.63   160.77
          (Kelvin)            204.19   247.27   275.72   313.15   336.43
                              348.53   351.57   368.59   380.12   399.40
                              435.08   484.97   507.16   554.48   586.19
                              624.64   697.80   728.58   771.38   815.25
                              892.09   967.47  1045.33  1104.22  1171.51
                             1233.07  1252.31  1338.15  1359.19  1397.22
                             1406.04  1422.30  1470.33  1485.73  1538.94
                             1554.87  1570.43  1592.55  1598.96  1618.17
                             1656.36  1690.77  1715.31  1753.07  1787.58
                             1823.90  1880.14  1954.30  1983.92  2006.37
                             2016.36  2038.25  2051.86  2063.35  2071.08
                             2074.95  2079.64  2148.72  2173.29  2175.44
                             2177.94  2184.85  2189.57  2194.99  2198.68
                             2200.17  2206.63  2208.99  2220.04  2487.22
                             4287.73  4321.61  4368.51  4379.97  4386.59
                             4390.18  4400.23  4409.54  4439.20  4472.95
                             4481.92  4482.28  4494.13  4494.80  4497.38
                             4502.19  4508.46  4517.82  4556.60  4577.19
                             5105.94

 Zero-point correction=                           0.304828 (Hartree/Particle)
 Thermal correction to Energy=                    0.321019
 Thermal correction to Enthalpy=                  0.321963
 Thermal correction to Gibbs Free Energy=         0.262154
 Sum of electronic and zero-point Energies=           -884.483145
 Sum of electronic and thermal Energies=              -884.466954
 Sum of electronic and thermal Enthalpies=            -884.466010
 Sum of electronic and thermal Free Energies=         -884.525819

                     E (Thermal)             CV                S
                      KCal/Mol        Cal/Mol-Kelvin    Cal/Mol-Kelvin
 Total                  201.443             60.563            125.880
 Electronic               0.000              0.000              0.000
 Translational            0.889              2.981             41.771
 Rotational               0.889              2.981             31.796
 Vibrational            199.665             54.601             52.313
 Vibration     1          0.594              1.982              5.484
 Vibration     2          0.597              1.971              4.320
 Vibration     3          0.602              1.956              3.664
 Vibration     4          0.604              1.950              3.485
 Vibration     5          0.607              1.940              3.238
 Vibration     6          0.615              1.911              2.778
 Vibration     7          0.626              1.877              2.415
 Vibration     8          0.634              1.851              2.212
 Vibration     9          0.646              1.814              1.979
 Vibration    10          0.654              1.789              1.849
 Vibration    11          0.658              1.776              1.786
 Vibration    12          0.660              1.772              1.771
 Vibration    13          0.666              1.752              1.688
 Vibration    14          0.671              1.739              1.634
 Vibration    15          0.679              1.715              1.548
 Vibration    16          0.694              1.669              1.404
 Vibration    17          0.718              1.601              1.226
 Vibration    18          0.729              1.570              1.155
 Vibration    19          0.754              1.501              1.018
 Vibration    20          0.772              1.454              0.936
 Vibration    21          0.795              1.396              0.845
 Vibration    22          0.841              1.283              0.697
 Vibration    23          0.862              1.236              0.642
 Vibration    24          0.891              1.170              0.574
 Vibration    25          0.923              1.103              0.511
 Vibration    26          0.980              0.990              0.416

 Optimization completed.
    -- Stationary point found.
 Normal termination of Gaussian 16 at Mon Dec 14 13:35:43 2020.

 ----------------------------------------------------------------------
 # B3LYP/6-311++G(d,p) empiricaldispersion=gd3bj scf=xqc pop=npa geom=c
 heck
 ----------------------------------------------------------------------

 ---------------------------------------
 CID_139304724_JID_3931_Energie_neutraal
 ---------------------------------------
 Structure from the checkpoint file:  "JID_3931.chk"
 Charge =  0 Multiplicity = 1

 SCF Done:  E(RB3LYP) =  -884.951358809     A.U. after   15 cycles
 Normal termination of Gaussian 16 at Mon Dec 14 13:40:13 2020.

 ----------------------------------------------------------------------
 # B3LYP/6-311++G(d,p) empiricaldispersion=gd3bj scf=xqc pop=npa geom=c
 heck
 ----------------------------------------------------------------------

 -------------------------------------
 CID_139304724_JID_3931_Energie_kation
 -------------------------------------
 Structure from the checkpoint file:  "JID_3931.chk"
 Charge =  1 Multiplicity = 2

 SCF Done:  E(UB3LYP) =  -884.662916440     A.U. after   25 cycles
 Normal termination of Gaussian 16 at Mon Dec 14 13:49:49 2020.
 Gaussian 16:  ES64L-G16RevA.03 25-Dec-2016

 ----------------------------------------------------------------------
 # B3LYP/6-311++G(d,p) empiricaldispersion=gd3bj scf=xqc pop=npa geom=c
 heck
 ----------------------------------------------------------------------

 ------------------------------------
 CID_139304724_JID_3931_Energie_anion
 ------------------------------------
 Structure from the checkpoint file:  "JID_3931.chk"
 Charge = -1 Multiplicity = 2

                         Standard orientation:
 ---------------------------------------------------------------------
 Center     Atomic      Atomic             Coordinates (Angstroms)
 Number     Number       Type             X           Y           Z
 ---------------------------------------------------------------------
      1          6           0       -4.022251    0.199123   -0.523993
      2          6           0       -2.506227    0.418255   -0.452341
      3          6           0       -1.923334   -0.088538    0.840389
      4          6           0       -0.686810   -0.568302    1.042932
      5          6           0       -0.296527   -1.135150    2.386328
      6          6           0        0.360444   -0.548583   -0.048705
      7          6           0        1.523588   -1.486362    0.036155
      8         16           0        0.276300   -1.992695   -1.228658
      9          6           0        2.899808   -1.097214   -0.444359
     10          7           0        0.616754    0.707941   -0.728303
     11          6           0        0.680884    1.915439    0.111952
     12          6           0        1.881668    1.855083    1.056691
     13          6           0        0.772992    3.124714   -0.818562
     14          1           0       -4.265286   -0.866797   -0.453719
     15          1           0       -4.432928    0.579159   -1.465364
     16          1           0       -4.533429    0.713733    0.298361
     17          1           0       -2.029097   -0.085819   -1.301699
     18          1           0       -2.294321    1.493006   -0.568140
     19          1           0       -2.609612   -0.093645    1.688022
     20          1           0       -0.127295   -2.218372    2.329088
     21          1           0        0.627915   -0.686260    2.770252
     22          1           0       -1.088164   -0.966683    3.122261
     23          1           0        1.524210   -2.159972    0.889633
     24          1           0        3.464412   -0.635668    0.375750
     25          1           0        3.450051   -1.982338   -0.778506
     26          1           0        2.826936   -0.382863   -1.264973
     27          1           0       -0.072057    0.843506   -1.460481
     28          1           0       -0.227541    2.018810    0.728348
     29          1           0        2.815700    1.803483    0.487783
     30          1           0        1.907599    2.747043    1.691991
     31          1           0        1.834236    0.980996    1.713935
     32          1           0       -0.101492    3.183642   -1.478781
     33          1           0        0.817697    4.053724   -0.240688
     34          1           0        1.668977    3.058058   -1.445359
 ---------------------------------------------------------------------

 SCF Done:  E(UB3LYP) =  -884.937196504     A.U. after   33 cycles
 SCF Done:  E(UB3LYP) =  -884.937196504     a.u. after    1 cycles

 The electronic state is 2-A.
 Alpha  occ. eigenvalues --  -88.72365 -14.19809 -10.13797 -10.10797 -10.09684
 Alpha  occ. eigenvalues --  -10.07189 -10.06637 -10.06601 -10.06526 -10.05763
 Alpha  occ. eigenvalues --  -10.05707 -10.05675 -10.05637  -7.80991  -5.77402
 Alpha  occ. eigenvalues --   -5.77016  -5.76344  -0.82726  -0.74399  -0.70280
 Alpha  occ. eigenvalues --   -0.65854  -0.65709  -0.61426  -0.58868  -0.58084
 Alpha  occ. eigenvalues --   -0.52190  -0.49778  -0.48768  -0.46485  -0.43064
 Alpha  occ. eigenvalues --   -0.38675  -0.37138  -0.36714  -0.35370  -0.33997
 Alpha  occ. eigenvalues --   -0.32578  -0.32402  -0.31612  -0.30985  -0.29732
 Alpha  occ. eigenvalues --   -0.29010  -0.28479  -0.27863  -0.27032  -0.26621
 Alpha  occ. eigenvalues --   -0.26265  -0.24979  -0.24342  -0.24003  -0.23453
 Alpha  occ. eigenvalues --   -0.20235  -0.19524  -0.14349  -0.12992  -0.11620
 Alpha  occ. eigenvalues --    0.04597
 Alpha virt. eigenvalues --    0.06540   0.07135   0.07498   0.07925   0.08777
 Alpha virt. eigenvalues --    0.09356   0.09804   0.09951   0.10343   0.11202
 Alpha virt. eigenvalues --    0.11687   0.11896   0.11956   0.12591   0.13133

  Beta  occ. eigenvalues --  -88.72348 -14.19803 -10.13747 -10.10764 -10.09678
  Beta  occ. eigenvalues --  -10.07148 -10.06630 -10.06582 -10.06510 -10.05709
  Beta  occ. eigenvalues --  -10.05673 -10.05639 -10.05607  -7.80976  -5.77387
  Beta  occ. eigenvalues --   -5.76969  -5.76333  -0.82672  -0.74333  -0.70187
  Beta  occ. eigenvalues --   -0.65809  -0.65648  -0.61380  -0.58804  -0.58007
  Beta  occ. eigenvalues --   -0.52058  -0.49683  -0.48701  -0.46385  -0.42999
  Beta  occ. eigenvalues --   -0.38646  -0.37065  -0.36616  -0.35291  -0.33952
  Beta  occ. eigenvalues --   -0.32521  -0.32340  -0.31547  -0.30934  -0.29689
  Beta  occ. eigenvalues --   -0.28966  -0.28440  -0.27824  -0.26984  -0.26572
  Beta  occ. eigenvalues --   -0.26211  -0.24927  -0.24296  -0.23950  -0.23374
  Beta  occ. eigenvalues --   -0.20108  -0.19320  -0.14170  -0.12933  -0.11472
  Beta virt. eigenvalues --    0.06727   0.07220   0.07741   0.08137   0.08246
  Beta virt. eigenvalues --    0.09213   0.09701   0.10106   0.10288   0.10495
  Beta virt. eigenvalues --    0.11470   0.11901   0.12236   0.12355   0.12803

 Mulliken charges and spin densities:
               1          2
     1  C    1.047295  -1.722252
     2  C   -0.839122   0.412553
     3  C    0.283175  -0.227793
     4  C   -1.039478   1.319849
     5  C    1.042512  -1.808836
     6  C    0.884056  -0.030920
     7  C   -1.024483   0.528808
     8  S   -0.380650  -0.016117
     9  C   -0.012682  -0.583908
    10  N    0.132874  -0.037688
    11  C   -1.195349   1.142347
    12  C    0.302887  -0.930765
    13  C    0.914511  -1.429807
    14  H   -0.042723   0.181903
    15  H   -0.428724   0.571855
    16  H   -0.149216   0.279123
    17  H    0.070099   0.109400
    18  H   -0.010454   0.176788
    19  H   -0.058458   0.223889
    20  H   -0.034642   0.199284
    21  H   -0.172987   0.306452
    22  H   -0.156146   0.289519
    23  H    0.088950   0.138659
    24  H   -0.037949   0.164296
    25  H    0.154520  -0.020805
    26  H    0.121270   0.058517
    27  H    0.162611   0.071027
    28  H    0.171943  -0.011980
    29  H   -0.029469   0.173671
    30  H   -0.376158   0.531469
    31  H    0.152683  -0.014112
    32  H   -0.444331   0.572474
    33  H   -0.143488   0.284241
    34  H    0.047122   0.098858
 Sum of Mulliken charges =  -1.00000   1.00000

 Dipole moment (field-independent basis, Debye):
    X=              3.3953    Y=             -3.0877    Z=              0.3373  Tot=              4.6018
 Quadrupole moment (field-independent basis, Debye-Ang):
   XX=           -148.0470   YY=           -141.4332   ZZ=           -131.0814
   XY=             -1.7672   XZ=             -7.6770   YZ=              3.3605

 Summary of Natural Population Analysis:

                                       Natural Population
                Natural  -----------------------------------------------
    Atom  No    Charge         Core      Valence    Rydberg      Total
 -----------------------------------------------------------------------
      C    1   -0.27942      0.99967     2.27488    0.00487     3.27942
      C    2   -0.21470      0.99963     2.20558    0.00949     3.21470
      C    3   -0.07112      0.99945     2.06187    0.00979     3.07112
      C    4   -0.02226      0.99941     2.01019    0.01266     3.02226
      C    5   -0.29318      0.99962     2.28740    0.00616     3.29318
      C    6    0.04154      0.99945     1.93857    0.02043     2.95846
      C    7   -0.13236      0.99952     2.11914    0.01369     3.13236
      S    8    0.03428      4.99964     2.95432    0.01177     7.96572
      C    9   -0.29523      0.99963     2.28822    0.00738     3.29523
      N   10   -0.35478      0.99969     2.84230    0.01279     3.85478
      C   11   -0.01638      0.99961     2.00474    0.01203     3.01638
      C   12   -0.28707      0.99964     2.28135    0.00608     3.28707
      C   13   -0.28374      0.99965     2.27789    0.00620     3.28374
      H   14    0.09672      0.00000     0.40228    0.00100     0.40328
      H   15    0.10058      0.00000     0.39795    0.00146     0.39942
      H   16    0.09405      0.00000     0.40490    0.00105     0.40595
      H   17    0.10110      0.00000     0.39757    0.00133     0.39890
      H   18    0.10334      0.00000     0.39458    0.00208     0.39666
      H   19    0.08987      0.00000     0.40867    0.00146     0.41013
      H   20    0.10240      0.00000     0.39630    0.00130     0.39760
      H   21    0.09881      0.00000     0.39987    0.00132     0.40119
      H   22    0.10315      0.00000     0.39596    0.00089     0.39685
      H   23    0.10480      0.00000     0.39411    0.00110     0.39520
      H   24    0.10079      0.00000     0.39813    0.00108     0.39921
      H   25    0.09783      0.00000     0.40141    0.00077     0.40217
      H   26    0.11521      0.00000     0.38365    0.00114     0.38479
      H   27    0.18476      0.00000     0.31178    0.00346     0.31524
      H   28    0.08478      0.00000     0.41251    0.00271     0.41522
      H   29    0.09824      0.00000     0.40061    0.00116     0.40176
      H   30    0.10073      0.00000     0.39834    0.00093     0.39927
      H   31    0.09797      0.00000     0.40058    0.00145     0.40203
      H   32    0.10036      0.00000     0.39814    0.00150     0.39964
      H   33    0.10080      0.00000     0.39823    0.00098     0.39920
      H   34    0.09812      0.00000     0.40081    0.00107     0.40188
 =======================================================================
   * Total *   -0.00000     16.99459    37.84284    0.16257    55.00000

 Normal termination of Gaussian 16 at Mon Dec 14 14:02:37 2020.
