 Gaussian 16, Revision A.03,

 -----------------------------------------------------------
 # opt freq B3LYP/6-31G(d) empiricaldispersion=gd3bj scf=xqc
 -----------------------------------------------------------

 ------------------------------
 CID_97802250_JID_6344_neutraal
 ------------------------------
 Symbolic Z-matrix:
 Charge =  0 Multiplicity = 1

 SCF Done:  E(RB3LYP) =  -1105.57577562     A.U. after   16 cycles
 SCF Done:  E(RB3LYP) =  -1105.58111384     A.U. after   13 cycles
 SCF Done:  E(RB3LYP) =  -1105.58290615     A.U. after   14 cycles
 SCF Done:  E(RB3LYP) =  -1105.58331220     A.U. after   14 cycles
 SCF Done:  E(RB3LYP) =  -1105.58348382     A.U. after   12 cycles
 SCF Done:  E(RB3LYP) =  -1105.58372379     A.U. after   12 cycles
 SCF Done:  E(RB3LYP) =  -1105.58390844     A.U. after   12 cycles
 SCF Done:  E(RB3LYP) =  -1105.58404656     A.U. after   13 cycles
 SCF Done:  E(RB3LYP) =  -1105.58397140     A.U. after   13 cycles
 SCF Done:  E(RB3LYP) =  -1105.58417185     A.U. after   12 cycles
 SCF Done:  E(RB3LYP) =  -1105.58442760     A.U. after   10 cycles
 SCF Done:  E(RB3LYP) =  -1105.58442760     A.U. after    9 cycles
 SCF Done:  E(RB3LYP) =  -1105.58442871     A.U. after   10 cycles
 SCF Done:  E(RB3LYP) =  -1105.58442924     A.U. after   10 cycles
 SCF Done:  E(RB3LYP) =  -1105.58442933     A.U. after    7 cycles
 SCF Done:  E(RB3LYP) =  -1105.58442939     A.U. after    8 cycles
 Optimization completed.
    -- Stationary point found.
 Normal termination of Gaussian 16 at Thu Dec 10 22:25:13 2020.

 --------------------------------------------------------------------
 #N Geom=AllCheck Guess=TCheck SCRF=Check GenChk RB3LYP/6-31G(d) Freq
 --------------------------------------------------------------------

 Structure from the checkpoint file:  "JID_6344.chk"
 ------------------------------
 CID_97802250_JID_6344_neutraal
 ------------------------------
 Charge =  0 Multiplicity = 1

 SCF Done:  E(RB3LYP) =  -1105.58442939     A.U. after    1 cycles

  Exact polarizability: 198.417  16.572 152.666  10.812  -5.780  96.405
 Approx polarizability: 288.745  38.974 263.582  20.141 -14.558 150.090

                      1                      2                      3
                      A                      A                      A
 Frequencies --     23.6970                28.0780                33.0142
 Red. masses --      5.2383                 3.5049                 3.1872
 Frc consts  --      0.0017                 0.0016                 0.0020
 IR Inten    --      1.6510                 1.9219                 3.5970

                      4                      5                      6
                      A                      A                      A
 Frequencies --     53.1390                75.3221               113.6156
 Red. masses --      4.0991                 5.2779                 4.2582
 Frc consts  --      0.0068                 0.0176                 0.0324
 IR Inten    --      4.3207                 1.9144                 3.3571

                      7                      8                      9
                      A                      A                      A
 Frequencies --    137.7522               145.7263               164.5333
 Red. masses --      6.9773                 1.9073                 2.6928
 Frc consts  --      0.0780                 0.0239                 0.0429
 IR Inten    --      4.8828                 1.3618                 1.4732

                     10                     11                     12
                      A                      A                      A
 Frequencies --    203.8613               232.5369               242.8611
 Red. masses --      4.3688                 3.8216                 5.6918
 Frc consts  --      0.1070                 0.1218                 0.1978
 IR Inten    --      2.4348                 0.4527                 5.2993

                     13                     14                     15
                      A                      A                      A
 Frequencies --    263.4686               291.4768               327.0839
 Red. masses --      6.3606                 3.9859                 3.1617
 Frc consts  --      0.2601                 0.1995                 0.1993
 IR Inten    --     11.0469                 7.9009                 2.3197

                     16                     17                     18
                      A                      A                      A
 Frequencies --    378.9490               387.1827               396.2648
 Red. masses --      5.2902                 2.8951                 5.2996
 Frc consts  --      0.4476                 0.2557                 0.4903
 IR Inten    --      6.2716                 6.6906                 5.4314

                     19                     20                     21
                      A                      A                      A
 Frequencies --    407.9851               464.1758               516.3162
 Red. masses --      3.9218                 6.3276                 2.5102
 Frc consts  --      0.3846                 0.8033                 0.3943
 IR Inten    --      1.5018                12.8658                 1.6696

                     22                     23                     24
                      A                      A                      A
 Frequencies --    530.4742               557.6751               590.1494
 Red. masses --      5.6237                 4.7465                 4.5554
 Frc consts  --      0.9324                 0.8697                 0.9348
 IR Inten    --      4.7734                 7.1717                 3.6834

                     25                     26                     27
                      A                      A                      A
 Frequencies --    604.4370               616.4453               668.0336
 Red. masses --      5.0696                 4.8671                 1.1112
 Frc consts  --      1.0912                 1.0897                 0.2922
 IR Inten    --      3.4876                 5.6596               133.9493

                     28                     29                     30
                      A                      A                      A
 Frequencies --    709.8184               733.2059               758.2381
 Red. masses --      4.3613                 5.3073                 4.8779
 Frc consts  --      1.2947                 1.6810                 1.6523
 IR Inten    --      4.7911                 3.5361                 2.3233

                     31                     32                     33
                      A                      A                      A
 Frequencies --    784.8855               861.0526               867.7356
 Red. masses --      4.3878                 2.0213                 1.5833
 Frc consts  --      1.5926                 0.8830                 0.7024
 IR Inten    --      6.7442                 6.7936                22.8919

                     34                     35                     36
                      A                      A                      A
 Frequencies --    902.9091               923.6864               928.8299
 Red. masses --      1.7525                 1.5324                 1.7416
 Frc consts  --      0.8418                 0.7703                 0.8853
 IR Inten    --      6.4963                14.0995                 5.5692

                     37                     38                     39
                      A                      A                      A
 Frequencies --    958.0301               975.1971              1028.4039
 Red. masses --      3.0784                 1.3267                 7.8313
 Frc consts  --      1.6647                 0.7434                 4.8799
 IR Inten    --      8.3943                 0.6777               127.2498

                     40                     41                     42
                      A                      A                      A
 Frequencies --   1038.7064              1048.0548              1104.9011
 Red. masses --      8.2380                 1.8213                 3.7086
 Frc consts  --      5.2367                 1.1787                 2.6675
 IR Inten    --     72.7469                24.9512               183.3940

                     43                     44                     45
                      A                      A                      A
 Frequencies --   1139.3320              1156.0553              1179.6148
 Red. masses --      1.4795                 1.5952                 1.4016
 Frc consts  --      1.1315                 1.2561                 1.1491
 IR Inten    --     10.2640                14.2498                 5.5611

                     46                     47                     48
                      A                      A                      A
 Frequencies --   1185.9294              1211.3014              1218.4405
 Red. masses --      1.2707                 1.3346                 1.3452
 Frc consts  --      1.0530                 1.1537                 1.1766
 IR Inten    --      5.5624                 0.8270                 0.1840

                     49                     50                     51
                      A                      A                      A
 Frequencies --   1228.5301              1252.3340              1274.5623
 Red. masses --      1.1592                 1.4618                 1.8926
 Frc consts  --      1.0308                 1.3508                 1.8114
 IR Inten    --     21.2116                 0.8242                 5.4416

                     52                     53                     54
                      A                      A                      A
 Frequencies --   1299.5142              1313.8622              1328.9499
 Red. masses --      5.0180                 1.6102                 1.2619
 Frc consts  --      4.9928                 1.6377                 1.3131
 IR Inten    --    155.9203                38.5504                 1.2039

                     55                     56                     57
                      A                      A                      A
 Frequencies --   1352.1832              1414.8522              1454.9940
 Red. masses --      8.1481                 1.2658                 2.9586
 Frc consts  --      8.7776                 1.4929                 3.6902
 IR Inten    --     17.1128                 2.4414                22.1437

                     58                     59                     60
                      A                      A                      A
 Frequencies --   1469.2853              1496.0579              1498.9366
 Red. masses --      1.0940                 1.2773                 1.1803
 Frc consts  --      1.3915                 1.6844                 1.5625
 IR Inten    --     18.8811                27.3645                 6.1348

                     61                     62                     63
                      A                      A                      A
 Frequencies --   1500.8697              1520.2985              1535.4283
 Red. masses --      1.1794                 1.0746                 1.0499
 Frc consts  --      1.5653                 1.4634                 1.4583
 IR Inten    --    127.5078                13.5575                14.3270

                     64                     65                     66
                      A                      A                      A
 Frequencies --   1539.3914              1550.2977              1617.2330
 Red. masses --      1.0861                 2.3690                 6.3336
 Frc consts  --      1.5164                 3.3547                 9.7599
 IR Inten    --      2.4022               100.5339                 4.4873

                     67                     68                     69
                      A                      A                      A
 Frequencies --   1666.2465              2350.1404              2975.8700
 Red. masses --      5.8917                12.6756                 1.0720
 Frc consts  --      9.6377                41.2482                 5.5934
 IR Inten    --     22.7268                26.8555                70.7695

                     70                     71                     72
                      A                      A                      A
 Frequencies --   3052.0146              3077.7344              3089.1172
 Red. masses --      1.0372                 1.0810                 1.0668
 Frc consts  --      5.6923                 6.0329                 5.9982
 IR Inten    --     51.4024                18.9868                17.6708

                     73                     74                     75
                      A                      A                      A
 Frequencies --   3091.1890              3135.4781              3145.0637
 Red. masses --      1.0594                 1.0999                 1.1069
 Frc consts  --      5.9641                 6.3711                 6.4511
 IR Inten    --      6.9382                19.8193                 4.2293

                     76                     77                     78
                      A                      A                      A
 Frequencies --   3149.1407              3176.0398              3196.7839
 Red. masses --      1.1073                 1.1050                 1.0897
 Frc consts  --      6.4697                 6.5673                 6.5612
 IR Inten    --      1.5298                17.5099                 5.4088

                     79                     80                     81
                      A                      A                      A
 Frequencies --   3205.9724              3227.1957              3579.8063
 Red. masses --      1.0914                 1.0936                 1.0658
 Frc consts  --      6.6096                 6.7103                 8.0475
 IR Inten    --      3.0751                 2.7529               134.6078

 - Thermochemistry -
 -------------------
 Temperature   298.150 Kelvin.  Pressure   1.00000 Atm.
 Atom     1 has atomic number  6 and mass  12.00000

 Molecular mass:   239.06162 amu.
 Principal axes and moments of inertia in atomic units:
                           1         2         3
     Eigenvalues --  1991.661357603.719738688.14583
           X            0.99986  -0.01160   0.01201
           Y            0.01143   0.99983   0.01474
           Z           -0.01218  -0.01460   0.99982
 This molecule is an asymmetric top.
 Rotational symmetry number  1.
 Warning -- assumption of classical behavior for rotation
           may cause significant error
 Rotational temperatures (Kelvin)      0.04349     0.01139     0.00997
 Rotational constants (GHZ):           0.90615     0.23735     0.20772
 Zero-point vibrational energy     597737.8 (Joules/Mol)
                                  142.86276 (Kcal/Mol)
 Warning -- explicit consideration of  26 degrees of freedom as
           vibrations may cause significant error
 Vibrational temperatures:     34.09    40.40    47.50    76.46   108.37
          (Kelvin)            163.47   198.19   209.67   236.73   293.31
                              334.57   349.42   379.07   419.37   470.60
                              545.22   557.07   570.14   587.00   667.85
                              742.86   763.23   802.37   849.09   869.65
                              886.93   961.15  1021.27  1054.92  1090.94
                             1129.28  1238.86  1248.48  1299.08  1328.98
                             1336.38  1378.39  1403.09  1479.64  1494.47
                             1507.92  1589.71  1639.24  1663.31  1697.20
                             1706.29  1742.79  1753.06  1767.58  1801.83
                             1833.81  1869.71  1890.35  1912.06  1945.49
                             2035.66  2093.41  2113.97  2152.49  2156.64
                             2159.42  2187.37  2209.14  2214.84  2230.53
                             2326.84  2397.36  3381.33  4281.61  4391.17
                             4428.17  4444.55  4447.53  4511.25  4525.05
                             4530.91  4569.61  4599.46  4612.68  4643.21
                             5150.54

 Zero-point correction=                           0.227666 (Hartree/Particle)
 Thermal correction to Energy=                    0.244073
 Thermal correction to Enthalpy=                  0.245017
 Thermal correction to Gibbs Free Energy=         0.181096
 Sum of electronic and zero-point Energies=          -1105.356763
 Sum of electronic and thermal Energies=             -1105.340357
 Sum of electronic and thermal Enthalpies=           -1105.339413
 Sum of electronic and thermal Free Energies=        -1105.403333

                     E (Thermal)             CV                S
                      KCal/Mol        Cal/Mol-Kelvin    Cal/Mol-Kelvin
 Total                  153.158             59.564            134.531
 Electronic               0.000              0.000              0.000
 Translational            0.889              2.981             42.316
 Rotational               0.889              2.981             33.242
 Vibrational            151.380             53.602             58.974
 Vibration     1          0.593              1.985              6.297
 Vibration     2          0.593              1.984              5.961
 Vibration     3          0.594              1.983              5.640
 Vibration     4          0.596              1.976              4.697
 Vibration     5          0.599              1.965              4.009
 Vibration     6          0.607              1.938              3.206
 Vibration     7          0.614              1.916              2.835
 Vibration     8          0.617              1.907              2.727
 Vibration     9          0.623              1.886              2.497
 Vibration    10          0.640              1.834              2.098
 Vibration    11          0.653              1.791              1.859
 Vibration    12          0.659              1.775              1.782
 Vibration    13          0.670              1.740              1.639
 Vibration    14          0.687              1.690              1.465
 Vibration    15          0.711              1.621              1.274
 Vibration    16          0.749              1.515              1.043
 Vibration    17          0.756              1.498              1.011
 Vibration    18          0.763              1.478              0.976
 Vibration    19          0.773              1.453              0.934
 Vibration    20          0.822              1.330              0.754
 Vibration    21          0.871              1.214              0.619
 Vibration    22          0.885              1.183              0.586
 Vibration    23          0.913              1.123              0.528
 Vibration    24          0.947              1.053              0.467
 Vibration    25          0.963              1.022              0.442
 Vibration    26          0.976              0.997              0.422

 Optimization completed.
    -- Stationary point found.
 Normal termination of Gaussian 16 at Thu Dec 10 22:34:48 2020.

 ----------------------------------------------------------------------
 # B3LYP/6-311++G(d,p) empiricaldispersion=gd3bj scf=xqc pop=npa geom=c
 heck
 ----------------------------------------------------------------------

 --------------------------------------
 CID_97802250_JID_6344_Energie_neutraal
 --------------------------------------
 Structure from the checkpoint file:  "JID_6344.chk"
 Charge =  0 Multiplicity = 1

 SCF Done:  E(RB3LYP) =  -1105.82053044     A.U. after   16 cycles
 Normal termination of Gaussian 16 at Thu Dec 10 22:39:46 2020.

 ----------------------------------------------------------------------
 # B3LYP/6-311++G(d,p) empiricaldispersion=gd3bj scf=xqc pop=npa geom=c
 heck
 ----------------------------------------------------------------------

 ------------------------------------
 CID_97802250_JID_6344_Energie_kation
 ------------------------------------
 Structure from the checkpoint file:  "JID_6344.chk"
 Charge =  1 Multiplicity = 2

 SCF Done:  E(UB3LYP) =  -1105.50205990     A.U. after   27 cycles
 Normal termination of Gaussian 16 at Thu Dec 10 22:51:39 2020.
 Gaussian 16:  ES64L-G16RevA.03 25-Dec-2016

 ----------------------------------------------------------------------
 # B3LYP/6-311++G(d,p) empiricaldispersion=gd3bj scf=xqc pop=npa geom=c
 heck
 ----------------------------------------------------------------------

 -----------------------------------
 CID_97802250_JID_6344_Energie_anion
 -----------------------------------
 Structure from the checkpoint file:  "JID_6344.chk"
 Charge = -1 Multiplicity = 2

                         Standard orientation:
 ---------------------------------------------------------------------
 Center     Atomic      Atomic             Coordinates (Angstroms)
 Number     Number       Type             X           Y           Z
 ---------------------------------------------------------------------
      1          6           0        4.411064    0.128669    1.462934
      2          8           0        4.022651   -0.686250    0.346019
      3          6           0        2.706314   -0.673259   -0.001321
      4          6           0        2.059881    0.475371   -0.507233
      5          6           0        0.710691    0.405045   -0.889811
      6          6           0       -0.004376   -0.789100   -0.798216
      7          6           0        0.657170   -1.926625   -0.308424
      8          6           0        1.988985   -1.868753    0.085851
      9          6           0       -1.453607   -0.845433   -1.164672
     10         16           0       -2.553548   -0.993779    0.337904
     11          8           0       -3.981717   -0.948256   -0.198323
     12          6           0       -2.215267    0.663683    1.081824
     13          6           0       -2.914747    1.795916    0.319965
     14          8           0       -4.314425    1.727366    0.433010
     15          6           0        2.768458    1.705538   -0.677718
     16          7           0        3.329539    2.714734   -0.818390
     17          1           0        5.469516   -0.079920    1.622822
     18          1           0        3.839652   -0.153541    2.355284
     19          1           0        4.278363    1.193787    1.256064
     20          1           0        0.232282    1.298987   -1.278127
     21          1           0        0.117277   -2.866472   -0.232117
     22          1           0        2.503003   -2.745529    0.464568
     23          1           0       -1.790595    0.028766   -1.727009
     24          1           0       -1.709717   -1.740493   -1.738984
     25          1           0       -2.615753    0.607884    2.098104
     26          1           0       -1.128313    0.782721    1.131909
     27          1           0       -2.598070    2.751159    0.754290
     28          1           0       -2.582537    1.803600   -0.732811
     29          1           0       -4.564570    0.847175    0.083549
 ---------------------------------------------------------------------

 SCF Done:  E(UB3LYP) =  -1105.84654418     A.U. after   24 cycles

 The electronic state is 2-A.
 Alpha  occ. eigenvalues --  -88.84623 -19.02462 -19.01895 -18.99060 -14.15670
 Alpha  occ. eigenvalues --  -10.13500 -10.10892 -10.10628 -10.10074 -10.09857
 Alpha  occ. eigenvalues --  -10.06063 -10.06015 -10.05278 -10.05228 -10.04077
 Alpha  occ. eigenvalues --  -10.03040  -7.92400  -5.88690  -5.88510  -5.87972
 Alpha  occ. eigenvalues --   -0.94059  -0.93330  -0.91153  -0.76318  -0.73862
 Alpha  occ. eigenvalues --   -0.70206  -0.66500  -0.63568  -0.61610  -0.58126
 Alpha  occ. eigenvalues --   -0.55604  -0.51092  -0.49959  -0.47144  -0.42441
 Alpha  occ. eigenvalues --   -0.41882  -0.38794  -0.38300  -0.37745  -0.35372
 Alpha  occ. eigenvalues --   -0.35121  -0.34218  -0.33843  -0.32995  -0.31462
 Alpha  occ. eigenvalues --   -0.31011  -0.30397  -0.29089  -0.27568  -0.26665
 Alpha  occ. eigenvalues --   -0.25846  -0.25059  -0.24225  -0.23365  -0.22348
 Alpha  occ. eigenvalues --   -0.21115  -0.19439  -0.18463  -0.17873  -0.16633
 Alpha  occ. eigenvalues --   -0.14459  -0.13382  -0.11565   0.03294
 Alpha virt. eigenvalues --    0.07892   0.08284   0.08720   0.09206   0.09811
 Alpha virt. eigenvalues --    0.10061   0.10729   0.11333   0.11428   0.11997
 Alpha virt. eigenvalues --    0.12473   0.13203   0.13595   0.13977   0.14644

  Beta  occ. eigenvalues --  -88.84613 -19.02455 -19.01894 -18.99046 -14.15338
  Beta  occ. eigenvalues --  -10.13500 -10.10853 -10.10619 -10.10060 -10.09659
  Beta  occ. eigenvalues --  -10.06129 -10.06020 -10.05121 -10.04923 -10.04091
  Beta  occ. eigenvalues --  -10.02549  -7.92391  -5.88677  -5.88489  -5.87961
  Beta  occ. eigenvalues --   -0.93958  -0.93321  -0.91127  -0.75817  -0.73505
  Beta  occ. eigenvalues --   -0.70064  -0.66316  -0.62931  -0.61346  -0.58007
  Beta  occ. eigenvalues --   -0.55456  -0.50291  -0.49878  -0.46972  -0.42421
  Beta  occ. eigenvalues --   -0.41727  -0.38628  -0.38172  -0.37594  -0.35286
  Beta  occ. eigenvalues --   -0.34906  -0.34099  -0.33740  -0.32877  -0.31413
  Beta  occ. eigenvalues --   -0.30849  -0.30311  -0.28960  -0.27461  -0.26200
  Beta  occ. eigenvalues --   -0.25349  -0.24983  -0.23870  -0.22911  -0.21862
  Beta  occ. eigenvalues --   -0.19973  -0.19207  -0.18401  -0.17642  -0.16459
  Beta  occ. eigenvalues --   -0.14285  -0.11778  -0.10102
  Beta virt. eigenvalues --    0.07668   0.08264   0.08710   0.09129   0.09358
  Beta virt. eigenvalues --    0.10060   0.10253   0.10753   0.11341   0.11420
  Beta virt. eigenvalues --    0.12101   0.12593   0.13185   0.13649   0.14003

 Mulliken charges and spin densities:
               1          2
     1  C   -0.198243  -0.083602
     2  O   -0.190550   0.010332
     3  C   -1.229108   0.119262
     4  C    1.841700   0.247620
     5  C   -0.428220   0.131548
     6  C    1.124547  -0.062815
     7  C   -0.364204   0.396308
     8  C   -0.127094  -0.000344
     9  C   -0.758737   0.007830
    10  S    0.631643   0.007611
    11  O   -0.503883  -0.013606
    12  C   -0.675485   0.025006
    13  C   -0.372531  -0.021253
    14  O   -0.260257  -0.000257
    15  C   -1.328105  -0.046971
    16  N   -0.336072   0.177301
    17  H    0.109071   0.011994
    18  H    0.068426   0.047711
    19  H    0.134238   0.022783
    20  H    0.159328  -0.008623
    21  H    0.104306  -0.027243
    22  H    0.139461   0.008484
    23  H    0.219467  -0.005682
    24  H    0.218422   0.032639
    25  H    0.225999   0.020530
    26  H    0.195679  -0.004579
    27  H    0.153970   0.002885
    28  H    0.169513   0.001421
    29  H    0.276719   0.003710
 Sum of Mulliken charges =  -1.00000   1.00000

 Dipole moment (field-independent basis, Debye):
    X=             -2.5218    Y=             -2.6522    Z=              2.6679  Tot=              4.5290
 Quadrupole moment (field-independent basis, Debye-Ang):
   XX=           -182.2339   YY=           -133.2043   ZZ=           -109.5295
   XY=            -12.8594   XZ=             10.4314   YZ=              3.4060

 Summary of Natural Population Analysis:

                                       Natural Population
                Natural  -----------------------------------------------
    Atom  No    Charge         Core      Valence    Rydberg      Total
 -----------------------------------------------------------------------
      C    1   -0.09394      0.99959     2.08669    0.00766     3.09394
      O    2   -0.28948      0.99985     3.27964    0.00999     4.28948
      C    3    0.21157      0.99935     1.77442    0.01466     2.78843
      C    4   -0.06920      0.99938     2.06055    0.00927     3.06920
      C    5   -0.04940      0.99950     2.04041    0.00948     3.04940
      C    6   -0.07559      0.99950     2.06629    0.00979     3.07559
      C    7    0.00008      0.99953     1.99144    0.00895     2.99992
      C    8   -0.12708      0.99953     2.11906    0.00849     3.12708
      C    9   -0.25983      0.99955     2.24945    0.01083     3.25983
      S   10    0.57925      4.99947     2.36590    0.05538     7.42075
      O   11   -0.50565      0.99993     3.49803    0.00770     4.50565
      C   12   -0.29045      0.99959     2.28278    0.00808     3.29045
      C   13   -0.01870      0.99961     2.00525    0.01384     3.01870
      O   14   -0.38271      0.99990     3.37516    0.00765     4.38271
      C   15    0.14280      0.99964     1.83747    0.02009     2.85720
      N   16   -0.16107      0.99978     2.65026    0.01102     3.66107
      H   17    0.08327      0.00000     0.41556    0.00118     0.41673
      H   18    0.07717      0.00000     0.42092    0.00191     0.42283
      H   19    0.09198      0.00000     0.40594    0.00208     0.40802
      H   20    0.09536      0.00000     0.40370    0.00094     0.40464
      H   21    0.08658      0.00000     0.41166    0.00177     0.41342
      H   22    0.09693      0.00000     0.40136    0.00171     0.40307
      H   23    0.10694      0.00000     0.39171    0.00135     0.39306
      H   24    0.10907      0.00000     0.38900    0.00193     0.39093
      H   25    0.10641      0.00000     0.39237    0.00122     0.39359
      H   26    0.12350      0.00000     0.37462    0.00189     0.37650
      H   27    0.08729      0.00000     0.41135    0.00136     0.41271
      H   28    0.07768      0.00000     0.42114    0.00118     0.42232
      H   29    0.24721      0.00000     0.25006    0.00273     0.25279
 =======================================================================
   * Total *   -0.00000     19.99371    42.77217    0.23412    63.00000

 Normal termination of Gaussian 16 at Thu Dec 10 23:02:28 2020.
