 Gaussian 16, Revision A.03,

 -----------------------------------------------------------
 # opt freq B3LYP/6-31G(d) empiricaldispersion=gd3bj scf=xqc
 -----------------------------------------------------------

 --------------------------------
 CID_102822112_JID_10358_neutraal
 --------------------------------
 Symbolic Z-matrix:
 Charge =  0 Multiplicity = 1

 SCF Done:  E(RB3LYP) =  -931.308067565     A.U. after   15 cycles
 SCF Done:  E(RB3LYP) =  -931.299983762     A.U. after   14 cycles
 SCF Done:  E(RB3LYP) =  -931.312737269     A.U. after   13 cycles
 SCF Done:  E(RB3LYP) =  -931.314603531     A.U. after   13 cycles
 SCF Done:  E(RB3LYP) =  -931.315024024     A.U. after   12 cycles
 SCF Done:  E(RB3LYP) =  -931.315331131     A.U. after   12 cycles
 SCF Done:  E(RB3LYP) =  -931.315469106     A.U. after   11 cycles
 SCF Done:  E(RB3LYP) =  -931.315522338     A.U. after   11 cycles
 SCF Done:  E(RB3LYP) =  -931.315534531     A.U. after   10 cycles
 SCF Done:  E(RB3LYP) =  -931.315549645     A.U. after    9 cycles
 SCF Done:  E(RB3LYP) =  -931.315574645     A.U. after    9 cycles
 SCF Done:  E(RB3LYP) =  -931.315576876     A.U. after    9 cycles
 SCF Done:  E(RB3LYP) =  -931.315578841     A.U. after    9 cycles
 SCF Done:  E(RB3LYP) =  -931.315579947     A.U. after    9 cycles
 SCF Done:  E(RB3LYP) =  -931.315580172     A.U. after    8 cycles
 SCF Done:  E(RB3LYP) =  -931.315580214     A.U. after    7 cycles
 Optimization completed.
    -- Stationary point found.
 Normal termination of Gaussian 16 at Mon Dec 14 17:46:26 2020.

 --------------------------------------------------------------------
 #N Geom=AllCheck Guess=TCheck SCRF=Check GenChk RB3LYP/6-31G(d) Freq
 --------------------------------------------------------------------

 Structure from the checkpoint file:  "JID_10358.chk"
 --------------------------------
 CID_102822112_JID_10358_neutraal
 --------------------------------
 Charge =  0 Multiplicity = 1

 SCF Done:  E(RB3LYP) =  -931.315580214     A.U. after    1 cycles

  Exact polarizability: 211.892 -23.287 205.529  14.500  17.888 106.195
 Approx polarizability: 335.381 -50.641 348.150  34.764  40.196 177.263

                      1                      2                      3
                      A                      A                      A
 Frequencies --     28.8409                40.6216                42.8026
 Red. masses --      6.2725                 6.8578                 7.1268
 Frc consts  --      0.0031                 0.0067                 0.0077
 IR Inten    --      1.5700                 0.7217                 0.6163

                      4                      5                      6
                      A                      A                      A
 Frequencies --     50.6760                64.4106                90.3605
 Red. masses --      2.7985                 7.7674                 2.5995
 Frc consts  --      0.0042                 0.0190                 0.0125
 IR Inten    --      0.8723                 0.8829                 0.1644

                      7                      8                      9
                      A                      A                      A
 Frequencies --    100.6228               120.0056               143.3328
 Red. masses --      2.1298                 3.1840                 3.2060
 Frc consts  --      0.0127                 0.0270                 0.0388
 IR Inten    --      0.5657                 2.6023                 1.0097

                     10                     11                     12
                      A                      A                      A
 Frequencies --    159.8176               200.8793               209.3908
 Red. masses --      5.0332                 4.5504                 3.5086
 Frc consts  --      0.0757                 0.1082                 0.0906
 IR Inten    --      3.3049                 1.0904                 2.7972

                     13                     14                     15
                      A                      A                      A
 Frequencies --    240.1924               260.7463               282.6504
 Red. masses --      5.3318                 5.8145                 3.9137
 Frc consts  --      0.1812                 0.2329                 0.1842
 IR Inten    --      5.6331                 1.9227                 0.4413

                     16                     17                     18
                      A                      A                      A
 Frequencies --    320.9702               341.3420               368.0187
 Red. masses --      6.4075                 4.9000                 5.9157
 Frc consts  --      0.3889                 0.3364                 0.4721
 IR Inten    --      1.1684                 5.4262                 2.8618

                     19                     20                     21
                      A                      A                      A
 Frequencies --    400.2454               468.9742               512.3175
 Red. masses --      4.9672                 2.9157                 5.4867
 Frc consts  --      0.4688                 0.3778                 0.8485
 IR Inten    --      0.4433                 6.1042                11.9942

                     22                     23                     24
                      A                      A                      A
 Frequencies --    522.9479               578.3044               583.1776
 Red. masses --      5.7056                 2.1024                 2.8563
 Frc consts  --      0.9193                 0.4143                 0.5723
 IR Inten    --      7.0038                49.6915                64.2596

                     25                     26                     27
                      A                      A                      A
 Frequencies --    600.2434               613.9257               620.3772
 Red. masses --      3.6452                 1.9932                 2.3519
 Frc consts  --      0.7738                 0.4426                 0.5333
 IR Inten    --     52.3003                12.7711                 5.5950

                     28                     29                     30
                      A                      A                      A
 Frequencies --    630.2561               653.9427               657.6184
 Red. masses --      2.5900                 3.7485                 4.0655
 Frc consts  --      0.6062                 0.9445                 1.0359
 IR Inten    --     62.5848                12.4636                25.0609

                     31                     32                     33
                      A                      A                      A
 Frequencies --    713.5346               733.1328               736.7054
 Red. masses --      4.5625                 4.8697                 1.3415
 Frc consts  --      1.3686                 1.5421                 0.4290
 IR Inten    --     35.4973                 5.9734                33.9921

                     34                     35                     36
                      A                      A                      A
 Frequencies --    740.0754               759.4505               769.6719
 Red. masses --      4.2304                 3.4943                 3.1695
 Frc consts  --      1.3652                 1.1874                 1.1062
 IR Inten    --     14.2023                49.7990                18.1593

                     37                     38                     39
                      A                      A                      A
 Frequencies --    817.2364               839.5982               855.5032
 Red. masses --      1.6217                 1.5211                 3.8652
 Frc consts  --      0.6381                 0.6317                 1.6667
 IR Inten    --      4.3076                22.9097                23.3143

                     40                     41                     42
                      A                      A                      A
 Frequencies --    880.4631               910.8284               914.6821
 Red. masses --      1.3083                 1.7180                 4.2576
 Frc consts  --      0.5975                 0.8397                 2.0987
 IR Inten    --      1.6807                 5.7298                 3.4509

                     43                     44                     45
                      A                      A                      A
 Frequencies --    917.2506               939.2078               977.2863
 Red. masses --      2.6409                 2.4946                 1.3524
 Frc consts  --      1.3091                 1.2965                 0.7610
 IR Inten    --      4.1819                20.4661                 0.2740

                     46                     47                     48
                      A                      A                      A
 Frequencies --   1007.0449              1032.7844              1034.9417
 Red. masses --      5.8323                 1.7282                 1.2226
 Frc consts  --      3.4849                 1.0861                 0.7716
 IR Inten    --      5.9137                11.7400                12.4551

                     49                     50                     51
                      A                      A                      A
 Frequencies --   1047.8570              1086.3138              1122.2814
 Red. masses --      1.9615                 1.6522                 1.2605
 Frc consts  --      1.2690                 1.1487                 0.9354
 IR Inten    --      7.1859                13.3447                 6.5832

                     52                     53                     54
                      A                      A                      A
 Frequencies --   1133.0326              1156.2953              1160.5270
 Red. masses --      1.9249                 2.0962                 1.4650
 Frc consts  --      1.4559                 1.6513                 1.1625
 IR Inten    --     32.2012                32.4262                16.4061

                     55                     56                     57
                      A                      A                      A
 Frequencies --   1197.7785              1214.7337              1248.8424
 Red. masses --      1.9321                 2.0352                 1.7927
 Frc consts  --      1.6331                 1.7694                 1.6473
 IR Inten    --    310.5623                87.1656                39.3190

                     58                     59                     60
                      A                      A                      A
 Frequencies --   1284.3343              1296.0660              1302.8694
 Red. masses --      1.6284                 2.0332                 3.3181
 Frc consts  --      1.5826                 2.0122                 3.3185
 IR Inten    --      6.0249                44.5287                53.7704

                     61                     62                     63
                      A                      A                      A
 Frequencies --   1339.1347              1340.6623              1360.7988
 Red. masses --      1.4762                 2.3557                 1.9196
 Frc consts  --      1.5597                 2.4946                 2.0944
 IR Inten    --     16.8471                 1.0811                62.2191

                     64                     65                     66
                      A                      A                      A
 Frequencies --   1368.6117              1398.9193              1418.4111
 Red. masses --      3.2308                 2.6997                 5.0949
 Frc consts  --      3.5655                 3.1128                 6.0393
 IR Inten    --    150.7414               127.4140                44.4067

                     67                     68                     69
                      A                      A                      A
 Frequencies --   1460.8216              1465.1207              1467.4693
 Red. masses --      2.0964                 3.1153                 1.8065
 Frc consts  --      2.6358                 3.9400                 2.2920
 IR Inten    --     53.5341                88.2481                12.6076

                     70                     71                     72
                      A                      A                      A
 Frequencies --   1479.3617              1516.0320              1527.4310
 Red. masses --      3.0858                 1.0823                 2.2035
 Frc consts  --      3.9789                 1.4656                 3.0288
 IR Inten    --    113.2318                14.1551                33.8818

                     73                     74                     75
                      A                      A                      A
 Frequencies --   1539.5571              1544.8781              1589.5839
 Red. masses --      1.1606                 2.1799                 4.5883
 Frc consts  --      1.6208                 3.0653                 6.8307
 IR Inten    --      8.0922                85.3509                48.8215

                     76                     77                     78
                      A                      A                      A
 Frequencies --   1609.9266              1657.5566              1704.7567
 Red. masses --      6.8152                 5.5344                 5.8722
 Frc consts  --     10.4074                 8.9589                10.0548
 IR Inten    --     74.4491               138.0349                32.2728

                     79                     80                     81
                      A                      A                      A
 Frequencies --   1773.0834              1821.6217              3074.9872
 Red. masses --      9.5096                 8.9829                 1.0360
 Frc consts  --     17.6146                17.5623                 5.7715
 IR Inten    --    460.4863               354.0445                30.8412

                     82                     83                     84
                      A                      A                      A
 Frequencies --   3142.6200              3179.2476              3180.0923
 Red. masses --      1.1031                 1.1034                 1.0894
 Frc consts  --      6.4187                 6.5712                 6.4909
 IR Inten    --     15.8927                 4.3619                28.1569

                     85                     86                     87
                      A                      A                      A
 Frequencies --   3196.3974              3213.3081              3215.1183
 Red. masses --      1.0913                 1.0940                 1.0899
 Frc consts  --      6.5690                 6.6554                 6.6379
 IR Inten    --      3.1613                16.2419                 0.2745

                     88                     89                     90
                      A                      A                      A
 Frequencies --   3257.6677              3260.8316              3273.0961
 Red. masses --      1.0910                 1.0892                 1.0959
 Frc consts  --      6.8219                 6.8238                 6.9176
 IR Inten    --      2.4667                 0.8363                 0.8035

                     91                     92                     93
                      A                      A                      A
 Frequencies --   3283.1693              3581.6091              3703.3917
 Red. masses --      1.1048                 1.0756                 1.0643
 Frc consts  --      7.0167                 8.1295                 8.6000
 IR Inten    --      1.0808                56.2131                80.8179

 - Thermochemistry -
 -------------------
 Temperature   298.150 Kelvin.  Pressure   1.00000 Atm.
 Atom     1 has atomic number  6 and mass  12.00000

 Molecular mass:   271.09569 amu.
 Principal axes and moments of inertia in atomic units:
                           1         2         3
     Eigenvalues --  3976.829806788.312059503.47410
           X            0.99996   0.00596  -0.00619
           Y           -0.00595   0.99998   0.00185
           Z            0.00620  -0.00181   0.99998
 This molecule is an asymmetric top.
 Rotational symmetry number  1.
 Warning -- assumption of classical behavior for rotation
           may cause significant error
 Rotational temperatures (Kelvin)      0.02178     0.01276     0.00911
 Rotational constants (GHZ):           0.45381     0.26586     0.18990
 Zero-point vibrational energy     673997.7 (Joules/Mol)
                                  161.08932 (Kcal/Mol)
 Warning -- explicit consideration of  27 degrees of freedom as
           vibrations may cause significant error
 Vibrational temperatures:     41.50    58.45    61.58    72.91    92.67
          (Kelvin)            130.01   144.77   172.66   206.22   229.94
                              289.02   301.27   345.58   375.16   406.67
                              461.80   491.11   529.50   575.86   674.75
                              737.11   752.41   832.05   839.06   863.62
                              883.30   892.58   906.80   940.88   946.17
                             1026.62  1054.81  1059.95  1064.80  1092.68
                             1107.39  1175.82  1207.99  1230.88  1266.79
                             1310.48  1316.02  1319.72  1351.31  1406.10
                             1448.91  1485.95  1489.05  1507.63  1562.96
                             1614.71  1630.18  1663.65  1669.74  1723.34
                             1747.73  1796.81  1847.87  1864.75  1874.54
                             1926.72  1928.91  1957.89  1969.13  2012.73
                             2040.78  2101.80  2107.98  2111.36  2128.47
                             2181.23  2197.63  2215.08  2222.73  2287.06
                             2316.33  2384.85  2452.76  2551.07  2620.91
                             4424.22  4521.53  4574.23  4575.44  4598.90
                             4623.23  4625.84  4687.06  4691.61  4709.26
                             4723.75  5153.14  5328.35

 Zero-point correction=                           0.256712 (Hartree/Particle)
 Thermal correction to Energy=                    0.274563
 Thermal correction to Enthalpy=                  0.275507
 Thermal correction to Gibbs Free Energy=         0.208768
 Sum of electronic and zero-point Energies=           -931.058868
 Sum of electronic and thermal Energies=              -931.041017
 Sum of electronic and thermal Enthalpies=            -931.040073
 Sum of electronic and thermal Free Energies=         -931.106812

                     E (Thermal)             CV                S
                      KCal/Mol        Cal/Mol-Kelvin    Cal/Mol-Kelvin
 Total                  172.291             66.661            140.465
 Electronic               0.000              0.000              0.000
 Translational            0.889              2.981             42.691
 Rotational               0.889              2.981             33.905
 Vibrational            170.514             60.699             63.868
 Vibration     1          0.593              1.984              5.908
 Vibration     2          0.594              1.981              5.229
 Vibration     3          0.595              1.980              5.125
 Vibration     4          0.595              1.977              4.791
 Vibration     5          0.597              1.971              4.317
 Vibration     6          0.602              1.956              3.652
 Vibration     7          0.604              1.949              3.442
 Vibration     8          0.609              1.933              3.100
 Vibration     9          0.616              1.910              2.759
 Vibration    10          0.622              1.892              2.552
 Vibration    11          0.638              1.839              2.125
 Vibration    12          0.642              1.826              2.049
 Vibration    13          0.657              1.779              1.801
 Vibration    14          0.669              1.745              1.657
 Vibration    15          0.682              1.706              1.518
 Vibration    16          0.706              1.633              1.305
 Vibration    17          0.721              1.593              1.206
 Vibration    18          0.741              1.538              1.088
 Vibration    19          0.766              1.470              0.962
 Vibration    20          0.826              1.319              0.740
 Vibration    21          0.867              1.223              0.628
 Vibration    22          0.878              1.199              0.603
 Vibration    23          0.935              1.078              0.489
 Vibration    24          0.940              1.068              0.480
 Vibration    25          0.958              1.031              0.449
 Vibration    26          0.973              1.002              0.426
 Vibration    27          0.980              0.989              0.416

                           ! Non-Optimized Parameters !
 Normal termination of Gaussian 16 at Mon Dec 14 18:03:24 2020.

 ----------------------------------------------------------------------
 # B3LYP/6-311++G(d,p) empiricaldispersion=gd3bj scf=xqc pop=npa geom=c
 heck
 ----------------------------------------------------------------------

 ----------------------------------------
 CID_102822112_JID_10358_Energie_neutraal
 ----------------------------------------
 Structure from the checkpoint file:  "JID_10358.chk"
 Charge =  0 Multiplicity = 1

 SCF Done:  E(RB3LYP) =  -931.582141080     A.U. after   16 cycles
 Normal termination of Gaussian 16 at Mon Dec 14 18:09:41 2020.

 ----------------------------------------------------------------------
 # B3LYP/6-311++G(d,p) empiricaldispersion=gd3bj scf=xqc pop=npa geom=c
 heck
 ----------------------------------------------------------------------

 --------------------------------------
 CID_102822112_JID_10358_Energie_kation
 --------------------------------------
 Structure from the checkpoint file:  "JID_10358.chk"
 Charge =  1 Multiplicity = 2

 SCF Done:  E(UB3LYP) =  -931.280595542     A.U. after   26 cycles
 Normal termination of Gaussian 16 at Mon Dec 14 18:23:44 2020.
 Gaussian 16:  ES64L-G16RevA.03 25-Dec-2016

 ----------------------------------------------------------------------
 # B3LYP/6-311++G(d,p) empiricaldispersion=gd3bj scf=xqc pop=npa geom=c
 heck
 ----------------------------------------------------------------------

 -------------------------------------
 CID_102822112_JID_10358_Energie_anion
 -------------------------------------
 Structure from the checkpoint file:  "JID_10358.chk"
 Charge = -1 Multiplicity = 2

                         Standard orientation:
 ---------------------------------------------------------------------
 Center     Atomic      Atomic             Coordinates (Angstroms)
 Number     Number       Type             X           Y           Z
 ---------------------------------------------------------------------
      1          6           0       -1.728887   -0.493891    2.166435
      2          7           0       -1.348320   -1.388916    1.082944
      3          6           0       -0.380721   -2.354640    1.188751
      4          6           0       -0.328195   -3.069004    0.004395
      5          6           0       -1.321370   -2.529399   -0.848442
      6          6           0       -1.930831   -1.482005   -0.172563
      7          6           0       -2.906471   -0.529736   -0.732887
      8          8           0       -3.885548   -0.886713   -1.372153
      9          7           0       -2.677892    0.828857   -0.505947
     10          6           0       -1.485699    1.527218   -0.280739
     11          7           0       -1.669041    2.808224    0.075613
     12          6           0       -0.579935    3.544730    0.317252
     13          6           0        0.719750    3.053187    0.252446
     14          6           0        0.909860    1.714710   -0.128331
     15          6           0       -0.218575    0.951360   -0.440400
     16          6           0        2.263064    1.153938   -0.189278
     17          6           0        2.555479   -0.158214   -0.189226
     18          6           0        3.928616   -0.690434   -0.235287
     19          8           0        4.198711   -1.875097   -0.214506
     20          8           0        4.888513    0.271673   -0.300928
     21          1           0       -1.609756   -1.018289    3.117158
     22          1           0       -1.110201    0.408593    2.171628
     23          1           0       -2.773507   -0.203563    2.053803
     24          1           0        0.165282   -2.481928    2.112837
     25          1           0        0.337088   -3.894149   -0.207352
     26          1           0       -1.561417   -2.829462   -1.858497
     27          1           0       -3.468186    1.423415   -0.732037
     28          1           0       -0.763204    4.582935    0.586330
     29          1           0        1.565871    3.690115    0.489596
     30          1           0       -0.113288   -0.057078   -0.814087
     31          1           0        3.081099    1.869892   -0.202727
     32          1           0        1.790122   -0.926161   -0.132834
     33          1           0        5.736941   -0.207313   -0.324144
 ---------------------------------------------------------------------

 SCF Done:  E(UB3LYP) =  -931.625031911     A.U. after   23 cycles

 The electronic state is 2-A.
 Alpha  occ. eigenvalues --  -19.03248 -18.99661 -18.95882 -14.27707 -14.23970
 Alpha  occ. eigenvalues --  -14.16880 -10.18483 -10.14638 -10.12192 -10.12104
 Alpha  occ. eigenvalues --  -10.10666 -10.10561 -10.07585 -10.07178 -10.06905
 Alpha  occ. eigenvalues --  -10.05054 -10.04228 -10.03905 -10.02759 -10.01753
 Alpha  occ. eigenvalues --   -0.96724  -0.94806  -0.89901  -0.87344  -0.85187
 Alpha  occ. eigenvalues --   -0.78864  -0.71711  -0.69337  -0.65471  -0.63068
 Alpha  occ. eigenvalues --   -0.62854  -0.60506  -0.54903  -0.53517  -0.50585
 Alpha  occ. eigenvalues --   -0.49056  -0.48549  -0.45171  -0.44588  -0.43340
 Alpha  occ. eigenvalues --   -0.39619  -0.38011  -0.37920  -0.36441  -0.36223
 Alpha  occ. eigenvalues --   -0.34607  -0.34427  -0.33793  -0.32779  -0.32715
 Alpha  occ. eigenvalues --   -0.31958  -0.31102  -0.30776  -0.29538  -0.29225
 Alpha  occ. eigenvalues --   -0.28590  -0.28115  -0.27251  -0.26127  -0.24301
 Alpha  occ. eigenvalues --   -0.22991  -0.20752  -0.19329  -0.18549  -0.17265
 Alpha  occ. eigenvalues --   -0.15465  -0.14378  -0.13800  -0.12955  -0.11920
 Alpha  occ. eigenvalues --   -0.11486   0.01554
 Alpha virt. eigenvalues --    0.06209   0.07457   0.08703   0.08882   0.09287
 Alpha virt. eigenvalues --    0.09877   0.10797   0.11056   0.11593   0.11778
 Alpha virt. eigenvalues --    0.11905   0.12673   0.13104   0.13880   0.14076

  Beta  occ. eigenvalues --  -19.03214 -18.99661 -18.95589 -14.27693 -14.23977
  Beta  occ. eigenvalues --  -14.16518 -10.18479 -10.14511 -10.12230 -10.12103
  Beta  occ. eigenvalues --  -10.10667 -10.10562 -10.07562 -10.07178 -10.06905
  Beta  occ. eigenvalues --  -10.04884 -10.04160 -10.03764 -10.02511 -10.01490
  Beta  occ. eigenvalues --   -0.96519  -0.94805  -0.89884  -0.86932  -0.85013
  Beta  occ. eigenvalues --   -0.78567  -0.71706  -0.68737  -0.65443  -0.62759
  Beta  occ. eigenvalues --   -0.62334  -0.60500  -0.54782  -0.52838  -0.50503
  Beta  occ. eigenvalues --   -0.49050  -0.48332  -0.45158  -0.44204  -0.43276
  Beta  occ. eigenvalues --   -0.39359  -0.37936  -0.37885  -0.36332  -0.36047
  Beta  occ. eigenvalues --   -0.34493  -0.34285  -0.33746  -0.32690  -0.32624
  Beta  occ. eigenvalues --   -0.31808  -0.30703  -0.30160  -0.29437  -0.29142
  Beta  occ. eigenvalues --   -0.28433  -0.27829  -0.26826  -0.25893  -0.24104
  Beta  occ. eigenvalues --   -0.22698  -0.20206  -0.18326  -0.17369  -0.16843
  Beta  occ. eigenvalues --   -0.15398  -0.13991  -0.13462  -0.12897  -0.10839
  Beta  occ. eigenvalues --   -0.09979
  Beta virt. eigenvalues --    0.06246   0.07392   0.07554   0.08708   0.08875
  Beta virt. eigenvalues --    0.09280   0.09877   0.10891   0.11068   0.11594
  Beta virt. eigenvalues --    0.11887   0.12350   0.13042   0.13400   0.13919

 Mulliken charges and spin densities:
               1          2
     1  C   -0.357685   0.009631
     2  N    0.115747   0.012940
     3  C    0.134550  -0.006216
     4  C   -0.463608   0.004685
     5  C    0.203118   0.005520
     6  C   -0.141154  -0.029518
     7  C   -0.432261   0.004825
     8  O   -0.297807  -0.000387
     9  N   -0.219771  -0.004470
    10  C   -0.781803  -0.049487
    11  N   -0.109724   0.175167
    12  C   -0.273430   0.018555
    13  C   -0.177132   0.106865
    14  C    0.835435   0.101207
    15  C   -0.133119   0.118025
    16  C   -0.395996   0.168877
    17  C   -0.190927   0.160888
    18  C   -0.081841   0.143039
    19  O   -0.386616   0.095311
    20  O   -0.226576   0.008755
    21  H    0.153064   0.000597
    22  H    0.230431   0.000413
    23  H    0.167620   0.000020
    24  H    0.174748   0.000395
    25  H    0.155983   0.000094
    26  H    0.178962   0.001054
    27  H    0.316759   0.001141
    28  H    0.144076  -0.004390
    29  H    0.115530   0.000453
    30  H    0.186977  -0.002986
    31  H    0.185479  -0.014783
    32  H    0.120379  -0.026378
    33  H    0.250591   0.000159
 Sum of Mulliken charges =  -1.00000   1.00000

 Dipole moment (field-independent basis, Debye):
    X=             -2.0532    Y=             -0.3092    Z=              3.5814  Tot=              4.1398
 Quadrupole moment (field-independent basis, Debye-Ang):
   XX=           -173.3574   YY=           -147.2844   ZZ=           -121.4018
   XY=              7.5335   XZ=             -7.1795   YZ=             -2.7694

 Summary of Natural Population Analysis:

                                       Natural Population
                Natural  -----------------------------------------------
    Atom  No    Charge         Core      Valence    Rydberg      Total
 -----------------------------------------------------------------------
      C    1   -0.17514      0.99964     2.16925    0.00625     3.17514
      N    2   -0.19209      0.99962     2.68358    0.00889     3.69209
      C    3   -0.00389      0.99958     1.99394    0.01037     3.00389
      C    4   -0.14552      0.99958     2.13729    0.00865     3.14552
      C    5   -0.11917      0.99952     2.11190    0.00775     3.11917
      C    6    0.01831      0.99947     1.96658    0.01564     2.98169
      C    7    0.32614      0.99961     1.65375    0.02050     2.67386
      O    8   -0.31376      0.99988     3.30794    0.00595     4.31376
      N    9   -0.31535      0.99964     2.80218    0.01353     3.81535
      C   10    0.17308      0.99952     1.81140    0.01600     2.82692
      N   11   -0.21360      0.99967     2.70324    0.01069     3.71360
      C   12    0.02389      0.99961     1.96204    0.01447     2.97611
      C   13   -0.11089      0.99952     2.10329    0.00807     3.11089
      C   14    0.01492      0.99952     1.97653    0.00903     2.98508
      C   15   -0.10810      0.99947     2.09983    0.00880     3.10810
      C   16   -0.03201      0.99952     2.02330    0.00918     3.03201
      C   17   -0.10136      0.99948     2.09305    0.00883     3.10136
      C   18    0.39755      0.99969     1.57785    0.02492     2.60245
      O   19   -0.30114      0.99987     3.29332    0.00795     4.30114
      O   20   -0.35698      0.99988     3.35095    0.00615     4.35698
      H   21    0.09499      0.00000     0.40426    0.00075     0.40501
      H   22    0.10985      0.00000     0.38922    0.00093     0.39015
      H   23    0.10411      0.00000     0.39505    0.00085     0.39589
      H   24    0.10083      0.00000     0.39829    0.00087     0.39917
      H   25    0.10766      0.00000     0.39151    0.00083     0.39234
      H   26    0.10925      0.00000     0.38996    0.00080     0.39075
      H   27    0.20031      0.00000     0.29820    0.00149     0.29969
      H   28    0.08082      0.00000     0.41786    0.00132     0.41918
      H   29    0.09574      0.00000     0.40316    0.00110     0.40426
      H   30    0.10840      0.00000     0.38991    0.00169     0.39160
      H   31    0.09420      0.00000     0.40420    0.00160     0.40580
      H   32    0.09846      0.00000     0.39990    0.00164     0.40154
      H   33    0.23048      0.00000     0.26621    0.00331     0.26952
 =======================================================================
   * Total *    0.00000     19.99228    50.76893    0.23878    71.00000

 Normal termination of Gaussian 16 at Mon Dec 14 18:35:39 2020.
