 Gaussian 16, Revision A.03,

 -----------------------------------------------------------
 # opt freq B3LYP/6-31G(d) empiricaldispersion=gd3bj scf=xqc
 -----------------------------------------------------------

 -------------------------------
 CID_130469915_JID_1861_neutraal
 -------------------------------
 Symbolic Z-matrix:
 Charge =  0 Multiplicity = 1

 SCF Done:  E(RB3LYP) =  -819.660206874     A.U. after   23 cycles
 SCF Done:  E(RB3LYP) =  -819.680270563     A.U. after   16 cycles
 SCF Done:  E(RB3LYP) =  -819.686385688     A.U. after   17 cycles
 SCF Done:  E(RB3LYP) =  -819.690341212     A.U. after   16 cycles
 SCF Done:  E(RB3LYP) =  -819.693990538     A.U. after   16 cycles
 SCF Done:  E(RB3LYP) =  -819.697466453     A.U. after   15 cycles
 SCF Done:  E(RB3LYP) =  -819.698448526     A.U. after   15 cycles
 SCF Done:  E(RB3LYP) =  -819.699059491     A.U. after   14 cycles
 SCF Done:  E(RB3LYP) =  -819.699621841     A.U. after   13 cycles
 SCF Done:  E(RB3LYP) =  -819.700165629     A.U. after   15 cycles
 SCF Done:  E(RB3LYP) =  -819.700511330     A.U. after   13 cycles
 SCF Done:  E(RB3LYP) =  -819.700534124     A.U. after   12 cycles
 SCF Done:  E(RB3LYP) =  -819.700540109     A.U. after   10 cycles
 SCF Done:  E(RB3LYP) =  -819.700541499     A.U. after   10 cycles
 SCF Done:  E(RB3LYP) =  -819.700541829     A.U. after    9 cycles
 SCF Done:  E(RB3LYP) =  -819.700541911     A.U. after    8 cycles
 Optimization completed.
    -- Stationary point found.
 Normal termination of Gaussian 16 at Tue Dec  8 21:24:25 2020.

 --------------------------------------------------------------------
 #N Geom=AllCheck Guess=TCheck SCRF=Check GenChk RB3LYP/6-31G(d) Freq
 --------------------------------------------------------------------

 Structure from the checkpoint file:  "JID_1861.chk"
 -------------------------------
 CID_130469915_JID_1861_neutraal
 -------------------------------
 Charge =  0 Multiplicity = 1

 SCF Done:  E(RB3LYP) =  -819.700541911     A.U. after    1 cycles

  Exact polarizability: 132.142  -5.129 114.566  -9.737  -0.958  82.476
 Approx polarizability: 195.407  -8.026 231.754 -30.509  -3.344 137.607

                      1                      2                      3
                      A                      A                      A
 Frequencies --     36.5204                82.8762                94.7128
 Red. masses --      3.5955                 5.5725                 4.1496
 Frc consts  --      0.0028                 0.0226                 0.0219
 IR Inten    --      0.2630                 1.2605                 0.3290

                      4                      5                      6
                      A                      A                      A
 Frequencies --    207.3858               227.8765               247.5837
 Red. masses --      5.8440                 1.2860                 1.7078
 Frc consts  --      0.1481                 0.0393                 0.0617
 IR Inten    --      1.7161                 0.4436                 0.7489

                      7                      8                      9
                      A                      A                      A
 Frequencies --    275.9834               289.3403               303.5628
 Red. masses --      1.8087                 1.4679                 1.1250
 Frc consts  --      0.0812                 0.0724                 0.0611
 IR Inten    --      0.3572                 0.2580                 0.3996

                     10                     11                     12
                      A                      A                      A
 Frequencies --    352.0500               367.0800               371.5710
 Red. masses --      2.9181                 6.3869                 2.8330
 Frc consts  --      0.2131                 0.5071                 0.2305
 IR Inten    --      2.8730                 6.9246                 3.8654

                     13                     14                     15
                      A                      A                      A
 Frequencies --    392.3830               418.5019               438.7412
 Red. masses --      2.6658                 2.0783                 3.8223
 Frc consts  --      0.2418                 0.2145                 0.4335
 IR Inten    --      1.0689                 1.3182                 5.2774

                     16                     17                     18
                      A                      A                      A
 Frequencies --    471.0011               510.7109               569.3392
 Red. masses --      4.3569                 5.0386                 4.9563
 Frc consts  --      0.5695                 0.7743                 0.9466
 IR Inten    --      3.1172                 8.7598                11.7966

                     19                     20                     21
                      A                      A                      A
 Frequencies --    605.0028               654.1857               725.3925
 Red. masses --     12.8258                 4.7309                 1.6837
 Frc consts  --      2.7660                 1.1929                 0.5220
 IR Inten    --      9.5129                16.4815                18.8847

                     22                     23                     24
                      A                      A                      A
 Frequencies --    734.5675               755.2800               898.1377
 Red. masses --      6.2882                 3.8861                 2.2341
 Frc consts  --      1.9991                 1.3061                 1.0618
 IR Inten    --     23.7238                 1.4559                 3.7328

                     25                     26                     27
                      A                      A                      A
 Frequencies --    913.2224               950.1078               955.6406
 Red. masses --      2.1744                 1.7316                 1.6452
 Frc consts  --      1.0684                 0.9210                 0.8853
 IR Inten    --      0.7825                 2.7817                 1.5677

                     28                     29                     30
                      A                      A                      A
 Frequencies --    978.9018               996.2392              1060.5010
 Red. masses --      1.2075                 2.4382                 1.4565
 Frc consts  --      0.6817                 1.4258                 0.9651
 IR Inten    --      0.0792                37.8175                 0.9679

                     31                     32                     33
                      A                      A                      A
 Frequencies --   1088.2476              1115.0370              1156.2282
 Red. masses --      1.5979                 4.3717                 2.0966
 Frc consts  --      1.1149                 3.2024                 1.6514
 IR Inten    --      3.8743                23.1893                21.3692

                     34                     35                     36
                      A                      A                      A
 Frequencies --   1219.2524              1243.5999              1265.7655
 Red. masses --      1.5517                 2.2251                 2.5219
 Frc consts  --      1.3591                 2.0275                 2.3806
 IR Inten    --     18.2229                 2.1844                41.2359

                     37                     38                     39
                      A                      A                      A
 Frequencies --   1329.9062              1343.6078              1355.0027
 Red. masses --      1.6558                 1.9383                 1.5286
 Frc consts  --      1.7254                 2.0616                 1.6535
 IR Inten    --      4.3885                10.0617                 7.4693

                     40                     41                     42
                      A                      A                      A
 Frequencies --   1430.4152              1434.9531              1463.2900
 Red. masses --      1.2319                 1.2389                 1.2268
 Frc consts  --      1.4850                 1.5031                 1.5477
 IR Inten    --      4.7677                 9.7584                 4.1778

                     43                     44                     45
                      A                      A                      A
 Frequencies --   1504.0465              1510.5611              1515.2017
 Red. masses --      1.0984                 1.0469                 1.0469
 Frc consts  --      1.4639                 1.4074                 1.4161
 IR Inten    --      2.1183                 1.0958                 1.8351

                     46                     47                     48
                      A                      A                      A
 Frequencies --   1516.9085              1535.8548              1538.4435
 Red. masses --      1.0477                 1.0594                 1.0569
 Frc consts  --      1.4203                 1.4724                 1.4738
 IR Inten    --      0.6010                 5.4001                 6.0206

                     49                     50                     51
                      A                      A                      A
 Frequencies --   1545.9069              1612.9222              1835.0818
 Red. masses --      1.0590                 8.5360                11.0561
 Frc consts  --      1.4912                13.0837                21.9363
 IR Inten    --     13.9427                43.8086                36.5758

                     52                     53                     54
                      A                      A                      A
 Frequencies --   3038.2946              3041.1012              3046.7001
 Red. masses --      1.0540                 1.0425                 1.0360
 Frc consts  --      5.7326                 5.6803                 5.6659
 IR Inten    --      4.7983                37.0345                27.6093

                     55                     56                     57
                      A                      A                      A
 Frequencies --   3053.6898              3103.0833              3107.2458
 Red. masses --      1.0388                 1.1001                 1.1028
 Frc consts  --      5.7073                 6.2411                 6.2731
 IR Inten    --     12.7693                 1.5257                 7.4540

                     58                     59                     60
                      A                      A                      A
 Frequencies --   3110.4015              3112.6671              3117.5890
 Red. masses --      1.1022                 1.1020                 1.1014
 Frc consts  --      6.2828                 6.2906                 6.3069
 IR Inten    --      8.0036                36.6592                73.2646

                     61                     62                     63
                      A                      A                      A
 Frequencies --   3125.4849              3142.5187              3283.0139
 Red. masses --      1.1019                 1.0997                 1.0939
 Frc consts  --      6.3418                 6.3988                 6.9467
 IR Inten    --     23.6617                21.5049                 1.7743

 - Thermochemistry -
 -------------------
 Temperature   298.150 Kelvin.  Pressure   1.00000 Atm.
 Atom     1 has atomic number  6 and mass  12.00000

 Molecular mass:   168.07212 amu.
 Principal axes and moments of inertia in atomic units:
                           1         2         3
     Eigenvalues --   952.141142770.449963135.25357
           X            0.99992  -0.01138   0.00576
           Y            0.01144   0.99988  -0.01005
           Z           -0.00565   0.01012   0.99993
 This molecule is an asymmetric top.
 Rotational symmetry number  1.
 Warning -- assumption of classical behavior for rotation
           may cause significant error
 Rotational temperatures (Kelvin)      0.09097     0.03126     0.02763
 Rotational constants (GHZ):           1.89546     0.65143     0.57563
 Zero-point vibrational energy     494813.9 (Joules/Mol)
                                  118.26336 (Kcal/Mol)
 Warning -- explicit consideration of  19 degrees of freedom as
           vibrations may cause significant error
 Vibrational temperatures:     52.54   119.24   136.27   298.38   327.86
          (Kelvin)            356.22   397.08   416.30   436.76   506.52
                              528.15   534.61   564.55   602.13   631.25
                              677.67   734.80   819.15   870.46   941.23
                             1043.68  1056.88  1086.68  1292.22  1313.92
                             1366.99  1374.95  1408.42  1433.37  1525.82
                             1565.75  1604.29  1663.55  1754.23  1789.26
                             1821.15  1913.44  1933.15  1949.55  2058.05
                             2064.58  2105.35  2163.99  2173.36  2180.04
                             2182.49  2209.75  2213.48  2224.22  2320.64
                             2640.27  4371.43  4375.47  4383.52  4393.58
                             4464.64  4470.63  4475.17  4478.43  4485.52
                             4496.88  4521.38  4723.52

 Zero-point correction=                           0.188465 (Hartree/Particle)
 Thermal correction to Energy=                    0.200173
 Thermal correction to Enthalpy=                  0.201117
 Thermal correction to Gibbs Free Energy=         0.151000
 Sum of electronic and zero-point Energies=           -819.512077
 Sum of electronic and thermal Energies=              -819.500369
 Sum of electronic and thermal Enthalpies=            -819.499425
 Sum of electronic and thermal Free Energies=         -819.549542

                     E (Thermal)             CV                S
                      KCal/Mol        Cal/Mol-Kelvin    Cal/Mol-Kelvin
 Total                  125.610             44.618            105.480
 Electronic               0.000              0.000              0.000
 Translational            0.889              2.981             41.266
 Rotational               0.889              2.981             30.493
 Vibrational            123.833             38.657             33.722
 Vibration     1          0.594              1.982              5.439
 Vibration     2          0.600              1.961              3.822
 Vibration     3          0.603              1.953              3.560
 Vibration     4          0.641              1.829              2.067
 Vibration     5          0.651              1.799              1.896
 Vibration     6          0.661              1.767              1.748
 Vibration     7          0.678              1.718              1.558
 Vibration     8          0.686              1.694              1.478
 Vibration     9          0.695              1.667              1.397
 Vibration    10          0.729              1.571              1.157
 Vibration    11          0.740              1.540              1.092
 Vibration    12          0.743              1.531              1.073
 Vibration    13          0.760              1.486              0.991
 Vibration    14          0.781              1.430              0.897
 Vibration    15          0.799              1.386              0.831
 Vibration    16          0.828              1.314              0.735
 Vibration    17          0.866              1.226              0.632
 Vibration    18          0.925              1.098              0.506
 Vibration    19          0.964              1.021              0.441

 Optimization completed.
    -- Stationary point found.
 Normal termination of Gaussian 16 at Tue Dec  8 21:30:01 2020.

 ----------------------------------------------------------------------
 # B3LYP/6-311++G(d,p) empiricaldispersion=gd3bj scf=xqc pop=npa geom=c
 heck
 ----------------------------------------------------------------------

 ---------------------------------------
 CID_130469915_JID_1861_Energie_neutraal
 ---------------------------------------
 Structure from the checkpoint file:  "JID_1861.chk"
 Charge =  0 Multiplicity = 1

 SCF Done:  E(RB3LYP) =  -819.840947513     A.U. after   18 cycles
 Normal termination of Gaussian 16 at Tue Dec  8 21:33:21 2020.

 ----------------------------------------------------------------------
 # B3LYP/6-311++G(d,p) empiricaldispersion=gd3bj scf=xqc pop=npa geom=c
 heck
 ----------------------------------------------------------------------

 -------------------------------------
 CID_130469915_JID_1861_Energie_kation
 -------------------------------------
 Structure from the checkpoint file:  "JID_1861.chk"
 Charge =  1 Multiplicity = 2

 SCF Done:  E(UB3LYP) =  -819.542742585     A.U. after   24 cycles
 Normal termination of Gaussian 16 at Tue Dec  8 21:38:22 2020.
 Gaussian 16:  ES64L-G16RevA.03 25-Dec-2016

 ----------------------------------------------------------------------
 # B3LYP/6-311++G(d,p) empiricaldispersion=gd3bj scf=xqc pop=npa geom=c
 heck
 ----------------------------------------------------------------------

 ------------------------------------
 CID_130469915_JID_1861_Energie_anion
 ------------------------------------
 Structure from the checkpoint file:  "JID_1861.chk"
 Charge = -1 Multiplicity = 2

                         Standard orientation:
 ---------------------------------------------------------------------
 Center     Atomic      Atomic             Coordinates (Angstroms)
 Number     Number       Type             X           Y           Z
 ---------------------------------------------------------------------
      1          6           0        2.134648    1.425753    0.724450
      2          6           0        2.006403    0.026066    0.103870
      3          6           0        3.338051   -0.366073   -0.558102
      4          6           0        1.654452   -0.996962    1.194111
      5          6           0        0.925634    0.041324   -1.023494
      6          6           0       -0.484163    0.253911   -0.547544
      7          7           0       -0.954144    1.416117   -0.282202
      8          6           0       -2.367463    1.512063   -0.096452
      9          6           0       -2.869134    0.420481    0.468880
     10          7           0       -2.569134   -0.747661    0.839454
     11         16           0       -1.431028   -1.315752   -0.413756
     12          1           0        2.903872    1.422062    1.505404
     13          1           0        1.191739    1.754873    1.169139
     14          1           0        2.422683    2.166266   -0.030883
     15          1           0        4.149969   -0.350329    0.177711
     16          1           0        3.289243   -1.375710   -0.983308
     17          1           0        3.601975    0.329839   -1.363330
     18          1           0        0.739899   -0.720941    1.728654
     19          1           0        1.505324   -1.998174    0.773499
     20          1           0        2.466928   -1.056803    1.927065
     21          1           0        1.168152    0.839198   -1.732861
     22          1           0        0.972650   -0.914289   -1.562883
     23          1           0       -2.883613    2.377472   -0.483189
 ---------------------------------------------------------------------

 SCF Done:  E(UB3LYP) =  -819.884908618     A.U. after   25 cycles

 The electronic state is 2-A.
 Alpha  occ. eigenvalues --  -88.69262 -14.15569 -14.14308 -10.07268 -10.07162
 Alpha  occ. eigenvalues --  -10.05820 -10.04743 -10.04206 -10.03989 -10.01508
 Alpha  occ. eigenvalues --  -10.01275  -7.77737  -5.74163  -5.73776  -5.73195
 Alpha  occ. eigenvalues --   -0.79375  -0.73333  -0.70982  -0.61718  -0.58030
 Alpha  occ. eigenvalues --   -0.57118  -0.55048  -0.51543  -0.43689  -0.40445
 Alpha  occ. eigenvalues --   -0.35054  -0.34677  -0.34222  -0.32080  -0.31215
 Alpha  occ. eigenvalues --   -0.28898  -0.28131  -0.25800  -0.25573  -0.25011
 Alpha  occ. eigenvalues --   -0.24253  -0.23317  -0.21692  -0.21335  -0.20846
 Alpha  occ. eigenvalues --   -0.17354  -0.14333  -0.10919  -0.09371  -0.02984
 Alpha  occ. eigenvalues --    0.02424
 Alpha virt. eigenvalues --    0.07544   0.09836   0.10209   0.10771   0.11722
 Alpha virt. eigenvalues --    0.11995   0.12649   0.13053   0.13637   0.14417
 Alpha virt. eigenvalues --    0.14981   0.15763   0.16258   0.16828   0.17104

  Beta  occ. eigenvalues --  -88.69085 -14.15583 -14.13885 -10.07242 -10.07008
  Beta  occ. eigenvalues --  -10.05819 -10.04716 -10.04206 -10.03986 -10.01125
  Beta  occ. eigenvalues --  -10.00868  -7.77569  -5.73804  -5.73619  -5.72986
  Beta  occ. eigenvalues --   -0.78902  -0.72576  -0.70876  -0.61269  -0.58024
  Beta  occ. eigenvalues --   -0.57105  -0.54462  -0.50819  -0.43363  -0.39939
  Beta  occ. eigenvalues --   -0.34844  -0.34579  -0.34077  -0.31785  -0.31003
  Beta  occ. eigenvalues --   -0.28808  -0.27956  -0.25545  -0.25396  -0.24930
  Beta  occ. eigenvalues --   -0.23266  -0.22946  -0.21533  -0.21277  -0.20435
  Beta  occ. eigenvalues --   -0.16640  -0.12955  -0.10483  -0.08335  -0.01709
  Beta virt. eigenvalues --    0.07498   0.09800   0.10033   0.10288   0.10759
  Beta virt. eigenvalues --    0.11783   0.12073   0.12668   0.13305   0.13865
  Beta virt. eigenvalues --    0.14919   0.15033   0.15785   0.16289   0.16954

 Mulliken charges and spin densities:
               1          2
     1  C   -0.668993  -0.021654
     2  C    0.913669  -0.043615
     3  C   -0.531797   0.034783
     4  C   -0.730282   0.010817
     5  C   -0.904263   0.227666
     6  C    0.200036  -0.206182
     7  N    0.089571  -0.011204
     8  C   -0.513925   0.274285
     9  C   -0.026064   0.247768
    10  N   -0.192682   0.089155
    11  S   -0.209139   0.350046
    12  H    0.104543   0.002980
    13  H    0.191621   0.002419
    14  H    0.118069  -0.001806
    15  H    0.113200   0.006133
    16  H    0.126822  -0.001726
    17  H    0.118338   0.001839
    18  H    0.187449   0.003238
    19  H    0.128830   0.002436
    20  H    0.117705   0.003195
    21  H    0.175558   0.006851
    22  H    0.103328   0.008890
    23  H    0.088405   0.013685
 Sum of Mulliken charges =  -1.00000   1.00000

 Dipole moment (field-independent basis, Debye):
    X=              8.3845    Y=              0.0024    Z=             -1.4073  Tot=              8.5018
 Quadrupole moment (field-independent basis, Debye-Ang):
   XX=           -111.8253   YY=            -91.1949   ZZ=            -86.2559
   XY=             -1.7636   XZ=              4.6540   YZ=             -0.2524

 Summary of Natural Population Analysis:

                                       Natural Population
                Natural  -----------------------------------------------
    Atom  No    Charge         Core      Valence    Rydberg      Total
 -----------------------------------------------------------------------
      C    1   -0.28664      0.99963     2.28102    0.00599     3.28664
      C    2   -0.04012      0.99959     2.03204    0.00849     3.04012
      C    3   -0.28190      0.99963     2.27672    0.00555     3.28190
      C    4   -0.28777      0.99963     2.28176    0.00638     3.28777
      C    5   -0.20721      0.99954     2.19624    0.01143     3.20721
      C    6    0.08168      0.99956     1.89695    0.02182     2.91832
      N    7   -0.26069      0.99962     2.74558    0.01549     3.76069
      C    8   -0.12033      0.99942     2.10497    0.01594     3.12033
      C    9    0.27528      0.99930     1.70742    0.01801     2.72472
      N   10   -0.27475      0.99964     2.75817    0.01694     3.77475
      S   11    0.22110      4.99951     2.75704    0.02235     7.77890
      H   12    0.08880      0.00000     0.41037    0.00083     0.41120
      H   13    0.11542      0.00000     0.38369    0.00090     0.38458
      H   14    0.09479      0.00000     0.40445    0.00076     0.40521
      H   15    0.09361      0.00000     0.40550    0.00089     0.40639
      H   16    0.09627      0.00000     0.40290    0.00083     0.40373
      H   17    0.09519      0.00000     0.40396    0.00085     0.40481
      H   18    0.11243      0.00000     0.38665    0.00092     0.38757
      H   19    0.10163      0.00000     0.39743    0.00094     0.39837
      H   20    0.08882      0.00000     0.41027    0.00091     0.41118
      H   21    0.10013      0.00000     0.39832    0.00155     0.39987
      H   22    0.10195      0.00000     0.39696    0.00109     0.39805
      H   23    0.09231      0.00000     0.40649    0.00120     0.40769
 =======================================================================
   * Total *   -0.00000     14.99507    29.84489    0.16004    45.00000

 Normal termination of Gaussian 16 at Tue Dec  8 21:43:35 2020.
