 Gaussian 16, Revision A.03,

 -----------------------------------------------------------
 # opt freq B3LYP/6-31G(d) empiricaldispersion=gd3bj scf=xqc
 -----------------------------------------------------------

 -------------------------------
 CID_152395425_JID_1304_neutraal
 -------------------------------
 Symbolic Z-matrix:
 Charge =  0 Multiplicity = 1

 SCF Done:  E(RB3LYP) =  -880.189657908     A.U. after   16 cycles
 SCF Done:  E(RB3LYP) =  -880.197525404     A.U. after   15 cycles
 SCF Done:  E(RB3LYP) =  -880.199071925     A.U. after   14 cycles
 SCF Done:  E(RB3LYP) =  -880.199182055     A.U. after   12 cycles
 SCF Done:  E(RB3LYP) =  -880.199300715     A.U. after   12 cycles
 SCF Done:  E(RB3LYP) =  -880.199308804     A.U. after    9 cycles
 SCF Done:  E(RB3LYP) =  -880.199309353     A.U. after    9 cycles
 Optimization completed.
    -- Stationary point found.
 Normal termination of Gaussian 16 at Mon Dec 14 16:23:41 2020.

 --------------------------------------------------------------------
 #N Geom=AllCheck Guess=TCheck SCRF=Check GenChk RB3LYP/6-31G(d) Freq
 --------------------------------------------------------------------

 Structure from the checkpoint file:  "JID_1304.chk"
 -------------------------------
 CID_152395425_JID_1304_neutraal
 -------------------------------
 Charge =  0 Multiplicity = 1

 SCF Done:  E(RB3LYP) =  -880.199309353     A.U. after    1 cycles

  Exact polarizability: 128.252  10.009 113.041   0.001   0.006  37.699
 Approx polarizability: 224.273  32.186 243.573   0.001   0.041  60.561

 ******    1 imaginary frequencies (negative Signs) ******

                      1                      2                      3
                      A                      A                      A
 Frequencies --    -57.4775               125.0671               130.7446
 Red. masses --     11.3349                12.6144                15.0558
 Frc consts  --      0.0221                 0.1163                 0.1516
 IR Inten    --      0.7688                 0.9746                 0.1022

                      4                      5                      6
                      A                      A                      A
 Frequencies --    213.1610               285.6096               290.2643
 Red. masses --      7.8949                 7.0551                11.6048
 Frc consts  --      0.2114                 0.3391                 0.5761
 IR Inten    --      0.2786                 0.0423                 2.5172

                      7                      8                      9
                      A                      A                      A
 Frequencies --    446.1618               474.2601               521.3818
 Red. masses --     13.0769                13.4837                 8.2674
 Frc consts  --      1.5337                 1.7869                 1.3241
 IR Inten    --      4.8253                 6.8307                 1.7048

                     10                     11                     12
                      A                      A                      A
 Frequencies --    523.6673               598.7009               605.6439
 Red. masses --      6.4528                14.3711                 8.1087
 Frc consts  --      1.0426                 3.0350                 1.7524
 IR Inten    --      0.3843                 3.6099                 1.7372

                     13                     14                     15
                      A                      A                      A
 Frequencies --    624.7022               701.9391               740.4791
 Red. masses --     10.8033                 7.7776                10.1513
 Frc consts  --      2.4840                 2.2578                 3.2794
 IR Inten    --      5.6740                 2.5353                 1.2412

                     16                     17                     18
                      A                      A                      A
 Frequencies --    796.2259               801.7137               831.0146
 Red. masses --      8.4060                 1.2334                 1.2742
 Frc consts  --      3.1399                 0.4671                 0.5184
 IR Inten    --     84.7029                29.1091                 6.0833

                     19                     20                     21
                      A                      A                      A
 Frequencies --    871.1453              1029.0378              1161.0842
 Red. masses --      6.3702                 6.9789                 2.4550
 Frc consts  --      2.8483                 4.3541                 1.9500
 IR Inten    --      7.8317                40.9062                13.1797

                     22                     23                     24
                      A                      A                      A
 Frequencies --   1196.3774              1254.1179              1303.3021
 Red. masses --      6.7908                 2.1572                 1.6761
 Frc consts  --      5.7268                 1.9991                 1.6774
 IR Inten    --      5.8893                30.9521                 8.1476

                     25                     26                     27
                      A                      A                      A
 Frequencies --   1339.1291              1383.3677              1446.9812
 Red. masses --      9.6287                 8.7202                 5.4420
 Frc consts  --     10.1733                 9.8323                 6.7133
 IR Inten    --     46.8658                 5.7782                61.8319

                     28                     29                     30
                      A                      A                      A
 Frequencies --   1483.0840              1523.1152              1544.8064
 Red. masses --      7.7416                 7.2436                11.3509
 Frc consts  --     10.0325                 9.9008                15.9598
 IR Inten    --     48.1455                38.3386                 8.2940

                     31                     32                     33
                      A                      A                      A
 Frequencies --   2243.9847              3250.4478              3285.1597
 Red. masses --     13.9997                 1.0943                 1.0966
 Frc consts  --     41.5345                 6.8119                 6.9731
 IR Inten    --    416.3440                 0.5533                 2.1450

 - Thermochemistry -
 -------------------
 Temperature   298.150 Kelvin.  Pressure   1.00000 Atm.
 Atom     1 has atomic number  6 and mass  12.00000

 Molecular mass:   166.00617 amu.
 Principal axes and moments of inertia in atomic units:
                           1         2         3
     Eigenvalues --   924.972502168.147443093.11950
           X            1.00000  -0.00181  -0.00000
           Y            0.00181   1.00000  -0.00002
           Z            0.00000   0.00002   1.00000
 This molecule is an asymmetric top.
 Rotational symmetry number  1.
 Warning -- assumption of classical behavior for rotation
           may cause significant error
 Rotational temperatures (Kelvin)      0.09364     0.03995     0.02800
 Rotational constants (GHZ):           1.95113     0.83239     0.58347
    1 imaginary frequencies ignored.
 Zero-point vibrational energy     197538.6 (Joules/Mol)
                                   47.21286 (Kcal/Mol)
 Warning -- explicit consideration of  11 degrees of freedom as
           vibrations may cause significant error
 Vibrational temperatures:    179.94   188.11   306.69   410.93   417.63
          (Kelvin)            641.93   682.35   750.15   753.44   861.40
                              871.39   898.81  1009.93  1065.38  1145.59
                             1153.49  1195.64  1253.38  1480.56  1670.54
                             1721.32  1804.40  1875.16  1926.71  1990.36
                             2081.88  2133.83  2191.42  2222.63  3228.59
                             4676.67  4726.61

 Zero-point correction=                           0.075238 (Hartree/Particle)
 Thermal correction to Energy=                    0.082867
 Thermal correction to Enthalpy=                  0.083811
 Thermal correction to Gibbs Free Energy=         0.041967
 Sum of electronic and zero-point Energies=           -880.124071
 Sum of electronic and thermal Energies=              -880.116442
 Sum of electronic and thermal Enthalpies=            -880.115498
 Sum of electronic and thermal Free Energies=         -880.157342

                     E (Thermal)             CV                S
                      KCal/Mol        Cal/Mol-Kelvin    Cal/Mol-Kelvin
 Total                   52.000             28.815             88.069
 Electronic               0.000              0.000              0.000
 Translational            0.889              2.981             41.229
 Rotational               0.889              2.981             30.207
 Vibrational             50.223             22.854             16.633
 Vibration     1          0.610              1.928              3.021
 Vibration     2          0.612              1.923              2.935
 Vibration     3          0.644              1.821              2.016
 Vibration     4          0.683              1.700              1.500
 Vibration     5          0.686              1.692              1.472
 Vibration     6          0.805              1.369              0.807
 Vibration     7          0.831              1.307              0.726
 Vibration     8          0.876              1.203              0.607
 Vibration     9          0.879              1.198              0.602
 Vibration    10          0.957              1.035              0.452
 Vibration    11          0.964              1.020              0.440

                           ! Non-Optimized Parameters !
 Normal termination of Gaussian 16 at Mon Dec 14 16:25:47 2020.

 ----------------------------------------------------------------------
 # B3LYP/6-311++G(d,p) empiricaldispersion=gd3bj scf=xqc pop=npa geom=c
 heck
 ----------------------------------------------------------------------

 ---------------------------------------
 CID_152395425_JID_1304_Energie_neutraal
 ---------------------------------------
 Structure from the checkpoint file:  "JID_1304.chk"
 Charge =  0 Multiplicity = 1

 SCF Done:  E(RB3LYP) =  -880.350359950     A.U. after   16 cycles
 Normal termination of Gaussian 16 at Mon Dec 14 16:26:22 2020.

 ----------------------------------------------------------------------
 # B3LYP/6-311++G(d,p) empiricaldispersion=gd3bj scf=xqc pop=npa geom=c
 heck
 ----------------------------------------------------------------------

 -------------------------------------
 CID_152395425_JID_1304_Energie_kation
 -------------------------------------
 Structure from the checkpoint file:  "JID_1304.chk"
 Charge =  1 Multiplicity = 2

 SCF Done:  E(UB3LYP) =  -880.036896530     A.U. after   24 cycles
 Normal termination of Gaussian 16 at Mon Dec 14 16:27:40 2020.
 Gaussian 16:  ES64L-G16RevA.03 25-Dec-2016

 ----------------------------------------------------------------------
 # B3LYP/6-311++G(d,p) empiricaldispersion=gd3bj scf=xqc pop=npa geom=c
 heck
 ----------------------------------------------------------------------

 ------------------------------------
 CID_152395425_JID_1304_Energie_anion
 ------------------------------------
 Structure from the checkpoint file:  "JID_1304.chk"
 Charge = -1 Multiplicity = 2

                         Standard orientation:
 ---------------------------------------------------------------------
 Center     Atomic      Atomic             Coordinates (Angstroms)
 Number     Number       Type             X           Y           Z
 ---------------------------------------------------------------------
      1          6           0        0.859680    2.033132   -0.000437
      2          7           0       -0.475293    2.120453   -0.000072
      3          7           0       -0.931910    0.850288    0.000386
      4          6           0        0.084185   -0.059575    0.000344
      5          6           0        1.265248    0.682932   -0.000239
      6         16           0        2.591821   -0.444450   -0.000320
      7          6           0        1.399539   -1.759337    0.000456
      8          7           0        0.141406   -1.421620    0.000742
      9          7           0       -2.319614    0.693585    0.001112
     10          7           0       -2.681257   -0.502601   -0.000294
     11          7           0       -3.206461   -1.514702   -0.001224
     12          1           0        1.449189    2.937990   -0.000830
     13          1           0        1.741665   -2.787516    0.000657
 ---------------------------------------------------------------------

 SCF Done:  E(UB3LYP) =  -880.361566976     A.U. after   33 cycles
 SCF Done:  E(UB3LYP) =  -880.361566976     a.u. after    1 cycles

 The electronic state is 2-A.
 Alpha  occ. eigenvalues --  -88.77315 -14.29509 -14.26743 -14.22631 -14.21788
 Alpha  occ. eigenvalues --  -14.21672 -14.18713 -10.12918 -10.11627 -10.08451
 Alpha  occ. eigenvalues --  -10.08280  -7.85859  -5.82150  -5.81825  -5.81429
 Alpha  occ. eigenvalues --   -0.98310  -0.93424  -0.85829  -0.81803  -0.70324
 Alpha  occ. eigenvalues --   -0.67727  -0.64653  -0.52353  -0.51619  -0.48589
 Alpha  occ. eigenvalues --   -0.40540  -0.36857  -0.36631  -0.35031  -0.32858
 Alpha  occ. eigenvalues --   -0.32727  -0.32021  -0.27607  -0.27349  -0.25740
 Alpha  occ. eigenvalues --   -0.20318  -0.19138  -0.18403  -0.16943  -0.15639
 Alpha  occ. eigenvalues --   -0.12580  -0.07199   0.04929
 Alpha virt. eigenvalues --    0.07290   0.07312   0.08420   0.11528   0.11714
 Alpha virt. eigenvalues --    0.12624   0.13391   0.14434   0.15820   0.16305
 Alpha virt. eigenvalues --    0.16687   0.17599   0.18017   0.18485   0.18694

  Beta  occ. eigenvalues --  -88.77303 -14.29255 -14.26183 -14.22638 -14.21793
  Beta  occ. eigenvalues --  -14.21676 -14.17822 -10.12857 -10.11621 -10.08454
  Beta  occ. eigenvalues --  -10.08253  -7.85847  -5.82107  -5.81820  -5.81424
  Beta  occ. eigenvalues --   -0.97651  -0.92716  -0.85773  -0.81253  -0.70101
  Beta  occ. eigenvalues --   -0.67550  -0.64410  -0.52030  -0.51335  -0.48452
  Beta  occ. eigenvalues --   -0.40361  -0.36657  -0.36461  -0.34443  -0.32638
  Beta  occ. eigenvalues --   -0.31669  -0.30620  -0.27206  -0.25698  -0.25278
  Beta  occ. eigenvalues --   -0.20239  -0.18608  -0.18356  -0.15589  -0.15503
  Beta  occ. eigenvalues --   -0.12574  -0.06914
  Beta virt. eigenvalues --    0.07386   0.08202   0.08417   0.11627   0.11963
  Beta virt. eigenvalues --    0.12517   0.13410   0.14017   0.14455   0.16007
  Beta virt. eigenvalues --    0.16303   0.16870   0.17515   0.18148   0.18281

 Mulliken charges and spin densities:
               1          2
     1  C   -0.394001   0.336985
     2  N    0.187023  -0.163197
     3  N    0.028831   0.145432
     4  C   -1.014856  -0.037037
     5  C    1.328447  -0.495512
     6  S   -0.530305   0.063198
     7  C    0.683594  -0.657321
     8  N   -0.136244   0.071076
     9  N    0.030958  -0.306404
    10  N    0.208814   0.238933
    11  N   -0.778233   0.785417
    12  H    0.018653   0.125377
    13  H   -0.632680   0.893055
 Sum of Mulliken charges =  -1.00000   1.00000

 Dipole moment (field-independent basis, Debye):
    X=              5.4934    Y=              2.8033    Z=             -0.0005  Tot=              6.1673
 Quadrupole moment (field-independent basis, Debye-Ang):
   XX=           -110.4271   YY=           -101.4916   ZZ=            -75.7672
   XY=              1.8405   XZ=             -0.0036   YZ=             -0.0056

 Summary of Natural Population Analysis:

                                       Natural Population
                Natural  -----------------------------------------------
    Atom  No    Charge         Core      Valence    Rydberg      Total
 -----------------------------------------------------------------------
      C    1   -0.03700      0.99956     2.02198    0.01546     3.03700
      N    2   -0.13901      0.99973     2.62689    0.01240     3.63901
      N    3    0.00309      0.99957     2.48365    0.01370     3.49691
      C    4    0.13336      0.99936     1.85324    0.01404     2.86664
      C    5   -0.16061      0.99932     2.15101    0.01028     3.16061
      S    6    0.17186      4.99948     2.80759    0.02107     7.82814
      C    7   -0.04230      0.99966     2.02387    0.01878     3.04230
      N    8   -0.22276      0.99965     2.71240    0.01071     3.72276
      N    9   -0.13216      0.99970     2.61570    0.01675     3.63216
      N   10    0.13708      0.99972     2.34888    0.01433     3.36292
      N   11    0.09232      0.99981     2.39481    0.01305     3.40768
      H   12    0.09632      0.00000     0.40244    0.00124     0.40368
      H   13    0.09982      0.00000     0.39778    0.00240     0.40018
 =======================================================================
   * Total *   -0.00000     14.99556    26.84024    0.16420    42.00000

 Normal termination of Gaussian 16 at Mon Dec 14 16:29:27 2020.
