 Gaussian 16, Revision A.03,

 -----------------------------------------------------------
 # opt freq B3LYP/6-31G(d) empiricaldispersion=gd3bj scf=xqc
 -----------------------------------------------------------

 ------------------------------
 CID_79915380_JID_7006_neutraal
 ------------------------------
 Symbolic Z-matrix:
 Charge =  0 Multiplicity = 1

 SCF Done:  E(RB3LYP) =  -754.977653228     A.U. after   12 cycles
 SCF Done:  E(RB3LYP) =  -754.980059488     A.U. after   11 cycles
 SCF Done:  E(RB3LYP) =  -754.977623685     A.U. after   11 cycles
 SCF Done:  E(RB3LYP) =  -754.983233508     A.U. after   11 cycles
 SCF Done:  E(RB3LYP) =  -754.980422256     A.U. after   12 cycles
 SCF Done:  E(RB3LYP) =  -754.984615002     A.U. after   11 cycles
 SCF Done:  E(RB3LYP) =  -754.985539833     A.U. after   10 cycles
 SCF Done:  E(RB3LYP) =  -754.985915509     A.U. after   10 cycles
 SCF Done:  E(RB3LYP) =  -754.986075112     A.U. after   10 cycles
 SCF Done:  E(RB3LYP) =  -754.986176274     A.U. after   10 cycles
 SCF Done:  E(RB3LYP) =  -754.986253349     A.U. after    6 cycles
 SCF Done:  E(RB3LYP) =  -754.986253408     A.U. after    6 cycles
 SCF Done:  E(RB3LYP) =  -754.986253489     A.U. after    6 cycles
 SCF Done:  E(RB3LYP) =  -754.986253560     A.U. after    6 cycles
 SCF Done:  E(RB3LYP) =  -754.986253616     A.U. after    6 cycles
 SCF Done:  E(RB3LYP) =  -754.986253647     A.U. after    5 cycles
 Optimization completed.
    -- Stationary point found.
 Normal termination of Gaussian 16 at Mon Dec 14 19:06:54 2020.

 --------------------------------------------------------------------
 #N Geom=AllCheck Guess=TCheck SCRF=Check GenChk RB3LYP/6-31G(d) Freq
 --------------------------------------------------------------------

 Structure from the checkpoint file:  "JID_7006.chk"
 ------------------------------
 CID_79915380_JID_7006_neutraal
 ------------------------------
 Charge =  0 Multiplicity = 1

 SCF Done:  E(RB3LYP) =  -754.986253647     A.U. after    1 cycles

  Exact polarizability: 176.024   3.480 151.964  -1.825  -1.222 138.174
 Approx polarizability: 218.188   0.586 207.061  -4.284  -1.520 213.941

                      1                      2                      3
                      A                      A                      A
 Frequencies --     15.9123                62.0640                77.6743
 Red. masses --      3.5525                 3.1221                 2.3175
 Frc consts  --      0.0005                 0.0071                 0.0082
 IR Inten    --      0.3043                 0.1141                 1.0266

                      4                      5                      6
                      A                      A                      A
 Frequencies --     81.5566                87.5449                95.8380
 Red. masses --      3.0247                 2.6690                 3.0046
 Frc consts  --      0.0119                 0.0121                 0.0163
 IR Inten    --      0.1287                 1.3740                 0.1494

                      7                      8                      9
                      A                      A                      A
 Frequencies --    111.9828               126.0545               165.9036
 Red. masses --      3.5533                 1.9653                 2.0048
 Frc consts  --      0.0263                 0.0184                 0.0325
 IR Inten    --      0.7466                 0.1009                 0.9685

                     10                     11                     12
                      A                      A                      A
 Frequencies --    175.5588               192.8742               212.1710
 Red. masses --      2.5564                 2.8267                 1.4731
 Frc consts  --      0.0464                 0.0620                 0.0391
 IR Inten    --      0.7148                 6.3468                 0.8248

                     13                     14                     15
                      A                      A                      A
 Frequencies --    226.6554               251.4595               265.2957
 Red. masses --      2.9458                 1.5748                 1.9929
 Frc consts  --      0.0892                 0.0587                 0.0826
 IR Inten    --      1.5922                 0.7907                 1.5559

                     16                     17                     18
                      A                      A                      A
 Frequencies --    294.2917               310.5714               346.0109
 Red. masses --      1.8643                 2.1139                 2.7897
 Frc consts  --      0.0951                 0.1201                 0.1968
 IR Inten    --      0.0771                 0.7106                 4.6848

                     19                     20                     21
                      A                      A                      A
 Frequencies --    362.1014               395.7168               422.1747
 Red. masses --      2.4250                 2.4304                 2.1557
 Frc consts  --      0.1873                 0.2242                 0.2264
 IR Inten    --      5.2134                 7.0341                 3.0937

                     22                     23                     24
                      A                      A                      A
 Frequencies --    431.5761               461.4964               484.3634
 Red. masses --      2.6344                 2.4537                 2.6191
 Frc consts  --      0.2891                 0.3079                 0.3620
 IR Inten    --      3.3062                 1.8554                 0.5105

                     25                     26                     27
                      A                      A                      A
 Frequencies --    519.7791               573.3331               603.9179
 Red. masses --      2.6945                 3.0060                 4.4339
 Frc consts  --      0.4289                 0.5822                 0.9528
 IR Inten    --      4.7005                 0.8136                 2.0298

                     28                     29                     30
                      A                      A                      A
 Frequencies --    645.6128               684.9925               718.8464
 Red. masses --      1.6354                 4.4210                 2.3389
 Frc consts  --      0.4016                 1.2222                 0.7121
 IR Inten    --     92.7906                 3.4561                 1.5055

                     31                     32                     33
                      A                      A                      A
 Frequencies --    738.3505               778.7325               794.5697
 Red. masses --      2.3647                 1.7090                 1.2475
 Frc consts  --      0.7596                 0.6106                 0.4640
 IR Inten    --     15.2015                 4.9770                 3.6460

                     34                     35                     36
                      A                      A                      A
 Frequencies --    825.2128               849.6540               856.5574
 Red. masses --      1.8472                 1.4942                 2.0739
 Frc consts  --      0.7411                 0.6355                 0.8965
 IR Inten    --      7.5904                 1.3484                 0.5859

                     37                     38                     39
                      A                      A                      A
 Frequencies --    878.1485               894.4080               908.1716
 Red. masses --      1.9987                 2.2659                 2.3257
 Frc consts  --      0.9081                 1.0680                 1.1302
 IR Inten    --      5.1024                 1.1982                 6.2102

                     40                     41                     42
                      A                      A                      A
 Frequencies --    928.5048               932.6393               940.7301
 Red. masses --      1.8902                 2.9804                 2.4005
 Frc consts  --      0.9601                 1.5274                 1.2516
 IR Inten    --      1.6407                11.3996                 1.4527

                     43                     44                     45
                      A                      A                      A
 Frequencies --    967.4027               995.9454              1003.1046
 Red. masses --      2.1358                 1.9852                 2.3641
 Frc consts  --      1.1777                 1.1602                 1.4016
 IR Inten    --     10.9862                 4.8090                 6.8763

                     46                     47                     48
                      A                      A                      A
 Frequencies --   1017.6721              1027.2106              1043.0169
 Red. masses --      2.1781                 1.5973                 2.2939
 Frc consts  --      1.3290                 0.9930                 1.4703
 IR Inten    --     22.9315                 5.8562                 1.9829

                     49                     50                     51
                      A                      A                      A
 Frequencies --   1076.1227              1085.9883              1094.8111
 Red. masses --      2.0164                 2.5179                 2.0592
 Frc consts  --      1.3758                 1.7496                 1.4542
 IR Inten    --      9.8797                 6.6820                 8.0058

                     52                     53                     54
                      A                      A                      A
 Frequencies --   1106.2019              1119.0155              1126.7616
 Red. masses --      2.4273                 3.7101                 2.8939
 Frc consts  --      1.7500                 2.7372                 2.1647
 IR Inten    --     31.2832               119.9636                20.0660

                     55                     56                     57
                      A                      A                      A
 Frequencies --   1135.7627              1144.9182              1160.0260
 Red. masses --      2.0947                 2.2950                 2.0413
 Frc consts  --      1.5920                 1.7725                 1.6184
 IR Inten    --     19.6349                 9.4477                22.4091

                     58                     59                     60
                      A                      A                      A
 Frequencies --   1182.1240              1191.6154              1194.2557
 Red. masses --      2.9169                 2.3501                 1.8744
 Frc consts  --      2.4016                 1.9661                 1.5751
 IR Inten    --     29.6896                33.8302                16.4117

                     61                     62                     63
                      A                      A                      A
 Frequencies --   1219.5061              1238.0215              1240.9422
 Red. masses --      2.1550                 1.2430                 1.2489
 Frc consts  --      1.8883                 1.1224                 1.1332
 IR Inten    --     11.3101                 0.6847                 7.5133

                     64                     65                     66
                      A                      A                      A
 Frequencies --   1264.4498              1274.8551              1291.2422
 Red. masses --      1.2500                 1.3552                 1.3093
 Frc consts  --      1.1775                 1.2977                 1.2862
 IR Inten    --      1.6106                15.2638                 8.7793

                     67                     68                     69
                      A                      A                      A
 Frequencies --   1292.0355              1305.3951              1323.1247
 Red. masses --      1.2609                 1.3595                 1.2109
 Frc consts  --      1.2402                 1.3649                 1.2490
 IR Inten    --      6.2772                 0.9592                 3.1929

                     70                     71                     72
                      A                      A                      A
 Frequencies --   1323.6413              1334.0664              1358.1708
 Red. masses --      1.3623                 1.2597                 1.4088
 Frc consts  --      1.4063                 1.3209                 1.5312
 IR Inten    --     13.6091                11.4689                 2.3616

                     73                     74                     75
                      A                      A                      A
 Frequencies --   1363.7611              1373.7827              1382.0080
 Red. masses --      1.2127                 1.4528                 1.2736
 Frc consts  --      1.3288                 1.6154                 1.4332
 IR Inten    --      0.2002                 6.8755                 7.9444

                     76                     77                     78
                      A                      A                      A
 Frequencies --   1391.3717              1399.8752              1403.6134
 Red. masses --      1.2514                 1.3640                 1.3155
 Frc consts  --      1.4273                 1.5749                 1.5270
 IR Inten    --     11.5034                 1.1804                12.3416

                     79                     80                     81
                      A                      A                      A
 Frequencies --   1411.3403              1416.3221              1424.4887
 Red. masses --      1.2968                 1.3994                 1.3557
 Frc consts  --      1.5220                 1.6539                 1.6208
 IR Inten    --      0.1461                 4.2234                 3.6542

                     82                     83                     84
                      A                      A                      A
 Frequencies --   1431.3989              1439.6387              1445.2761
 Red. masses --      1.3176                 1.2646                 1.3350
 Frc consts  --      1.5906                 1.5443                 1.6429
 IR Inten    --      5.1126                10.8944                 0.4411

                     85                     86                     87
                      A                      A                      A
 Frequencies --   1446.9873              1502.0998              1513.0833
 Red. masses --      1.2716                 1.1084                 1.0926
 Frc consts  --      1.5687                 1.4735                 1.4738
 IR Inten    --      3.8954                 1.7091                 4.0233

                     88                     89                     90
                      A                      A                      A
 Frequencies --   1515.4939              1519.6255              1520.9079
 Red. masses --      1.1062                 1.0787                 1.0513
 Frc consts  --      1.4970                 1.4677                 1.4327
 IR Inten    --     19.2709                 5.6387                 0.7493

                     91                     92                     93
                      A                      A                      A
 Frequencies --   1522.5036              1525.2264              1531.1388
 Red. masses --      1.0600                 1.0898                 1.0489
 Frc consts  --      1.4476                 1.4937                 1.4488
 IR Inten    --      5.2851                 4.0819                 6.8698

                     94                     95                     96
                      A                      A                      A
 Frequencies --   1532.0637              1536.8875              1539.1095
 Red. masses --      1.1022                 1.0837                 1.0958
 Frc consts  --      1.5242                 1.5082                 1.5294
 IR Inten    --      8.9252                 6.7922                 3.1191

                     97                     98                     99
                      A                      A                      A
 Frequencies --   1540.6339              1549.2185              1564.0660
 Red. masses --      1.0871                 1.0856                 1.0993
 Frc consts  --      1.5203                 1.5351                 1.5844
 IR Inten    --      6.1409                 4.5822                 0.9976

                    100                    101                    102
                      A                      A                      A
 Frequencies --   2995.2194              3012.7183              3015.8189
 Red. masses --      1.0744                 1.0793                 1.0747
 Frc consts  --      5.6791                 5.7716                 5.7590
 IR Inten    --     59.3861                22.4123                68.9407

                    103                    104                    105
                      A                      A                      A
 Frequencies --   3021.9406              3036.4080              3037.9958
 Red. masses --      1.0695                 1.0619                 1.0676
 Frc consts  --      5.7542                 5.7684                 5.8054
 IR Inten    --     43.2190                27.7662                 8.4081

                    106                    107                    108
                      A                      A                      A
 Frequencies --   3038.5212              3042.4208              3043.7400
 Red. masses --      1.0637                 1.0523                 1.0483
 Frc consts  --      5.7862                 5.7389                 5.7221
 IR Inten    --     89.6431                 9.0584                48.5195

                    109                    110                    111
                      A                      A                      A
 Frequencies --   3048.7098              3054.9135              3062.4622
 Red. masses --      1.0360                 1.0772                 1.0782
 Frc consts  --      5.6736                 5.9228                 5.9577
 IR Inten    --     28.9021                 7.3081                39.4546

                    112                    113                    114
                      A                      A                      A
 Frequencies --   3069.6896              3074.1438              3078.3911
 Red. masses --      1.0928                 1.0949                 1.0908
 Frc consts  --      6.0672                 6.0962                 6.0902
 IR Inten    --     15.7305                23.5008                11.1638

                    115                    116                    117
                      A                      A                      A
 Frequencies --   3079.4702              3083.1337              3088.5788
 Red. masses --      1.0985                 1.0775                 1.0973
 Frc consts  --      6.1377                 6.0344                 6.1674
 IR Inten    --     59.9334                21.5689                32.6035

                    118                    119                    120
                      A                      A                      A
 Frequencies --   3102.6701              3103.4843              3114.7799
 Red. masses --      1.0967                 1.1009                 1.1020
 Frc consts  --      6.2201                 6.2475                 6.2990
 IR Inten    --     69.6359                41.8171                41.8788

                    121                    122                    123
                      A                      A                      A
 Frequencies --   3118.6934              3121.6740              3131.1037
 Red. masses --      1.1019                 1.0917                 1.1059
 Frc consts  --      6.3142                 6.2683                 6.3879
 IR Inten    --     44.6463                39.8466                33.3220

                    124                    125                    126
                      A                      A                      A
 Frequencies --   3132.3229              3205.5837              3507.5866
 Red. masses --      1.1000                 1.0875                 1.0739
 Frc consts  --      6.3587                 6.5842                 7.7844
 IR Inten    --     47.1506                12.6610                 0.5504

 - Thermochemistry -
 -------------------
 Temperature   298.150 Kelvin.  Pressure   1.00000 Atm.
 Atom     1 has atomic number  6 and mass  12.00000

 Molecular mass:   241.20418 amu.
 Principal axes and moments of inertia in atomic units:
                           1         2         3
     Eigenvalues --  2930.144865481.790587081.00808
           X            0.99997   0.00755   0.00084
           Y           -0.00756   0.99991   0.01067
           Z           -0.00076  -0.01067   0.99994
 This molecule is an asymmetric top.
 Rotational symmetry number  1.
 Warning -- assumption of classical behavior for rotation
           may cause significant error
 Rotational temperatures (Kelvin)      0.02956     0.01580     0.01223
 Rotational constants (GHZ):           0.61592     0.32922     0.25487
 Zero-point vibrational energy    1064858.9 (Joules/Mol)
                                  254.50739 (Kcal/Mol)
 Warning -- explicit consideration of  27 degrees of freedom as
           vibrations may cause significant error
 Vibrational temperatures:     22.89    89.30   111.76   117.34   125.96
          (Kelvin)            137.89   161.12   181.36   238.70   252.59
                              277.50   305.27   326.11   361.79   381.70
                              423.42   446.84   497.83   520.98   569.35
                              607.42   620.94   663.99   696.89   747.85
                              824.90   868.90   928.89   985.55  1034.26
                             1062.32  1120.42  1143.21  1187.30  1222.46
                             1232.40  1263.46  1286.85  1306.66  1335.91
                             1341.86  1353.50  1391.88  1432.94  1443.24
                             1464.20  1477.93  1500.67  1548.30  1562.50
                             1575.19  1591.58  1610.01  1621.16  1634.11
                             1647.28  1669.02  1700.81  1714.47  1718.27
                             1754.60  1781.24  1785.44  1819.26  1834.23
                             1857.81  1858.95  1878.17  1903.68  1904.42
                             1919.42  1954.10  1962.15  1976.57  1988.40
                             2001.87  2014.11  2019.49  2030.60  2037.77
                             2049.52  2059.46  2071.32  2079.43  2081.89
                             2161.19  2176.99  2180.46  2186.40  2188.25
                             2190.54  2194.46  2202.97  2204.30  2211.24
                             2214.44  2216.63  2228.98  2250.34  4309.45
                             4334.63  4339.09  4347.90  4368.71  4371.00
                             4371.75  4377.36  4379.26  4386.41  4395.34
                             4406.20  4416.60  4423.01  4429.12  4430.67
                             4435.94  4443.78  4464.05  4465.22  4481.47
                             4487.10  4491.39  4504.96  4506.71  4612.12
                             5046.63

 Zero-point correction=                           0.405583 (Hartree/Particle)
 Thermal correction to Energy=                    0.423753
 Thermal correction to Enthalpy=                  0.424697
 Thermal correction to Gibbs Free Energy=         0.358983
 Sum of electronic and zero-point Energies=           -754.580670
 Sum of electronic and thermal Energies=              -754.562501
 Sum of electronic and thermal Enthalpies=            -754.561557
 Sum of electronic and thermal Free Energies=         -754.627271

                     E (Thermal)             CV                S
                      KCal/Mol        Cal/Mol-Kelvin    Cal/Mol-Kelvin
 Total                  265.909             69.783            138.307
 Electronic               0.000              0.000              0.000
 Translational            0.889              2.981             42.343
 Rotational               0.889              2.981             33.097
 Vibrational            264.131             63.821             62.867
 Vibration     1          0.593              1.986              7.088
 Vibration     2          0.597              1.972              4.390
 Vibration     3          0.599              1.964              3.949
 Vibration     4          0.600              1.962              3.853
 Vibration     5          0.601              1.958              3.714
 Vibration     6          0.603              1.952              3.537
 Vibration     7          0.607              1.940              3.234
 Vibration     8          0.611              1.927              3.005
 Vibration     9          0.624              1.884              2.481
 Vibration    10          0.628              1.872              2.375
 Vibration    11          0.635              1.850              2.200
 Vibration    12          0.643              1.822              2.025
 Vibration    13          0.650              1.800              1.905
 Vibration    14          0.663              1.760              1.720
 Vibration    15          0.671              1.737              1.627
 Vibration    16          0.689              1.684              1.449
 Vibration    17          0.699              1.654              1.359
 Vibration    18          0.724              1.583              1.184
 Vibration    19          0.736              1.550              1.113
 Vibration    20          0.762              1.479              0.979
 Vibration    21          0.785              1.422              0.885
 Vibration    22          0.793              1.401              0.854
 Vibration    23          0.819              1.335              0.762
 Vibration    24          0.840              1.285              0.698
 Vibration    25          0.875              1.206              0.610
 Vibration    26          0.930              1.089              0.498
 Vibration    27          0.962              1.023              0.443

 Optimization completed.
    -- Stationary point found.
 Normal termination of Gaussian 16 at Mon Dec 14 19:30:05 2020.

 ----------------------------------------------------------------------
 # B3LYP/6-311++G(d,p) empiricaldispersion=gd3bj scf=xqc pop=npa geom=c
 heck
 ----------------------------------------------------------------------

 --------------------------------------
 CID_79915380_JID_7006_Energie_neutraal
 --------------------------------------
 Structure from the checkpoint file:  "JID_7006.chk"
 Charge =  0 Multiplicity = 1

 SCF Done:  E(RB3LYP) =  -755.200730424     A.U. after   14 cycles
 Normal termination of Gaussian 16 at Mon Dec 14 19:40:58 2020.

 ----------------------------------------------------------------------
 # B3LYP/6-311++G(d,p) empiricaldispersion=gd3bj scf=xqc pop=npa geom=c
 heck
 ----------------------------------------------------------------------

 ------------------------------------
 CID_79915380_JID_7006_Energie_kation
 ------------------------------------
 Structure from the checkpoint file:  "JID_7006.chk"
 Charge =  1 Multiplicity = 2

 SCF Done:  E(UB3LYP) =  -754.913160566     A.U. after   25 cycles
 Normal termination of Gaussian 16 at Mon Dec 14 20:09:06 2020.
 Gaussian 16:  ES64L-G16RevA.03 25-Dec-2016

 ----------------------------------------------------------------------
 # B3LYP/6-311++G(d,p) empiricaldispersion=gd3bj scf=xqc pop=npa geom=c
 heck
 ----------------------------------------------------------------------

 -----------------------------------
 CID_79915380_JID_7006_Energie_anion
 -----------------------------------
 Structure from the checkpoint file:  "JID_7006.chk"
 Charge = -1 Multiplicity = 2

                         Standard orientation:
 ---------------------------------------------------------------------
 Center     Atomic      Atomic             Coordinates (Angstroms)
 Number     Number       Type             X           Y           Z
 ---------------------------------------------------------------------
      1          6           0       -1.483164    3.645162   -0.049877
      2          6           0       -0.440573    2.712597    0.573617
      3          6           0       -1.041281    1.381177    1.054433
      4          6           0       -1.523792    0.465253   -0.096167
      5          6           0       -0.692526   -0.830478   -0.349050
      6          6           0       -0.643422   -1.829530    0.828589
      7          6           0        0.635321   -1.752417    1.660346
      8          8           0        1.795372   -1.859194    0.842630
      9          6           0        1.945749   -0.760303   -0.049072
     10          6           0        0.716011   -0.605546   -0.968981
     11          6           0        3.223301   -0.992672   -0.877524
     12          6           0        3.696622    0.430469   -1.221527
     13          8           0        2.991753    1.322387   -0.340304
     14          6           0        2.371417    0.539518    0.669177
     15          7           0       -2.960723    0.236565    0.092565
     16          6           0       -3.711129   -0.457287   -0.952677
     17          6           0       -3.938806   -1.959355   -0.735323
     18          1           0       -1.986857    3.176404   -0.902396
     19          1           0       -1.021334    4.573835   -0.402903
     20          1           0       -2.257999    3.906949    0.680247
     21          1           0        0.364987    2.521957   -0.147486
     22          1           0        0.031097    3.220790    1.425408
     23          1           0       -0.324530    0.857029    1.691202
     24          1           0       -1.903912    1.609117    1.691904
     25          1           0       -1.443506    1.033090   -1.034042
     26          1           0       -1.257247   -1.326868   -1.144863
     27          1           0       -1.516087   -1.698321    1.481512
     28          1           0       -0.706253   -2.849642    0.430650
     29          1           0        0.675030   -0.830043    2.257698
     30          1           0        0.688232   -2.593884    2.357838
     31          1           0        0.838296   -1.348576   -1.765416
     32          1           0        0.763865    0.375668   -1.456234
     33          1           0        3.944170   -1.509387   -0.236270
     34          1           0        3.049446   -1.612523   -1.761122
     35          1           0        3.451279    0.718976   -2.249647
     36          1           0        4.779344    0.549257   -1.083331
     37          1           0        1.565378    1.136493    1.087180
     38          1           0        3.074140    0.274367    1.476321
     39          1           0       -3.147611   -0.170346    1.005772
     40          1           0       -4.694033    0.026041   -1.052450
     41          1           0       -3.194972   -0.288562   -1.905894
     42          1           0       -4.453219   -2.133765    0.218221
     43          1           0       -4.570604   -2.375846   -1.529223
     44          1           0       -3.001392   -2.523233   -0.715025
 ---------------------------------------------------------------------

 SCF Done:  E(UB3LYP) =  -755.186682201     A.U. after   31 cycles

 The electronic state is 2-A.
 Alpha  occ. eigenvalues --  -19.03427 -19.03156 -14.19633 -10.13723 -10.12631
 Alpha  occ. eigenvalues --  -10.12053 -10.11976 -10.10299 -10.09611 -10.07775
 Alpha  occ. eigenvalues --  -10.07689 -10.07673 -10.07229 -10.07076 -10.07016
 Alpha  occ. eigenvalues --  -10.07009 -10.06150  -0.95692  -0.94119  -0.81060
 Alpha  occ. eigenvalues --   -0.71551  -0.70550  -0.69287  -0.65352  -0.64950
 Alpha  occ. eigenvalues --   -0.61445  -0.60371  -0.56441  -0.53963  -0.52344
 Alpha  occ. eigenvalues --   -0.50970  -0.49936  -0.47689  -0.44288  -0.41951
 Alpha  occ. eigenvalues --   -0.40985  -0.39538  -0.38758  -0.37111  -0.36507
 Alpha  occ. eigenvalues --   -0.35575  -0.35177  -0.35040  -0.34306  -0.33611
 Alpha  occ. eigenvalues --   -0.32711  -0.31413  -0.30986  -0.30003  -0.29639
 Alpha  occ. eigenvalues --   -0.28870  -0.27946  -0.27097  -0.26971  -0.26767
 Alpha  occ. eigenvalues --   -0.25939  -0.25708  -0.25244  -0.24578  -0.24071
 Alpha  occ. eigenvalues --   -0.23289  -0.21747  -0.21318  -0.20336  -0.17409
 Alpha  occ. eigenvalues --   -0.15782  -0.12148   0.04236
 Alpha virt. eigenvalues --    0.06130   0.06526   0.06692   0.07662   0.08271
 Alpha virt. eigenvalues --    0.08588   0.08765   0.09000   0.09874   0.10021
 Alpha virt. eigenvalues --    0.10565   0.10982   0.11275   0.11694   0.11909

  Beta  occ. eigenvalues --  -19.03427 -19.03152 -14.19622 -10.13725 -10.12614
  Beta  occ. eigenvalues --  -10.12037 -10.11965 -10.10296 -10.09596 -10.07760
  Beta  occ. eigenvalues --  -10.07683 -10.07667 -10.07211 -10.07066 -10.07000
  Beta  occ. eigenvalues --  -10.06994 -10.06112  -0.95687  -0.94113  -0.81039
  Beta  occ. eigenvalues --   -0.71529  -0.70532  -0.69264  -0.65322  -0.64916
  Beta  occ. eigenvalues --   -0.61414  -0.60341  -0.56409  -0.53927  -0.52290
  Beta  occ. eigenvalues --   -0.50926  -0.49896  -0.47660  -0.44253  -0.41922
  Beta  occ. eigenvalues --   -0.40961  -0.39512  -0.38727  -0.37089  -0.36482
  Beta  occ. eigenvalues --   -0.35552  -0.35153  -0.35020  -0.34284  -0.33585
  Beta  occ. eigenvalues --   -0.32680  -0.31381  -0.30955  -0.29970  -0.29619
  Beta  occ. eigenvalues --   -0.28846  -0.27918  -0.27063  -0.26944  -0.26738
  Beta  occ. eigenvalues --   -0.25918  -0.25688  -0.25211  -0.24558  -0.24050
  Beta  occ. eigenvalues --   -0.23269  -0.21724  -0.21295  -0.20317  -0.17396
  Beta  occ. eigenvalues --   -0.15766  -0.12132
  Beta virt. eigenvalues --    0.06156   0.06801   0.07022   0.07167   0.08204
  Beta virt. eigenvalues --    0.08678   0.08833   0.09088   0.09227   0.10236
  Beta virt. eigenvalues --    0.10386   0.10797   0.11059   0.11456   0.11889

 Mulliken charges and spin densities:
               1          2
     1  C   -0.166392  -0.429408
     2  C   -0.651051   0.276217
     3  C    0.219673  -0.035048
     4  C   -1.124059  -0.345948
     5  C    1.387338   0.063256
     6  C    0.791955  -1.143323
     7  C    0.537373  -0.894467
     8  O   -0.008841   0.013529
     9  C   -2.689483   2.405412
    10  C   -0.860729  -0.413586
    11  C    0.983143  -1.034124
    12  C    0.337712  -0.662781
    13  O   -0.079885   0.016845
    14  C    0.241669  -0.631571
    15  N    0.190267  -0.042458
    16  C   -0.106708   0.016697
    17  C    0.877006  -1.405419
    18  H    0.030804   0.112919
    19  H    0.023946   0.116751
    20  H    0.100676   0.026257
    21  H    0.197035  -0.016653
    22  H   -0.010440   0.164061
    23  H    0.122167  -0.016754
    24  H   -0.209185   0.344573
    25  H    0.085840   0.124153
    26  H    0.648598  -0.423527
    27  H   -0.290135   0.436056
    28  H    0.163321   0.044249
    29  H    0.102681   0.020836
    30  H   -0.495763   0.697583
    31  H   -0.620045   0.835790
    32  H    0.368415  -0.214849
    33  H   -0.005134   0.196152
    34  H   -0.105359   0.249917
    35  H   -0.177007   0.332683
    36  H   -0.100944   0.254153
    37  H    0.311071  -0.166774
    38  H    0.020359   0.158037
    39  H    0.273192  -0.061287
    40  H   -0.144079   0.321272
    41  H   -0.124577   0.240608
    42  H   -0.181357   0.321593
    43  H   -0.319276   0.460106
    44  H   -0.543793   0.688272
 Sum of Mulliken charges =  -1.00000   1.00000

 Dipole moment (field-independent basis, Debye):
    X=              2.4547    Y=              4.2444    Z=              1.4199  Tot=              5.1045
 Quadrupole moment (field-independent basis, Debye-Ang):
   XX=           -186.8608   YY=           -166.2148   ZZ=           -150.6641
   XY=             -9.0723   XZ=              0.2903   YZ=              0.1863

 Summary of Natural Population Analysis:

                                       Natural Population
                Natural  -----------------------------------------------
    Atom  No    Charge         Core      Valence    Rydberg      Total
 -----------------------------------------------------------------------
      C    1   -0.28383      0.99967     2.27977    0.00439     3.28383
      C    2   -0.19207      0.99964     2.18597    0.00647     3.19207
      C    3   -0.19691      0.99959     2.18758    0.00973     3.19691
      C    4    0.00144      0.99956     1.98621    0.01279     2.99856
      C    5   -0.11754      0.99955     2.10518    0.01280     3.11754
      C    6   -0.20642      0.99960     2.19710    0.00971     3.20642
      C    7   -0.00775      0.99956     1.99578    0.01242     3.00775
      O    8   -0.30528      0.99987     3.29575    0.00966     4.30528
      C    9    0.12897      0.99948     1.85426    0.01729     2.87103
      C   10   -0.20409      0.99956     2.19257    0.01196     3.20409
      C   11   -0.20705      0.99958     2.19781    0.00966     3.20705
      C   12   -0.01052      0.99960     1.99921    0.01170     3.01052
      O   13   -0.30203      0.99990     3.29398    0.00816     4.30203
      C   14   -0.02298      0.99950     2.01075    0.01273     3.02298
      N   15   -0.34472      0.99974     2.83317    0.01181     3.84472
      C   16   -0.08822      0.99964     2.07718    0.01140     3.08822
      C   17   -0.29255      0.99966     2.28804    0.00485     3.29255
      H   18    0.09896      0.00000     0.40017    0.00087     0.40104
      H   19    0.09539      0.00000     0.40379    0.00082     0.40461
      H   20    0.09555      0.00000     0.40347    0.00098     0.40445
      H   21    0.09925      0.00000     0.39890    0.00184     0.40075
      H   22    0.09329      0.00000     0.40563    0.00108     0.40671
      H   23    0.09516      0.00000     0.40320    0.00164     0.40484
      H   24    0.10083      0.00000     0.39777    0.00140     0.39917
      H   25    0.08776      0.00000     0.40997    0.00226     0.41224
      H   26    0.10241      0.00000     0.39524    0.00235     0.39759
      H   27    0.10143      0.00000     0.39682    0.00175     0.39857
      H   28    0.10329      0.00000     0.39516    0.00155     0.39671
      H   29    0.07457      0.00000     0.42384    0.00159     0.42543
      H   30    0.09306      0.00000     0.40572    0.00122     0.40694
      H   31    0.10435      0.00000     0.39421    0.00143     0.39565
      H   32    0.10554      0.00000     0.39250    0.00196     0.39446
      H   33    0.10543      0.00000     0.39305    0.00153     0.39457
      H   34    0.10702      0.00000     0.39172    0.00127     0.39298
      H   35    0.08686      0.00000     0.41176    0.00138     0.41314
      H   36    0.08253      0.00000     0.41626    0.00121     0.41747
      H   37    0.09465      0.00000     0.40314    0.00222     0.40535
      H   38    0.08077      0.00000     0.41782    0.00141     0.41923
      H   39    0.17118      0.00000     0.32604    0.00277     0.32882
      H   40    0.08792      0.00000     0.41095    0.00113     0.41208
      H   41    0.09093      0.00000     0.40764    0.00143     0.40907
      H   42    0.09571      0.00000     0.40275    0.00154     0.40429
      H   43    0.09926      0.00000     0.39945    0.00129     0.40074
      H   44    0.09845      0.00000     0.39991    0.00164     0.40155
 =======================================================================
   * Total *   -0.00000     16.99370    49.78720    0.21910    67.00000

 Normal termination of Gaussian 16 at Mon Dec 14 20:40:05 2020.
