 Gaussian 16, Revision A.03,

 -----------------------------------------------------------
 # opt freq B3LYP/6-31G(d) empiricaldispersion=gd3bj scf=xqc
 -----------------------------------------------------------

 -------------------------------
 CID_116929124_JID_8783_neutraal
 -------------------------------
 Symbolic Z-matrix:
 Charge =  0 Multiplicity = 1

 SCF Done:  E(RB3LYP) =  -748.544307155     A.U. after   14 cycles
 SCF Done:  E(RB3LYP) =  -748.550399108     A.U. after   12 cycles
 SCF Done:  E(RB3LYP) =  -748.551950478     A.U. after   12 cycles
 SCF Done:  E(RB3LYP) =  -748.553402110     A.U. after   12 cycles
 SCF Done:  E(RB3LYP) =  -748.553929787     A.U. after   12 cycles
 SCF Done:  E(RB3LYP) =  -748.554196173     A.U. after   11 cycles
 SCF Done:  E(RB3LYP) =  -748.554265387     A.U. after   10 cycles
 SCF Done:  E(RB3LYP) =  -748.554299842     A.U. after   10 cycles
 SCF Done:  E(RB3LYP) =  -748.554346685     A.U. after   10 cycles
 SCF Done:  E(RB3LYP) =  -748.554435856     A.U. after   10 cycles
 SCF Done:  E(RB3LYP) =  -748.554715107     A.U. after    9 cycles
 SCF Done:  E(RB3LYP) =  -748.554715782     A.U. after    7 cycles
 SCF Done:  E(RB3LYP) =  -748.554715824     A.U. after    6 cycles
 SCF Done:  E(RB3LYP) =  -748.554715883     A.U. after    6 cycles
 SCF Done:  E(RB3LYP) =  -748.554715905     A.U. after    6 cycles
 Optimization completed.
    -- Stationary point found.
 Normal termination of Gaussian 16 at Fri Dec 11 21:13:30 2020.

 --------------------------------------------------------------------
 #N Geom=AllCheck Guess=TCheck SCRF=Check GenChk RB3LYP/6-31G(d) Freq
 --------------------------------------------------------------------

 Structure from the checkpoint file:  "JID_8783.chk"
 -------------------------------
 CID_116929124_JID_8783_neutraal
 -------------------------------
 Charge =  0 Multiplicity = 1

 SCF Done:  E(RB3LYP) =  -748.554715905     A.U. after    1 cycles

  Exact polarizability: 254.672   5.893 166.106 -12.505  -5.633 113.770
 Approx polarizability: 325.876   9.269 284.797 -23.652 -14.705 172.599

                      1                      2                      3
                      A                      A                      A
 Frequencies --     24.6708                43.1242                48.0441
 Red. masses --      3.8886                 3.6774                 3.3968
 Frc consts  --      0.0014                 0.0040                 0.0046
 IR Inten    --      0.3581                 2.5209                 0.5935

                      4                      5                      6
                      A                      A                      A
 Frequencies --     59.2203                83.6243               116.7037
 Red. masses --      1.1115                 3.1347                 1.8590
 Frc consts  --      0.0023                 0.0129                 0.0149
 IR Inten    --      0.0869                 2.5350                 1.0017

                      7                      8                      9
                      A                      A                      A
 Frequencies --    130.4089               135.5655               155.5421
 Red. masses --      3.5013                 2.8389                 3.2542
 Frc consts  --      0.0351                 0.0307                 0.0464
 IR Inten    --      2.5674                 0.0078                 0.2526

                     10                     11                     12
                      A                      A                      A
 Frequencies --    162.8488               217.0300               233.2691
 Red. masses --      1.0882                 2.7399                 4.4479
 Frc consts  --      0.0170                 0.0760                 0.1426
 IR Inten    --      0.0773                 1.3504                 0.2119

                     13                     14                     15
                      A                      A                      A
 Frequencies --    244.0684               268.5558               289.5064
 Red. masses --      1.9012                 1.6690                 2.7664
 Frc consts  --      0.0667                 0.0709                 0.1366
 IR Inten    --      0.9470                 1.6460                 0.2200

                     16                     17                     18
                      A                      A                      A
 Frequencies --    301.4738               317.6400               348.4709
 Red. masses --      3.7580                 2.7746                 2.3357
 Frc consts  --      0.2012                 0.1649                 0.1671
 IR Inten    --      1.3622                 0.9659                 0.4087

                     19                     20                     21
                      A                      A                      A
 Frequencies --    360.4359               379.0383               423.5968
 Red. masses --      2.0883                 4.3413                 2.9068
 Frc consts  --      0.1598                 0.3675                 0.3073
 IR Inten    --      0.9253                 0.5937                 2.4105

                     22                     23                     24
                      A                      A                      A
 Frequencies --    446.8050               480.4096               528.1197
 Red. masses --      3.0259                 3.8176                 4.1522
 Frc consts  --      0.3559                 0.5191                 0.6823
 IR Inten    --      3.2834                 0.4477                 1.2138

                     25                     26                     27
                      A                      A                      A
 Frequencies --    554.4729               586.1051               637.4216
 Red. masses --      3.7733                 4.3935                 3.9256
 Frc consts  --      0.6835                 0.8892                 0.9397
 IR Inten    --      1.7432                 4.4242                 2.4349

                     28                     29                     30
                      A                      A                      A
 Frequencies --    664.5383               697.6761               726.9290
 Red. masses --      5.2339                 5.0335                 3.4422
 Frc consts  --      1.3618                 1.4435                 1.0717
 IR Inten    --      4.9454                 5.3112                 4.2009

                     31                     32                     33
                      A                      A                      A
 Frequencies --    740.1356               773.8208               803.9334
 Red. masses --      3.5544                 5.3399                 1.0722
 Frc consts  --      1.1472                 1.8839                 0.4083
 IR Inten    --      4.6597                 0.0189                 5.4923

                     34                     35                     36
                      A                      A                      A
 Frequencies --    808.0320               814.9589               829.6814
 Red. masses --      1.8454                 1.3872                 2.5875
 Frc consts  --      0.7099                 0.5428                 1.0494
 IR Inten    --     54.6090                45.9770                20.7084

                     37                     38                     39
                      A                      A                      A
 Frequencies --    867.1710               904.7473               909.4754
 Red. masses --      2.3501                 2.6602                 1.6103
 Frc consts  --      1.0412                 1.2830                 0.7848
 IR Inten    --      3.7893                 6.3739                 9.8890

                     40                     41                     42
                      A                      A                      A
 Frequencies --    924.2560               931.0443               952.9210
 Red. masses --      1.4567                 1.3140                 1.8936
 Frc consts  --      0.7332                 0.6711                 1.0131
 IR Inten    --      1.3421                 1.2853                 4.3991

                     43                     44                     45
                      A                      A                      A
 Frequencies --    966.6125               977.0676              1009.1497
 Red. masses --      2.6586                 1.9248                 1.5842
 Frc consts  --      1.4636                 1.0826                 0.9505
 IR Inten    --      6.8448                 4.2511                 8.2791

                     46                     47                     48
                      A                      A                      A
 Frequencies --   1021.6225              1035.4469              1042.0048
 Red. masses --      1.8104                 1.7355                 1.7331
 Frc consts  --      1.1133                 1.0963                 1.1087
 IR Inten    --      9.3465                 5.2788                 9.5105

                     49                     50                     51
                      A                      A                      A
 Frequencies --   1065.7390              1074.0763              1090.6354
 Red. masses --      1.5467                 1.4973                 1.3967
 Frc consts  --      1.0350                 1.0177                 0.9788
 IR Inten    --      4.8728                 1.9145                 0.7119

                     52                     53                     54
                      A                      A                      A
 Frequencies --   1123.8932              1146.6871              1161.4125
 Red. masses --      2.7334                 1.9303                 1.2954
 Frc consts  --      2.0343                 1.4955                 1.0295
 IR Inten    --      8.8512                14.3248                 0.1388

                     55                     56                     57
                      A                      A                      A
 Frequencies --   1167.1688              1169.6448              1187.1387
 Red. masses --      1.7904                 1.5527                 1.6636
 Frc consts  --      1.4370                 1.2515                 1.3814
 IR Inten    --     48.8333                 2.8445                11.2659

                     58                     59                     60
                      A                      A                      A
 Frequencies --   1197.0407              1209.9342              1212.9248
 Red. masses --      1.4614                 1.5141                 2.6386
 Frc consts  --      1.2338                 1.3059                 2.2871
 IR Inten    --      6.2274                 5.0021                 0.7446

                     61                     62                     63
                      A                      A                      A
 Frequencies --   1247.6960              1269.6073              1281.3973
 Red. masses --      1.3897                 1.6968                 2.2830
 Frc consts  --      1.2747                 1.6114                 2.2087
 IR Inten    --      4.9035                 0.7206                 3.5382

                     64                     65                     66
                      A                      A                      A
 Frequencies --   1286.1862              1321.4937              1360.9217
 Red. masses --      2.1070                 1.9483                 2.1342
 Frc consts  --      2.0536                 2.0046                 2.3289
 IR Inten    --     17.1411                23.4012                 7.9921

                     67                     68                     69
                      A                      A                      A
 Frequencies --   1368.3840              1385.2272              1412.3327
 Red. masses --      3.8747                 1.4410                 3.5598
 Frc consts  --      4.2747                 1.6291                 4.1836
 IR Inten    --     48.3433                11.6318                 6.0381

                     70                     71                     72
                      A                      A                      A
 Frequencies --   1421.1655              1423.1246              1441.0327
 Red. masses --      1.6653                 2.1651                 1.8970
 Frc consts  --      1.9817                 2.5836                 2.3209
 IR Inten    --     20.8162                33.7524                61.5584

                     73                     74                     75
                      A                      A                      A
 Frequencies --   1481.7833              1483.3151              1488.2062
 Red. masses --      1.9175                 1.1839                 1.1642
 Frc consts  --      2.4806                 1.5347                 1.5191
 IR Inten    --     31.2488                 2.9248                 8.4114

                     76                     77                     78
                      A                      A                      A
 Frequencies --   1490.6047              1503.1766              1506.6014
 Red. masses --      1.3752                 1.2436                 1.0419
 Frc consts  --      1.8002                 1.6556                 1.3934
 IR Inten    --     21.5721                34.9863                14.8265

                     79                     80                     81
                      A                      A                      A
 Frequencies --   1517.2946              1518.6607              1520.4235
 Red. masses --      1.4204                 1.0617                 1.0423
 Frc consts  --      1.9267                 1.4426                 1.4196
 IR Inten    --      0.0889                 8.1230                 0.2446

                     82                     83                     84
                      A                      A                      A
 Frequencies --   1524.4530              1531.8768              1534.3257
 Red. masses --      1.1281                 2.9459                 1.2335
 Frc consts  --      1.5446                 4.0730                 1.7109
 IR Inten    --      5.9391                28.6549                 3.2766

                     85                     86                     87
                      A                      A                      A
 Frequencies --   1540.2822              1546.9455              1547.5482
 Red. masses --      1.1478                 1.1372                 1.0700
 Frc consts  --      1.6044                 1.6034                 1.5098
 IR Inten    --     20.5611                 3.9022                 4.9292

                     88                     89                     90
                      A                      A                      A
 Frequencies --   1586.1703              1642.0117              1682.4419
 Red. masses --      5.4170                 6.7935                 7.1326
 Frc consts  --      8.0298                10.7918                11.8953
 IR Inten    --     67.7477                 3.9550                 6.2181

                     91                     92                     93
                      A                      A                      A
 Frequencies --   2918.2776              2944.7483              3030.3412
 Red. masses --      1.0734                 1.0620                 1.0763
 Frc consts  --      5.3859                 5.4260                 5.8233
 IR Inten    --     67.8661               145.5100                 1.7787

                     94                     95                     96
                      A                      A                      A
 Frequencies --   3035.9013              3046.5684              3051.0142
 Red. masses --      1.0775                 1.0403                 1.0369
 Frc consts  --      5.8510                 5.6890                 5.6871
 IR Inten    --     76.1772                24.0479                63.9333

                     97                     98                     99
                      A                      A                      A
 Frequencies --   3070.6982              3095.5930              3096.1137
 Red. masses --      1.0720                 1.0945                 1.1011
 Frc consts  --      5.9553                 6.1793                 6.2191
 IR Inten    --     49.2157                 9.1509                16.8421

                    100                    101                    102
                      A                      A                      A
 Frequencies --   3103.8690              3118.6105              3140.6270
 Red. masses --      1.1057                 1.1022                 1.0549
 Frc consts  --      6.2763                 6.3157                 6.1303
 IR Inten    --     20.2241                33.9207                17.8468

                    103                    104                    105
                      A                      A                      A
 Frequencies --   3145.3660              3168.6482              3170.7858
 Red. masses --      1.0570                 1.0978                 1.0984
 Frc consts  --      6.1614                 6.4942                 6.5062
 IR Inten    --     18.9006                 6.6423                 6.6949

                    106                    107                    108
                      A                      A                      A
 Frequencies --   3182.4146              3200.6655              3202.8925
 Red. masses --      1.0870                 1.0930                 1.0923
 Frc consts  --      6.4862                 6.5971                 6.6020
 IR Inten    --      9.4477                24.2799                 3.9143

                    109                    110                    111
                      A                      A                      A
 Frequencies --   3222.6242              3233.0297              3485.8987
 Red. masses --      1.1160                 1.1145                 1.0736
 Frc consts  --      6.8287                 6.8633                 7.6866
 IR Inten    --      0.0937                22.1461                 0.6301

 - Thermochemistry -
 -------------------
 Temperature   298.150 Kelvin.  Pressure   1.00000 Atm.
 Atom     1 has atomic number  6 and mass  12.00000

 Molecular mass:   243.17355 amu.
 Principal axes and moments of inertia in atomic units:
                           1         2         3
     Eigenvalues --  1600.44591********************
           X            0.99999  -0.00483  -0.00201
           Y            0.00483   0.99999  -0.00211
           Z            0.00202   0.00210   1.00000
 This molecule is an asymmetric top.
 Rotational symmetry number  1.
 Warning -- assumption of classical behavior for rotation
           may cause significant error
 Rotational temperatures (Kelvin)      0.05412     0.00841     0.00790
 Rotational constants (GHZ):           1.12765     0.17532     0.16456
 Zero-point vibrational energy     893090.5 (Joules/Mol)
                                  213.45375 (Kcal/Mol)
 Warning -- explicit consideration of  26 degrees of freedom as
           vibrations may cause significant error
 Vibrational temperatures:     35.50    62.05    69.12    85.20   120.32
          (Kelvin)            167.91   187.63   195.05   223.79   234.30
                              312.26   335.62   351.16   386.39   416.54
                              433.75   457.01   501.37   518.59   545.35
                              609.46   642.85   691.20   759.85   797.76
                              843.27   917.11   956.12  1003.80  1045.89
                             1064.89  1113.36  1156.68  1162.58  1172.54
                             1193.73  1247.67  1301.73  1308.53  1329.80
                             1339.57  1371.04  1390.74  1405.78  1451.94
                             1469.89  1489.78  1499.21  1533.36  1545.36
                             1569.18  1617.03  1649.83  1671.01  1679.30
                             1682.86  1708.03  1722.27  1740.83  1745.13
                             1795.16  1826.68  1843.64  1850.54  1901.33
                             1958.06  1968.80  1993.03  2032.03  2044.74
                             2047.56  2073.32  2131.96  2134.16  2141.20
                             2144.65  2162.74  2167.66  2183.05  2185.01
                             2187.55  2193.35  2204.03  2207.55  2216.12
                             2225.71  2226.58  2282.15  2362.49  2420.66
                             4198.75  4236.84  4359.99  4367.98  4383.33
                             4389.73  4418.05  4453.87  4454.62  4465.78
                             4486.98  4518.66  4525.48  4558.98  4562.05
                             4578.78  4605.04  4608.25  4636.64  4651.61
                             5015.43

 Zero-point correction=                           0.340160 (Hartree/Particle)
 Thermal correction to Energy=                    0.358031
 Thermal correction to Enthalpy=                  0.358976
 Thermal correction to Gibbs Free Energy=         0.293269
 Sum of electronic and zero-point Energies=           -748.214556
 Sum of electronic and thermal Energies=              -748.196684
 Sum of electronic and thermal Enthalpies=            -748.195740
 Sum of electronic and thermal Free Energies=         -748.261447

                     E (Thermal)             CV                S
                      KCal/Mol        Cal/Mol-Kelvin    Cal/Mol-Kelvin
 Total                  224.668             67.784            138.291
 Electronic               0.000              0.000              0.000
 Translational            0.889              2.981             42.367
 Rotational               0.889              2.981             33.557
 Vibrational            222.891             61.823             62.367
 Vibration     1          0.593              1.985              6.218
 Vibration     2          0.595              1.980              5.110
 Vibration     3          0.595              1.978              4.896
 Vibration     4          0.597              1.974              4.483
 Vibration     5          0.601              1.960              3.804
 Vibration     6          0.608              1.936              3.154
 Vibration     7          0.612              1.923              2.940
 Vibration     8          0.613              1.918              2.866
 Vibration     9          0.620              1.896              2.603
 Vibration    10          0.623              1.888              2.516
 Vibration    11          0.646              1.815              1.984
 Vibration    12          0.654              1.790              1.854
 Vibration    13          0.659              1.773              1.773
 Vibration    14          0.673              1.731              1.605
 Vibration    15          0.686              1.693              1.477
 Vibration    16          0.693              1.671              1.409
 Vibration    17          0.704              1.640              1.322
 Vibration    18          0.726              1.578              1.173
 Vibration    19          0.735              1.554              1.120
 Vibration    20          0.749              1.515              1.043
 Vibration    21          0.786              1.419              0.880
 Vibration    22          0.806              1.368              0.805
 Vibration    23          0.837              1.294              0.709
 Vibration    24          0.883              1.188              0.591
 Vibration    25          0.910              1.130              0.535
 Vibration    26          0.943              1.061              0.474

 Optimization completed.
    -- Stationary point found.
 Normal termination of Gaussian 16 at Fri Dec 11 21:30:16 2020.

 ----------------------------------------------------------------------
 # B3LYP/6-311++G(d,p) empiricaldispersion=gd3bj scf=xqc pop=npa geom=c
 heck
 ----------------------------------------------------------------------

 ---------------------------------------
 CID_116929124_JID_8783_Energie_neutraal
 ---------------------------------------
 Structure from the checkpoint file:  "JID_8783.chk"
 Charge =  0 Multiplicity = 1

 SCF Done:  E(RB3LYP) =  -748.751640989     A.U. after   16 cycles
 Normal termination of Gaussian 16 at Fri Dec 11 21:37:26 2020.

 ----------------------------------------------------------------------
 # B3LYP/6-311++G(d,p) empiricaldispersion=gd3bj scf=xqc pop=npa geom=c
 heck
 ----------------------------------------------------------------------

 -------------------------------------
 CID_116929124_JID_8783_Energie_kation
 -------------------------------------
 Structure from the checkpoint file:  "JID_8783.chk"
 Charge =  1 Multiplicity = 2

 SCF Done:  E(UB3LYP) =  -748.478272962     A.U. after   29 cycles
 Normal termination of Gaussian 16 at Fri Dec 11 21:55:01 2020.
 Gaussian 16:  ES64L-G16RevA.03 25-Dec-2016

 ----------------------------------------------------------------------
 # B3LYP/6-311++G(d,p) empiricaldispersion=gd3bj scf=xqc pop=npa geom=c
 heck
 ----------------------------------------------------------------------

 ------------------------------------
 CID_116929124_JID_8783_Energie_anion
 ------------------------------------
 Structure from the checkpoint file:  "JID_8783.chk"
 Charge = -1 Multiplicity = 2

                         Standard orientation:
 ---------------------------------------------------------------------
 Center     Atomic      Atomic             Coordinates (Angstroms)
 Number     Number       Type             X           Y           Z
 ---------------------------------------------------------------------
      1          6           0       -5.079944   -1.769379    0.424085
      2          6           0       -3.782768   -1.086988    0.141690
      3          7           0       -2.627016   -1.703218    0.032566
      4          6           0       -1.699018   -0.701969   -0.227531
      5          6           0       -2.343482    0.556308   -0.272758
      6          7           0       -3.682400    0.286313   -0.033100
      7          6           0       -4.736268    1.277072    0.013668
      8          6           0       -1.650982    1.738939   -0.525363
      9          6           0       -0.276800    1.628990   -0.728416
     10          6           0        0.399798    0.388898   -0.684454
     11          6           0       -0.319787   -0.783002   -0.437276
     12          6           0        1.896178    0.336830   -0.878927
     13          6           0        2.741699    0.466929    0.394548
     14          6           0        2.323735    1.409205    1.493137
     15          6           0        2.237386   -0.083529    1.709967
     16          6           0        4.230487    0.329110    0.134813
     17          7           0        4.553632   -0.996406   -0.383831
     18          6           0        5.979962   -1.192221   -0.597974
     19          1           0       -5.535563   -1.414329    1.356724
     20          1           0       -4.887113   -2.839080    0.517732
     21          1           0       -5.807990   -1.615764   -0.381999
     22          1           0       -5.688222    0.788443    0.224500
     23          1           0       -4.538649    2.013843    0.800641
     24          1           0       -4.816322    1.801810   -0.945286
     25          1           0       -2.149807    2.702742   -0.569284
     26          1           0        0.300026    2.526649   -0.934963
     27          1           0        0.180004   -1.746889   -0.410398
     28          1           0        2.178533   -0.604036   -1.362555
     29          1           0        2.203127    1.139540   -1.563618
     30          1           0        3.098827    1.963256    2.016804
     31          1           0        1.389115    1.948240    1.371978
     32          1           0        1.248757   -0.530674    1.736657
     33          1           0        2.959011   -0.544621    2.380784
     34          1           0        4.547390    1.067648   -0.616056
     35          1           0        4.786975    0.569405    1.062828
     36          1           0        4.207734   -1.689927    0.277522
     37          1           0        6.605471   -0.993880    0.293672
     38          1           0        6.165795   -2.220068   -0.926202
     39          1           0        6.322211   -0.520289   -1.394171
 ---------------------------------------------------------------------

 SCF Done:  E(UB3LYP) =  -748.742269957     A.U. after   33 cycles
 SCF Done:  E(UB3LYP) =  -748.742269957     a.u. after    1 cycles

 The electronic state is 2-A.
 Alpha  occ. eigenvalues --  -14.27552 -14.21888 -14.20137 -10.15127 -10.11751
 Alpha  occ. eigenvalues --  -10.11413 -10.11317 -10.10854 -10.10296 -10.10215
 Alpha  occ. eigenvalues --  -10.08952 -10.08844 -10.08748 -10.08571 -10.08531
 Alpha  occ. eigenvalues --  -10.08375 -10.08345 -10.08077  -0.92776  -0.83080
 Alpha  occ. eigenvalues --   -0.80120  -0.78285  -0.75860  -0.69032  -0.66648
 Alpha  occ. eigenvalues --   -0.64261  -0.62910  -0.62731  -0.58791  -0.55810
 Alpha  occ. eigenvalues --   -0.52308  -0.51239  -0.50814  -0.48049  -0.46234
 Alpha  occ. eigenvalues --   -0.42616  -0.42365  -0.41463  -0.39139  -0.38833
 Alpha  occ. eigenvalues --   -0.38260  -0.37092  -0.36517  -0.35515  -0.34340
 Alpha  occ. eigenvalues --   -0.33616  -0.33115  -0.32919  -0.31572  -0.31040
 Alpha  occ. eigenvalues --   -0.30707  -0.30573  -0.29987  -0.29039  -0.28480
 Alpha  occ. eigenvalues --   -0.28168  -0.26695  -0.25119  -0.23842  -0.21012
 Alpha  occ. eigenvalues --   -0.20565  -0.19611  -0.18464  -0.15154  -0.13671
 Alpha  occ. eigenvalues --   -0.13359   0.03665
 Alpha virt. eigenvalues --    0.04566   0.06285   0.06485   0.06777   0.07083
 Alpha virt. eigenvalues --    0.07678   0.08313   0.08629   0.09017   0.09256
 Alpha virt. eigenvalues --    0.09712   0.10189   0.10610   0.10832   0.11123

  Beta  occ. eigenvalues --  -14.27549 -14.21881 -14.20132 -10.15126 -10.11678
  Beta  occ. eigenvalues --  -10.11413 -10.11307 -10.10827 -10.10295 -10.10214
  Beta  occ. eigenvalues --  -10.08939 -10.08844 -10.08706 -10.08567 -10.08525
  Beta  occ. eigenvalues --  -10.08373 -10.08343 -10.08075  -0.92766  -0.83068
  Beta  occ. eigenvalues --   -0.80107  -0.78279  -0.75854  -0.69015  -0.66624
  Beta  occ. eigenvalues --   -0.64235  -0.62843  -0.62698  -0.58761  -0.55765
  Beta  occ. eigenvalues --   -0.52286  -0.51216  -0.50805  -0.48008  -0.46219
  Beta  occ. eigenvalues --   -0.42561  -0.42347  -0.41443  -0.39119  -0.38799
  Beta  occ. eigenvalues --   -0.38239  -0.37070  -0.36489  -0.35493  -0.34316
  Beta  occ. eigenvalues --   -0.33565  -0.33090  -0.32880  -0.31543  -0.31016
  Beta  occ. eigenvalues --   -0.30666  -0.30540  -0.29961  -0.29019  -0.28469
  Beta  occ. eigenvalues --   -0.28157  -0.26685  -0.25107  -0.23829  -0.21003
  Beta  occ. eigenvalues --   -0.20552  -0.19606  -0.18439  -0.15133  -0.13663
  Beta  occ. eigenvalues --   -0.13349
  Beta virt. eigenvalues --    0.05198   0.06235   0.06321   0.06707   0.06956
  Beta virt. eigenvalues --    0.07502   0.07926   0.08760   0.09134   0.09436
  Beta virt. eigenvalues --    0.09515   0.09892   0.10308   0.10769   0.10948

 Mulliken charges and spin densities:
               1          2
     1  C    2.314600  -2.577327
     2  C   -1.201185   1.530063
     3  N   -0.117780   0.026055
     4  C   -0.824337   0.373078
     5  C   -0.204254   0.070999
     6  N   -0.258228   0.284771
     7  C    1.687641  -2.001835
     8  C   -0.129470  -0.358715
     9  C   -0.418300  -0.122017
    10  C    1.580260   0.007729
    11  C   -0.939579   0.338285
    12  C   -0.579132  -0.459863
    13  C    0.390946   0.652967
    14  C   -0.490615  -0.274461
    15  C   -0.359847  -0.120610
    16  C   -0.294855  -0.621561
    17  N   -0.156206   0.147249
    18  C    0.497879  -0.829391
    19  H   -0.231997   0.416651
    20  H    0.095158   0.075288
    21  H   -0.242609   0.428720
    22  H   -0.922917   1.092654
    23  H   -0.428049   0.607777
    24  H   -0.386931   0.565883
    25  H   -0.196377   0.370017
    26  H    0.061672   0.098309
    27  H    0.125078   0.042974
    28  H    0.226831  -0.020883
    29  H    0.111559   0.047524
    30  H    0.045737   0.091144
    31  H    0.178169  -0.014550
    32  H    0.182012  -0.005195
    33  H   -0.002918   0.158434
    34  H    0.094670   0.051691
    35  H    0.088776   0.033359
    36  H    0.139862   0.072799
    37  H   -0.283997   0.402638
    38  H   -0.072187   0.201537
    39  H   -0.079080   0.217813
 Sum of Mulliken charges =  -1.00000   1.00000

 Dipole moment (field-independent basis, Debye):
    X=              7.3801    Y=             -0.2042    Z=             -0.3524  Tot=              7.3913
 Quadrupole moment (field-independent basis, Debye-Ang):
   XX=           -269.7933   YY=           -147.3922   ZZ=           -142.1935
   XY=             16.2719   XZ=              2.7094   YZ=             -1.8171

 Summary of Natural Population Analysis:

                                       Natural Population
                Natural  -----------------------------------------------
    Atom  No    Charge         Core      Valence    Rydberg      Total
 -----------------------------------------------------------------------
      C    1   -0.31128      0.99962     2.30593    0.00573     3.31128
      C    2    0.22079      0.99961     1.76256    0.01705     2.77921
      N    3   -0.26334      0.99968     2.75455    0.00911     3.76334
      C    4    0.06018      0.99945     1.92629    0.01407     2.93982
      C    5    0.06903      0.99945     1.92081    0.01071     2.93097
      N    6   -0.21432      0.99959     2.70454    0.01018     3.71432
      C    7   -0.17563      0.99964     2.16773    0.00826     3.17563
      C    8   -0.11482      0.99953     2.10632    0.00897     3.11482
      C    9   -0.10702      0.99953     2.09797    0.00952     3.10702
      C   10   -0.02756      0.99952     2.01747    0.01058     3.02756
      C   11   -0.10071      0.99947     2.09337    0.00788     3.10071
      C   12   -0.19315      0.99956     2.18469    0.00890     3.19315
      C   13   -0.04249      0.99955     2.03130    0.01165     3.04249
      C   14   -0.19766      0.99958     2.19020    0.00788     3.19766
      C   15   -0.20085      0.99959     2.19330    0.00796     3.20085
      C   16   -0.07982      0.99957     2.06800    0.01225     3.07982
      N   17   -0.33807      0.99975     2.82757    0.01076     3.83807
      C   18   -0.17833      0.99967     2.17036    0.00829     3.17833
      H   19    0.11082      0.00000     0.38780    0.00138     0.38918
      H   20    0.11471      0.00000     0.38420    0.00109     0.38529
      H   21    0.11096      0.00000     0.38760    0.00144     0.38904
      H   22    0.10974      0.00000     0.38635    0.00390     0.39026
      H   23    0.10171      0.00000     0.39587    0.00242     0.39829
      H   24    0.10113      0.00000     0.39662    0.00225     0.39887
      H   25    0.10630      0.00000     0.39268    0.00102     0.39370
      H   26    0.09873      0.00000     0.40033    0.00094     0.40127
      H   27    0.10359      0.00000     0.39507    0.00134     0.39641
      H   28    0.11162      0.00000     0.38688    0.00149     0.38838
      H   29    0.09984      0.00000     0.39912    0.00104     0.40016
      H   30    0.09983      0.00000     0.39926    0.00092     0.40017
      H   31    0.10926      0.00000     0.38978    0.00096     0.39074
      H   32    0.11081      0.00000     0.38819    0.00099     0.38919
      H   33    0.09965      0.00000     0.39943    0.00092     0.40035
      H   34    0.09132      0.00000     0.40752    0.00117     0.40868
      H   35    0.08069      0.00000     0.41762    0.00169     0.41931
      H   36    0.16988      0.00000     0.32683    0.00328     0.33012
      H   37    0.07904      0.00000     0.41919    0.00177     0.42096
      H   38    0.09485      0.00000     0.40437    0.00078     0.40515
      H   39    0.09057      0.00000     0.40839    0.00105     0.40943
 =======================================================================
   * Total *    0.00000     17.99236    47.79605    0.21159    66.00000

 Normal termination of Gaussian 16 at Fri Dec 11 22:15:31 2020.
