 Gaussian 16, Revision A.03,

 -----------------------------------------------------------
 # opt freq B3LYP/6-31G(d) empiricaldispersion=gd3bj scf=xqc
 -----------------------------------------------------------

 -------------------------------
 CID_130750719_JID_6350_neutraal
 -------------------------------
 Symbolic Z-matrix:
 Charge =  0 Multiplicity = 1

 SCF Done:  E(RB3LYP) =  -688.522545253     A.U. after   15 cycles
 SCF Done:  E(RB3LYP) =  -688.531901247     A.U. after   13 cycles
 SCF Done:  E(RB3LYP) =  -688.533268036     A.U. after   12 cycles
 SCF Done:  E(RB3LYP) =  -688.533528839     A.U. after   12 cycles
 SCF Done:  E(RB3LYP) =  -688.533564217     A.U. after   12 cycles
 SCF Done:  E(RB3LYP) =  -688.533603655     A.U. after   10 cycles
 SCF Done:  E(RB3LYP) =  -688.533607213     A.U. after   10 cycles
 SCF Done:  E(RB3LYP) =  -688.533613896     A.U. after    9 cycles
 SCF Done:  E(RB3LYP) =  -688.533616481     A.U. after   10 cycles
 SCF Done:  E(RB3LYP) =  -688.533617273     A.U. after    9 cycles
 SCF Done:  E(RB3LYP) =  -688.533617528     A.U. after    8 cycles
 Optimization completed.
    -- Stationary point found.
 Normal termination of Gaussian 16 at Thu Dec 10 22:15:13 2020.

 --------------------------------------------------------------------
 #N Geom=AllCheck Guess=TCheck SCRF=Check GenChk RB3LYP/6-31G(d) Freq
 --------------------------------------------------------------------

 Structure from the checkpoint file:  "JID_6350.chk"
 -------------------------------
 CID_130750719_JID_6350_neutraal
 -------------------------------
 Charge =  0 Multiplicity = 1

 SCF Done:  E(RB3LYP) =  -688.533617528     A.U. after    1 cycles

  Exact polarizability: 178.267   8.119 151.639  15.254   1.698 120.011
 Approx polarizability: 253.528  15.179 261.231  35.334   3.406 206.494

                      1                      2                      3
                      A                      A                      A
 Frequencies --     28.7095                31.4088                50.2590
 Red. masses --      3.8068                 4.5360                 4.7777
 Frc consts  --      0.0018                 0.0026                 0.0071
 IR Inten    --      0.0369                 0.7251                 0.1637

                      4                      5                      6
                      A                      A                      A
 Frequencies --     90.2878               126.2353               150.6580
 Red. masses --      1.0694                 4.3499                 4.1883
 Frc consts  --      0.0051                 0.0408                 0.0560
 IR Inten    --      0.2655                 0.4123                 0.2796

                      7                      8                      9
                      A                      A                      A
 Frequencies --    164.0356               219.8572               276.9460
 Red. masses --      3.7151                 3.7283                 4.4847
 Frc consts  --      0.0589                 0.1062                 0.2027
 IR Inten    --      1.9615                 3.1108                 0.8079

                     10                     11                     12
                      A                      A                      A
 Frequencies --    298.6595               315.9563               326.5535
 Red. masses --      3.8062                 5.0357                 2.8674
 Frc consts  --      0.2000                 0.2962                 0.1802
 IR Inten    --      1.8005                 2.1469                 3.1317

                     13                     14                     15
                      A                      A                      A
 Frequencies --    407.3435               416.7671               438.9103
 Red. masses --      3.0474                 3.0216                 4.4158
 Frc consts  --      0.2979                 0.3092                 0.5012
 IR Inten    --     13.6116                 0.2526                 7.0364

                     16                     17                     18
                      A                      A                      A
 Frequencies --    469.6684               479.4358               555.3663
 Red. masses --      5.1612                 3.5118                 4.9183
 Frc consts  --      0.6708                 0.4756                 0.8938
 IR Inten    --      0.1075                 8.4485                 3.3597

                     19                     20                     21
                      A                      A                      A
 Frequencies --    590.9333               602.2480               636.2822
 Red. masses --      2.9625                 5.4864                 6.1685
 Frc consts  --      0.6095                 1.1724                 1.4714
 IR Inten    --      6.2178                13.1427                 0.9480

                     22                     23                     24
                      A                      A                      A
 Frequencies --    651.6787               660.0061               697.4992
 Red. masses --      2.6115                 1.9149                 3.0279
 Frc consts  --      0.6534                 0.4915                 0.8679
 IR Inten    --     22.3647                29.6673                29.4988

                     25                     26                     27
                      A                      A                      A
 Frequencies --    714.2182               743.0421               752.0173
 Red. masses --      2.4464                 1.9956                 1.2384
 Frc consts  --      0.7353                 0.6492                 0.4126
 IR Inten    --     14.2311                35.1484                29.3682

                     28                     29                     30
                      A                      A                      A
 Frequencies --    761.0458               803.7869               820.8583
 Red. masses --      2.8161                 4.6806                 4.1816
 Frc consts  --      0.9610                 1.7817                 1.6601
 IR Inten    --      8.8266                13.4852                 1.9402

                     31                     32                     33
                      A                      A                      A
 Frequencies --    844.0228               865.3339               907.0699
 Red. masses --      1.4016                 1.2495                 1.2417
 Frc consts  --      0.5883                 0.5512                 0.6019
 IR Inten    --     26.3460                 0.1238                 1.5734

                     34                     35                     36
                      A                      A                      A
 Frequencies --    916.9105               955.6223               970.9518
 Red. masses --      1.3558                 2.7110                 1.3375
 Frc consts  --      0.6716                 1.4587                 0.7429
 IR Inten    --      2.9597                 0.8790                 0.2105

                     37                     38                     39
                      A                      A                      A
 Frequencies --    995.0577              1021.2169              1028.9155
 Red. masses --      1.2523                 4.9589                 1.8668
 Frc consts  --      0.7306                 3.0470                 1.1644
 IR Inten    --      1.4213                 0.4163                 2.9619

                     40                     41                     42
                      A                      A                      A
 Frequencies --   1049.4244              1060.2703              1072.9652
 Red. masses --      1.9488                 2.1717                 1.5221
 Frc consts  --      1.2645                 1.4384                 1.0324
 IR Inten    --      9.5996                 6.1797                 4.7222

                     43                     44                     45
                      A                      A                      A
 Frequencies --   1092.2392              1115.8234              1159.5703
 Red. masses --      2.8614                 1.6455                 1.6360
 Frc consts  --      2.0112                 1.2071                 1.2961
 IR Inten    --     23.9641                 5.1152                10.5634

                     46                     47                     48
                      A                      A                      A
 Frequencies --   1192.2713              1207.4073              1209.9021
 Red. masses --      1.0991                 2.2381                 1.4036
 Frc consts  --      0.9205                 1.9224                 1.2106
 IR Inten    --      0.2103                 1.4682                12.1410

                     49                     50                     51
                      A                      A                      A
 Frequencies --   1223.1856              1223.6377              1274.2623
 Red. masses --      2.5071                 3.3460                 1.3333
 Frc consts  --      2.2101                 2.9517                 1.2755
 IR Inten    --     17.5393                56.6975                 8.7674

                     52                     53                     54
                      A                      A                      A
 Frequencies --   1302.5536              1328.0642              1337.9812
 Red. masses --      2.0135                 1.6543                 1.8182
 Frc consts  --      2.0128                 1.7191                 1.9178
 IR Inten    --      5.6376                 4.7790                25.3151

                     55                     56                     57
                      A                      A                      A
 Frequencies --   1365.8646              1391.2758              1400.3242
 Red. masses --      2.3083                 1.6259                 2.1655
 Frc consts  --      2.5372                 1.8543                 2.5019
 IR Inten    --      3.2743                84.9587                13.4918

                     58                     59                     60
                      A                      A                      A
 Frequencies --   1440.6432              1501.1703              1510.9251
 Red. masses --      1.2557                 2.1855                 1.0576
 Frc consts  --      1.5355                 2.9018                 1.4226
 IR Inten    --      0.2663                29.2890                 8.0289

                     61                     62                     63
                      A                      A                      A
 Frequencies --   1512.0721              1516.9356              1532.9301
 Red. masses --      1.1838                 1.2724                 1.7549
 Frc consts  --      1.5946                 1.7250                 2.4297
 IR Inten    --     25.7757                40.4300                72.1071

                     64                     65                     66
                      A                      A                      A
 Frequencies --   1546.6718              1572.5969              1622.0014
 Red. masses --      2.1046                 3.6599                 4.9737
 Frc consts  --      2.9663                 5.3328                 7.7097
 IR Inten    --      9.7106                76.4285               281.4684

                     67                     68                     69
                      A                      A                      A
 Frequencies --   1646.8435              1658.2799              1667.0135
 Red. masses --      5.3803                 1.9731                 5.3128
 Frc consts  --      8.5972                 3.1968                 8.6987
 IR Inten    --      2.1342               166.1634                 8.0528

                     70                     71                     72
                      A                      A                      A
 Frequencies --   1708.9718              2976.4651              3036.4235
 Red. masses --      6.2775                 1.0721                 1.0631
 Frc consts  --     10.8020                 5.5960                 5.7750
 IR Inten    --    402.9911                73.6984               248.5666

                     73                     74                     75
                      A                      A                      A
 Frequencies --   3047.9954              3053.7905              3100.5599
 Red. masses --      1.0379                 1.0888                 1.1006
 Frc consts  --      5.6811                 5.9824                 6.2337
 IR Inten    --     26.2477                19.7872                15.1349

                     76                     77                     78
                      A                      A                      A
 Frequencies --   3139.9738              3167.7829              3181.1901
 Red. masses --      1.1010                 1.0868                 1.0863
 Frc consts  --      6.3954                 6.4254                 6.4774
 IR Inten    --     15.2399                10.5707                 0.4517

                     79                     80                     81
                      A                      A                      A
 Frequencies --   3191.0885              3204.1444              3212.1559
 Red. masses --      1.0912                 1.0945                 1.0951
 Frc consts  --      6.5471                 6.6202                 6.6572
 IR Inten    --     29.3956                33.5470                11.5623

                     82                     83                     84
                      A                      A                      A
 Frequencies --   3228.9411              3234.6850              3257.2052
 Red. masses --      1.0894                 1.0902                 1.0959
 Frc consts  --      6.6923                 6.7209                 6.8506
 IR Inten    --      1.8678                 1.6214                 0.9422

 - Thermochemistry -
 -------------------
 Temperature   298.150 Kelvin.  Pressure   1.00000 Atm.
 Atom     1 has atomic number  6 and mass  12.00000

 Molecular mass:   214.11061 amu.
 Principal axes and moments of inertia in atomic units:
                           1         2         3
     Eigenvalues --  2100.305845208.334486226.99259
           X            0.99991  -0.01313   0.00194
           Y            0.01313   0.99991   0.00384
           Z           -0.00199  -0.00381   0.99999
 This molecule is an asymmetric top.
 Rotational symmetry number  1.
 Warning -- assumption of classical behavior for rotation
           may cause significant error
 Rotational temperatures (Kelvin)      0.04124     0.01663     0.01391
 Rotational constants (GHZ):           0.85928     0.34651     0.28983
 Zero-point vibrational energy     647552.1 (Joules/Mol)
                                  154.76866 (Kcal/Mol)
 Warning -- explicit consideration of  20 degrees of freedom as
           vibrations may cause significant error
 Vibrational temperatures:     41.31    45.19    72.31   129.90   181.62
          (Kelvin)            216.76   236.01   316.33   398.46   429.70
                              454.59   469.84   586.08   599.63   631.49
                              675.75   689.80   799.05   850.22   866.50
                              915.47   937.62   949.60  1003.55  1027.60
                             1069.07  1081.99  1094.98  1156.47  1181.03
                             1214.36  1245.02  1305.07  1319.23  1374.93
                             1396.98  1431.67  1469.30  1480.38  1509.89
                             1525.49  1543.76  1571.49  1605.42  1668.36
                             1715.41  1737.19  1740.78  1759.89  1760.54
                             1833.38  1874.08  1910.79  1925.06  1965.17
                             2001.74  2014.75  2072.76  2159.85  2173.88
                             2175.53  2182.53  2205.54  2225.32  2262.62
                             2333.70  2369.44  2385.89  2398.46  2458.83
                             4282.47  4368.74  4385.39  4393.72  4461.01
                             4517.72  4557.73  4577.02  4591.26  4610.05
                             4621.58  4645.73  4653.99  4686.39

 Zero-point correction=                           0.246640 (Hartree/Particle)
 Thermal correction to Energy=                    0.260647
 Thermal correction to Enthalpy=                  0.261592
 Thermal correction to Gibbs Free Energy=         0.204204
 Sum of electronic and zero-point Energies=           -688.286978
 Sum of electronic and thermal Energies=              -688.272970
 Sum of electronic and thermal Enthalpies=            -688.272026
 Sum of electronic and thermal Free Energies=         -688.329414

                     E (Thermal)             CV                S
                      KCal/Mol        Cal/Mol-Kelvin    Cal/Mol-Kelvin
 Total                  163.559             54.455            120.783
 Electronic               0.000              0.000              0.000
 Translational            0.889              2.981             41.987
 Rotational               0.889              2.981             32.588
 Vibrational            161.781             48.494             46.208
 Vibration     1          0.593              1.984              5.917
 Vibration     2          0.594              1.983              5.738
 Vibration     3          0.595              1.977              4.807
 Vibration     4          0.602              1.956              3.654
 Vibration     5          0.611              1.927              3.003
 Vibration     6          0.618              1.902              2.664
 Vibration     7          0.623              1.887              2.503
 Vibration     8          0.647              1.811              1.960
 Vibration     9          0.678              1.716              1.552
 Vibration    10          0.692              1.676              1.424
 Vibration    11          0.703              1.643              1.331
 Vibration    12          0.710              1.622              1.277
 Vibration    13          0.772              1.454              0.936
 Vibration    14          0.780              1.434              0.903
 Vibration    15          0.799              1.385              0.830
 Vibration    16          0.827              1.317              0.738
 Vibration    17          0.836              1.296              0.712
 Vibration    18          0.911              1.128              0.533
 Vibration    19          0.948              1.051              0.466
 Vibration    20          0.961              1.027              0.446

                           ! Non-Optimized Parameters !
 Normal termination of Gaussian 16 at Thu Dec 10 22:24:25 2020.

 ----------------------------------------------------------------------
 # B3LYP/6-311++G(d,p) empiricaldispersion=gd3bj scf=xqc pop=npa geom=c
 heck
 ----------------------------------------------------------------------

 ---------------------------------------
 CID_130750719_JID_6350_Energie_neutraal
 ---------------------------------------
 Structure from the checkpoint file:  "JID_6350.chk"
 Charge =  0 Multiplicity = 1

 SCF Done:  E(RB3LYP) =  -688.723876736     A.U. after   16 cycles
 Normal termination of Gaussian 16 at Thu Dec 10 22:28:14 2020.

 ----------------------------------------------------------------------
 # B3LYP/6-311++G(d,p) empiricaldispersion=gd3bj scf=xqc pop=npa geom=c
 heck
 ----------------------------------------------------------------------

 -------------------------------------
 CID_130750719_JID_6350_Energie_kation
 -------------------------------------
 Structure from the checkpoint file:  "JID_6350.chk"
 Charge =  1 Multiplicity = 2

 SCF Done:  E(UB3LYP) =  -688.457066778     A.U. after   22 cycles
 Normal termination of Gaussian 16 at Thu Dec 10 22:35:23 2020.
 Gaussian 16:  ES64L-G16RevA.03 25-Dec-2016

 ----------------------------------------------------------------------
 # B3LYP/6-311++G(d,p) empiricaldispersion=gd3bj scf=xqc pop=npa geom=c
 heck
 ----------------------------------------------------------------------

 ------------------------------------
 CID_130750719_JID_6350_Energie_anion
 ------------------------------------
 Structure from the checkpoint file:  "JID_6350.chk"
 Charge = -1 Multiplicity = 2

                         Standard orientation:
 ---------------------------------------------------------------------
 Center     Atomic      Atomic             Coordinates (Angstroms)
 Number     Number       Type             X           Y           Z
 ---------------------------------------------------------------------
      1          6           0       -1.849989    3.139425    0.288572
      2          6           0       -1.997828    1.649927    0.116782
      3          6           0       -1.009740    0.787339    0.535359
      4          6           0       -1.124706   -0.632013    0.374681
      5          7           0       -0.345751   -1.628795    0.688670
      6          6           0        0.908574   -1.339958    1.353607
      7          6           0        1.933992   -0.604531    0.499947
      8          6           0        1.983793   -0.793629   -0.885177
      9          6           0        2.939738   -0.134831   -1.657369
     10          6           0        3.860840    0.724515   -1.055347
     11          6           0        3.817302    0.920963    0.325332
     12          6           0        2.857801    0.261433    1.094554
     13          7           0       -2.312999   -1.040307   -0.244068
     14          6           0       -3.296707   -0.225337   -0.661777
     15          6           0       -3.173727    1.131022   -0.494865
     16          8           0       -2.439034   -2.401600   -0.415385
     17          1           0       -2.662801    3.544268    0.903824
     18          1           0       -1.895636    3.649855   -0.681079
     19          1           0       -0.899846    3.396131    0.764415
     20          1           0       -0.097840    1.167595    0.979023
     21          1           0        0.748175   -0.762680    2.279916
     22          1           0        1.335540   -2.300436    1.669163
     23          1           0        1.258460   -1.453782   -1.350535
     24          1           0        2.964319   -0.290611   -2.732721
     25          1           0        4.603103    1.240551   -1.658021
     26          1           0        4.524940    1.593165    0.803442
     27          1           0        2.822395    0.423153    2.170125
     28          1           0       -4.144270   -0.722271   -1.116587
     29          1           0       -3.966908    1.786103   -0.834356
     30          1           0       -1.562165   -2.680489    0.008455
 ---------------------------------------------------------------------

 SCF Done:  E(UB3LYP) =  -688.716180363     A.U. after   33 cycles
 SCF Done:  E(UB3LYP) =  -688.716180363     a.u. after    1 cycles

 The electronic state is 2-A.
 Alpha  occ. eigenvalues --  -19.04530 -14.28214 -14.15417 -10.11782 -10.09082
 Alpha  occ. eigenvalues --  -10.08264 -10.07075 -10.06904 -10.06886 -10.06801
 Alpha  occ. eigenvalues --  -10.06341 -10.06238 -10.05448 -10.05394 -10.04823
 Alpha  occ. eigenvalues --  -10.03528  -0.99618  -0.80943  -0.77523  -0.74671
 Alpha  occ. eigenvalues --   -0.68695  -0.66278  -0.63958  -0.62447  -0.58878
 Alpha  occ. eigenvalues --   -0.56656  -0.51996  -0.49960  -0.48255  -0.46561
 Alpha  occ. eigenvalues --   -0.43227  -0.40901  -0.39953  -0.36635  -0.35361
 Alpha  occ. eigenvalues --   -0.34675  -0.34513  -0.33873  -0.32408  -0.31515
 Alpha  occ. eigenvalues --   -0.30640  -0.30296  -0.30241  -0.30087  -0.27169
 Alpha  occ. eigenvalues --   -0.26027  -0.25466  -0.24520  -0.23787  -0.23460
 Alpha  occ. eigenvalues --   -0.21633  -0.18622  -0.15019  -0.14595  -0.14055
 Alpha  occ. eigenvalues --   -0.13698  -0.07521   0.04865
 Alpha virt. eigenvalues --    0.06608   0.07712   0.08073   0.08657   0.08977
 Alpha virt. eigenvalues --    0.09074   0.09276   0.10415   0.10576   0.11027
 Alpha virt. eigenvalues --    0.11047   0.12427   0.12722   0.13065   0.13479

  Beta  occ. eigenvalues --  -19.04504 -14.27902 -14.15408 -10.11772 -10.08854
  Beta  occ. eigenvalues --  -10.08253 -10.07074 -10.06889 -10.06860 -10.06786
  Beta  occ. eigenvalues --  -10.06304 -10.06243 -10.05457 -10.05082 -10.04919
  Beta  occ. eigenvalues --  -10.03441  -0.99365  -0.80790  -0.77325  -0.74615
  Beta  occ. eigenvalues --   -0.68267  -0.66186  -0.63898  -0.62268  -0.58756
  Beta  occ. eigenvalues --   -0.56574  -0.51822  -0.49885  -0.48040  -0.46347
  Beta  occ. eigenvalues --   -0.43106  -0.40836  -0.39762  -0.36533  -0.35222
  Beta  occ. eigenvalues --   -0.34387  -0.33889  -0.33759  -0.32368  -0.31461
  Beta  occ. eigenvalues --   -0.30344  -0.30195  -0.30147  -0.30002  -0.27085
  Beta  occ. eigenvalues --   -0.25901  -0.25373  -0.24465  -0.23747  -0.23335
  Beta  occ. eigenvalues --   -0.21168  -0.18105  -0.14885  -0.14539  -0.13717
  Beta  occ. eigenvalues --   -0.12701  -0.06995
  Beta virt. eigenvalues --    0.07046   0.07767   0.08402   0.08645   0.08914
  Beta virt. eigenvalues --    0.09189   0.09367   0.09916   0.10611   0.10749
  Beta virt. eigenvalues --    0.11202   0.11277   0.12508   0.12939   0.13179

 Mulliken charges and spin densities:
               1          2
     1  C    0.283714  -0.988675
     2  C    0.398513   0.737488
     3  C    0.126282   0.078276
     4  C   -0.556460  -0.252713
     5  N   -0.346668   0.045043
     6  C    0.211866  -0.901639
     7  C    0.291915   0.667630
     8  C   -0.422242   0.287353
     9  C   -0.509831   0.124832
    10  C    0.369994  -0.739984
    11  C    0.413477  -0.679475
    12  C   -0.330855  -0.002268
    13  N   -0.204279   0.051215
    14  C    0.079659   0.177942
    15  C   -1.009320   0.288145
    16  O    0.035464   0.017787
    17  H   -0.092162   0.237092
    18  H    0.131819   0.001680
    19  H   -0.134348   0.283783
    20  H    0.284408  -0.180637
    21  H   -0.122062   0.300199
    22  H    0.197424  -0.025281
    23  H    0.173814  -0.005509
    24  H    0.088879   0.064264
    25  H   -0.094875   0.225551
    26  H   -0.562467   0.735496
    27  H   -0.188510   0.336319
    28  H    0.130314   0.006296
    29  H    0.028525   0.110080
    30  H    0.328012  -0.000286
 Sum of Mulliken charges =  -1.00000   1.00000

 Dipole moment (field-independent basis, Debye):
    X=             -1.1702    Y=             -2.0411    Z=             -2.7735  Tot=              3.6370
 Quadrupole moment (field-independent basis, Debye-Ang):
   XX=           -156.9926   YY=           -128.0672   ZZ=           -116.7420
   XY=             -7.8968   XZ=             -0.0529   YZ=             -5.6960

 Summary of Natural Population Analysis:

                                       Natural Population
                Natural  -----------------------------------------------
    Atom  No    Charge         Core      Valence    Rydberg      Total
 -----------------------------------------------------------------------
      C    1   -0.29476      0.99964     2.28988    0.00525     3.29476
      C    2    0.05718      0.99953     1.93480    0.00848     2.94282
      C    3   -0.14300      0.99948     2.13459    0.00893     3.14300
      C    4    0.20957      0.99954     1.77719    0.01370     2.79043
      N    5   -0.35285      0.99963     2.84120    0.01202     3.85285
      C    6   -0.09606      0.99959     2.08359    0.01288     3.09606
      C    7   -0.01521      0.99950     2.00577    0.00994     3.01521
      C    8   -0.10199      0.99951     2.09436    0.00812     3.10199
      C    9   -0.09699      0.99957     2.08828    0.00914     3.09699
      C   10   -0.11160      0.99957     2.10118    0.01085     3.11160
      C   11   -0.10096      0.99957     2.09092    0.01047     3.10096
      C   12   -0.09945      0.99951     2.08998    0.00996     3.09945
      N   13   -0.00313      0.99953     2.49222    0.01137     3.50313
      C   14    0.06775      0.99957     1.92158    0.01111     2.93225
      C   15   -0.17812      0.99953     2.16797    0.01062     3.17812
      O   16   -0.28483      0.99990     3.27770    0.00723     4.28483
      H   17    0.10356      0.00000     0.39494    0.00150     0.39644
      H   18    0.10002      0.00000     0.39916    0.00082     0.39998
      H   19    0.10249      0.00000     0.39674    0.00077     0.39751
      H   20    0.10547      0.00000     0.39293    0.00160     0.39453
      H   21    0.08943      0.00000     0.40857    0.00200     0.41057
      H   22    0.09574      0.00000     0.40308    0.00118     0.40426
      H   23    0.10669      0.00000     0.39179    0.00153     0.39331
      H   24    0.09606      0.00000     0.40320    0.00074     0.40394
      H   25    0.09782      0.00000     0.40133    0.00084     0.40218
      H   26    0.09990      0.00000     0.39869    0.00142     0.40010
      H   27    0.09899      0.00000     0.39909    0.00192     0.40101
      H   28    0.09885      0.00000     0.40029    0.00086     0.40115
      H   29    0.09960      0.00000     0.39957    0.00084     0.40040
      H   30    0.24981      0.00000     0.24651    0.00368     0.25019
 =======================================================================
   * Total *    0.00000     15.99315    40.82710    0.17975    57.00000

 Normal termination of Gaussian 16 at Thu Dec 10 22:46:09 2020.
