 Gaussian 16, Revision A.03,

 -----------------------------------------------------------
 # opt freq B3LYP/6-31G(d) empiricaldispersion=gd3bj scf=xqc
 -----------------------------------------------------------

 -----------------------------
 CID_22890036_JID_889_neutraal
 -----------------------------
 Symbolic Z-matrix:
 Charge =  0 Multiplicity = 1

 SCF Done:  E(RB3LYP) =  -856.086058182     A.U. after   14 cycles
 SCF Done:  E(RB3LYP) =  -856.091081732     A.U. after   15 cycles
 SCF Done:  E(RB3LYP) =  -856.092368762     A.U. after   13 cycles
 SCF Done:  E(RB3LYP) =  -856.092714394     A.U. after   12 cycles
 SCF Done:  E(RB3LYP) =  -856.092791625     A.U. after   12 cycles
 SCF Done:  E(RB3LYP) =  -856.092812249     A.U. after   10 cycles
 SCF Done:  E(RB3LYP) =  -856.092816760     A.U. after    9 cycles
 SCF Done:  E(RB3LYP) =  -856.092817414     A.U. after    8 cycles
 SCF Done:  E(RB3LYP) =  -856.092817514     A.U. after    7 cycles
 SCF Done:  E(RB3LYP) =  -856.092817575     A.U. after    7 cycles
 Optimization completed.
    -- Stationary point found.
 Normal termination of Gaussian 16 at Tue Dec  8 13:30:41 2020.

 --------------------------------------------------------------------
 #N Geom=AllCheck Guess=TCheck SCRF=Check GenChk RB3LYP/6-31G(d) Freq
 --------------------------------------------------------------------

 Structure from the checkpoint file:  "JID_889.chk"
 -----------------------------
 CID_22890036_JID_889_neutraal
 -----------------------------
 Charge =  0 Multiplicity = 1

 SCF Done:  E(RB3LYP) =  -856.092817575     A.U. after    1 cycles

  Exact polarizability: 121.974   4.113  99.177   3.388   4.839  45.031
 Approx polarizability: 192.158   4.479 175.404   7.114   9.049  71.518

                      1                      2                      3
                      A                      A                      A
 Frequencies --     55.7143               107.4676               154.2190
 Red. masses --      6.2087                 5.1733                 7.2184
 Frc consts  --      0.0114                 0.0352                 0.1011
 IR Inten    --      6.2657                 0.7174                 0.3642

                      4                      5                      6
                      A                      A                      A
 Frequencies --    232.9202               264.9569               328.9480
 Red. masses --      6.3622                 5.1544                 1.1770
 Frc consts  --      0.2034                 0.2132                 0.0750
 IR Inten    --     16.6922                 2.3901               112.0009

                      7                      8                      9
                      A                      A                      A
 Frequencies --    336.6990               376.8456               381.2265
 Red. masses --      4.5329                 5.4538                 1.3548
 Frc consts  --      0.3028                 0.4563                 0.1160
 IR Inten    --      8.2050                 0.3762                87.4491

                     10                     11                     12
                      A                      A                      A
 Frequencies --    424.5011               475.8335               485.4538
 Red. masses --      4.7030                 4.4686                 6.3527
 Frc consts  --      0.4993                 0.5961                 0.8821
 IR Inten    --     44.8554                 9.3531                15.7863

                     13                     14                     15
                      A                      A                      A
 Frequencies --    529.2953               568.3502               586.1102
 Red. masses --      4.0077                 1.1634                 3.0548
 Frc consts  --      0.6615                 0.2214                 0.6183
 IR Inten    --     20.7136                70.8124                 7.0836

                     16                     17                     18
                      A                      A                      A
 Frequencies --    703.9888               712.7479               722.1148
 Red. masses --      6.0577                 7.2286                10.8356
 Frc consts  --      1.7688                 2.1636                 3.3290
 IR Inten    --     13.1858                17.1516                75.9827

                     19                     20                     21
                      A                      A                      A
 Frequencies --    794.1126               841.3517               849.4464
 Red. masses --      6.0724                 1.3521                 1.6022
 Frc consts  --      2.2562                 0.5639                 0.6812
 IR Inten    --     31.1756                 0.3105                41.1030

                     22                     23                     24
                      A                      A                      A
 Frequencies --    930.5684               958.6262              1069.0650
 Red. masses --      5.9816                 1.2890                 2.7206
 Frc consts  --      3.0519                 0.6979                 1.8320
 IR Inten    --      5.5314                 0.0168                 7.0767

                     25                     26                     27
                      A                      A                      A
 Frequencies --   1149.8833              1206.8588              1210.6454
 Red. masses --      1.3522                 1.3728                 1.1966
 Frc consts  --      1.0534                 1.1781                 1.0333
 IR Inten    --      7.1382                99.6787                63.2485

                     28                     29                     30
                      A                      A                      A
 Frequencies --   1226.4794              1276.8329              1319.3815
 Red. masses --      1.2723                 2.3884                 4.3235
 Frc consts  --      1.1276                 2.2942                 4.4343
 IR Inten    --    118.4579               231.6735                17.8140

                     31                     32                     33
                      A                      A                      A
 Frequencies --   1352.7255              1393.8212              1495.4920
 Red. masses --      1.7242                 2.9915                 2.9607
 Frc consts  --      1.8589                 3.4241                 3.9014
 IR Inten    --     31.6088                22.3931                66.0078

                     34                     35                     36
                      A                      A                      A
 Frequencies --   1537.7941              1647.0715              1675.0218
 Red. masses --      3.0997                 5.1878                 6.5144
 Frc consts  --      4.3188                 8.2920                10.7688
 IR Inten    --    233.1549                10.8020                 7.9516

                     37                     38                     39
                      A                      A                      A
 Frequencies --   3189.8352              3212.6467              3226.5517
 Red. masses --      1.0909                 1.0879                 1.0951
 Frc consts  --      6.5398                 6.6154                 6.7171
 IR Inten    --      8.1404                 3.7360                 5.6816

                     40                     41                     42
                      A                      A                      A
 Frequencies --   3598.1271              3706.3975              3755.7191
 Red. masses --      1.0642                 1.0680                 1.0660
 Frc consts  --      8.1179                 8.6444                 8.8592
 IR Inten    --     77.7582                37.3770                42.9324

 - Thermochemistry -
 -------------------
 Temperature   298.150 Kelvin.  Pressure   1.00000 Atm.
 Atom     1 has atomic number  6 and mass  12.00000

 Molecular mass:   158.00377 amu.
 Principal axes and moments of inertia in atomic units:
                           1         2         3
     Eigenvalues --  1005.759062122.446582917.27890
           X            0.99997  -0.00576  -0.00469
           Y            0.00579   0.99997   0.00582
           Z            0.00466  -0.00585   0.99997
 This molecule is an asymmetric top.
 Rotational symmetry number  1.
 Warning -- assumption of classical behavior for rotation
           may cause significant error
 Rotational temperatures (Kelvin)      0.08612     0.04081     0.02969
 Rotational constants (GHZ):           1.79441     0.85031     0.61864
 Zero-point vibrational energy     299496.2 (Joules/Mol)
                                   71.58130 (Kcal/Mol)
 Warning -- explicit consideration of  15 degrees of freedom as
           vibrations may cause significant error
 Vibrational temperatures:     80.16   154.62   221.89   335.12   381.21
          (Kelvin)            473.28   484.43   542.20   548.50   610.76
                              684.62   698.46   761.54   817.73   843.28
                             1012.88  1025.49  1038.96  1142.55  1210.52
                             1222.16  1338.88  1379.25  1538.15  1654.43
                             1736.40  1741.85  1764.63  1837.08  1898.30
                             1946.27  2005.40  2151.68  2212.54  2369.77
                             2409.98  4589.46  4622.28  4642.29  5176.90
                             5332.68  5403.64

 Zero-point correction=                           0.114072 (Hartree/Particle)
 Thermal correction to Energy=                    0.123572
 Thermal correction to Enthalpy=                  0.124517
 Thermal correction to Gibbs Free Energy=         0.079003
 Sum of electronic and zero-point Energies=           -855.978746
 Sum of electronic and thermal Energies=              -855.969245
 Sum of electronic and thermal Enthalpies=            -855.968301
 Sum of electronic and thermal Free Energies=         -856.013815

                     E (Thermal)             CV                S
                      KCal/Mol        Cal/Mol-Kelvin    Cal/Mol-Kelvin
 Total                   77.543             35.913             95.793
 Electronic               0.000              0.000              0.000
 Translational            0.889              2.981             41.082
 Rotational               0.889              2.981             30.211
 Vibrational             75.765             29.951             24.500
 Vibration     1          0.596              1.975              4.604
 Vibration     2          0.606              1.943              3.314
 Vibration     3          0.620              1.898              2.620
 Vibration     4          0.654              1.791              1.856
 Vibration     5          0.671              1.737              1.629
 Vibration     6          0.712              1.618              1.265
 Vibration     7          0.717              1.602              1.228
 Vibration     8          0.747              1.519              1.052
 Vibration     9          0.751              1.510              1.034
 Vibration    10          0.786              1.417              0.877
 Vibration    11          0.832              1.304              0.721
 Vibration    12          0.842              1.282              0.696
 Vibration    13          0.884              1.185              0.589
 Vibration    14          0.924              1.100              0.507
 Vibration    15          0.943              1.061              0.474

 Optimization completed.
    -- Stationary point found.
 Normal termination of Gaussian 16 at Tue Dec  8 13:34:22 2020.

 ----------------------------------------------------------------------
 # B3LYP/6-311++G(d,p) empiricaldispersion=gd3bj scf=xqc pop=npa geom=c
 heck
 ----------------------------------------------------------------------

 -------------------------------------
 CID_22890036_JID_889_Energie_neutraal
 -------------------------------------
 Structure from the checkpoint file:  "JID_889.chk"
 Charge =  0 Multiplicity = 1

 SCF Done:  E(RB3LYP) =  -856.273930395     A.U. after   16 cycles
 Normal termination of Gaussian 16 at Tue Dec  8 13:37:31 2020.

 ----------------------------------------------------------------------
 # B3LYP/6-311++G(d,p) empiricaldispersion=gd3bj scf=xqc pop=npa geom=c
 heck
 ----------------------------------------------------------------------

 -----------------------------------
 CID_22890036_JID_889_Energie_kation
 -----------------------------------
 Structure from the checkpoint file:  "JID_889.chk"
 Charge =  1 Multiplicity = 2

 SCF Done:  E(UB3LYP) =  -855.973655340     A.U. after   25 cycles
 Normal termination of Gaussian 16 at Tue Dec  8 13:42:27 2020.
 Gaussian 16:  ES64L-G16RevA.03 25-Dec-2016

 ----------------------------------------------------------------------
 # B3LYP/6-311++G(d,p) empiricaldispersion=gd3bj scf=xqc pop=npa geom=c
 heck
 ----------------------------------------------------------------------

 ----------------------------------
 CID_22890036_JID_889_Energie_anion
 ----------------------------------
 Structure from the checkpoint file:  "JID_889.chk"
 Charge = -1 Multiplicity = 2

                         Standard orientation:
 ---------------------------------------------------------------------
 Center     Atomic      Atomic             Coordinates (Angstroms)
 Number     Number       Type             X           Y           Z
 ---------------------------------------------------------------------
      1          6           0        2.240075    0.778750    0.211481
      2          6           0        1.208650    1.704887    0.193965
      3          6           0       -0.112195    1.294308   -0.031441
      4          6           0       -0.376971   -0.071475   -0.252168
      5          6           0        0.677945   -1.001278   -0.242188
      6          6           0        1.981310   -0.583655   -0.004930
      7          8           0        3.052737   -1.436929    0.024584
      8         16           0       -2.043496   -0.607259   -0.530083
      9          8           0       -2.491624   -1.275489    0.974022
     10          8           0       -1.081933    2.245507   -0.029282
     11          1           0        3.264045    1.091889    0.387521
     12          1           0        1.403549    2.759351    0.358172
     13          1           0        0.451385   -2.049818   -0.417449
     14          1           0        2.738641   -2.340908   -0.130633
     15          1           0       -2.785849   -0.537476    1.535856
     16          1           0       -1.922157    1.799169   -0.255041
 ---------------------------------------------------------------------

 SCF Done:  E(UB3LYP) =  -856.284650934     A.U. after   28 cycles

 The electronic state is 2-A.
 Alpha  occ. eigenvalues --  -88.71327 -19.03003 -19.01005 -18.97139 -10.09044
 Alpha  occ. eigenvalues --  -10.08670 -10.04391 -10.02844 -10.02732 -10.02474
 Alpha  occ. eigenvalues --   -7.79494  -5.76081  -5.75513  -5.74824  -0.93765
 Alpha  occ. eigenvalues --   -0.92276  -0.86107  -0.70939  -0.62798  -0.59665
 Alpha  occ. eigenvalues --   -0.54545  -0.48667  -0.46544  -0.40450  -0.40017
 Alpha  occ. eigenvalues --   -0.36301  -0.33269  -0.29907  -0.28759  -0.28074
 Alpha  occ. eigenvalues --   -0.27542  -0.26514  -0.26151  -0.23529  -0.22915
 Alpha  occ. eigenvalues --   -0.20893  -0.17712  -0.13531  -0.12329  -0.08443
 Alpha  occ. eigenvalues --   -0.07382   0.04829
 Alpha virt. eigenvalues --    0.08687   0.09906   0.10337   0.11947   0.12943
 Alpha virt. eigenvalues --    0.13335   0.14527   0.15685   0.16120   0.17181
 Alpha virt. eigenvalues --    0.17934   0.18245   0.19121   0.19893   0.20240

  Beta  occ. eigenvalues --  -88.71220 -19.03023 -19.00998 -18.96653 -10.09145
  Beta  occ. eigenvalues --  -10.08565 -10.04351 -10.02826 -10.02495 -10.02187
  Beta  occ. eigenvalues --   -7.79386  -5.75800  -5.75427  -5.74750  -0.93808
  Beta  occ. eigenvalues --   -0.92223  -0.84925  -0.70645  -0.62290  -0.59407
  Beta  occ. eigenvalues --   -0.53849  -0.48558  -0.46266  -0.40332  -0.39815
  Beta  occ. eigenvalues --   -0.36099  -0.32731  -0.29734  -0.28470  -0.28013
  Beta  occ. eigenvalues --   -0.27366  -0.26256  -0.25874  -0.23262  -0.21993
  Beta  occ. eigenvalues --   -0.20680  -0.17139  -0.13084  -0.11036  -0.07925
  Beta  occ. eigenvalues --   -0.06693
  Beta virt. eigenvalues --    0.08606   0.09644   0.10085   0.11047   0.12348
  Beta virt. eigenvalues --    0.13103   0.13290   0.14894   0.15673   0.16427
  Beta virt. eigenvalues --    0.17696   0.17939   0.18381   0.19364   0.19887

 Mulliken charges and spin densities:
               1          2
     1  C    0.004810   0.176175
     2  C   -0.227802  -0.031735
     3  C   -0.766215  -0.032155
     4  C    0.848730   0.252229
     5  C   -0.222799   0.276195
     6  C   -0.496540  -0.016902
     7  O   -0.275042  -0.001363
     8  S   -0.140937   0.067347
     9  O   -0.110357  -0.133637
    10  O   -0.225261   0.020136
    11  H    0.135107  -0.019758
    12  H    0.128030   0.005730
    13  H    0.058993   0.011893
    14  H    0.242915   0.006958
    15  H   -0.133507   0.378281
    16  H    0.179876   0.040605
 Sum of Mulliken charges =  -1.00000   1.00000

 Dipole moment (field-independent basis, Debye):
    X=              3.5784    Y=              0.3719    Z=             -1.2440  Tot=              3.8067
 Quadrupole moment (field-independent basis, Debye-Ang):
   XX=            -99.8755   YY=            -78.5075   ZZ=            -78.8627
   XY=             -8.8250   XZ=              3.2515   YZ=              3.1092

 Summary of Natural Population Analysis:

                                       Natural Population
                Natural  -----------------------------------------------
    Atom  No    Charge         Core      Valence    Rydberg      Total
 -----------------------------------------------------------------------
      C    1   -0.06229      0.99954     2.05384    0.00892     3.06229
      C    2   -0.12725      0.99954     2.11985    0.00786     3.12725
      C    3    0.16824      0.99931     1.81740    0.01504     2.83176
      C    4   -0.12972      0.99940     2.11754    0.01278     3.12972
      C    5   -0.08087      0.99947     2.07125    0.01015     3.08087
      C    6    0.11617      0.99937     1.87261    0.01185     2.88383
      O    7   -0.35369      0.99988     3.34736    0.00645     4.35369
      S    8    0.24611      4.99949     2.72390    0.03050     7.75389
      O    9   -0.39346      0.99992     3.38388    0.00966     4.39346
      O   10   -0.35617      0.99987     3.34947    0.00683     4.35617
      H   11    0.09244      0.00000     0.40649    0.00107     0.40756
      H   12    0.09554      0.00000     0.40313    0.00133     0.40446
      H   13    0.09281      0.00000     0.40524    0.00195     0.40719
      H   14    0.22834      0.00000     0.26931    0.00235     0.27166
      H   15    0.22740      0.00000     0.26517    0.00744     0.27260
      H   16    0.23639      0.00000     0.25941    0.00420     0.26361
 =======================================================================
   * Total *   -0.00000     13.99578    26.86585    0.13836    41.00000

 Normal termination of Gaussian 16 at Tue Dec  8 13:47:06 2020.
