 Gaussian 16, Revision A.03,

 -----------------------------------------------------------
 # opt freq B3LYP/6-31G(d) empiricaldispersion=gd3bj scf=xqc
 -----------------------------------------------------------

 -------------------------------
 CID_111194900_JID_8462_neutraal
 -------------------------------
 Symbolic Z-matrix:
 Charge =  0 Multiplicity = 1

 SCF Done:  E(RB3LYP) =  -784.238912359     A.U. after   14 cycles
 SCF Done:  E(RB3LYP) =  -784.245584915     A.U. after   13 cycles
 SCF Done:  E(RB3LYP) =  -784.246585094     A.U. after   14 cycles
 SCF Done:  E(RB3LYP) =  -784.245548675     A.U. after   12 cycles
 SCF Done:  E(RB3LYP) =  -784.247254415     A.U. after   13 cycles
 SCF Done:  E(RB3LYP) =  -784.248440850     A.U. after   12 cycles
 SCF Done:  E(RB3LYP) =  -784.249169026     A.U. after   12 cycles
 SCF Done:  E(RB3LYP) =  -784.249626272     A.U. after   13 cycles
 SCF Done:  E(RB3LYP) =  -784.250085393     A.U. after   11 cycles
 SCF Done:  E(RB3LYP) =  -784.250186635     A.U. after   10 cycles
 SCF Done:  E(RB3LYP) =  -784.250262056     A.U. after    8 cycles
 SCF Done:  E(RB3LYP) =  -784.250262342     A.U. after    7 cycles
 SCF Done:  E(RB3LYP) =  -784.250262479     A.U. after    7 cycles
 SCF Done:  E(RB3LYP) =  -784.250262547     A.U. after    7 cycles
 SCF Done:  E(RB3LYP) =  -784.250262565     A.U. after    6 cycles
 Optimization completed.
    -- Stationary point found.
 Normal termination of Gaussian 16 at Mon Dec 14 17:00:17 2020.

 --------------------------------------------------------------------
 #N Geom=AllCheck Guess=TCheck SCRF=Check GenChk RB3LYP/6-31G(d) Freq
 --------------------------------------------------------------------

 Structure from the checkpoint file:  "JID_8462.chk"
 -------------------------------
 CID_111194900_JID_8462_neutraal
 -------------------------------
 Charge =  0 Multiplicity = 1

 SCF Done:  E(RB3LYP) =  -784.250262565     A.U. after    1 cycles

  Exact polarizability: 206.410  -6.180 147.797  -4.322  -2.893 141.951
 Approx polarizability: 278.415  -9.427 205.735  -6.453  -3.205 230.271

                      1                      2                      3
                      A                      A                      A
 Frequencies --     28.1127                39.3518                56.6115
 Red. masses --      3.5635                 4.0457                 3.5026
 Frc consts  --      0.0017                 0.0037                 0.0066
 IR Inten    --      0.3222                 1.0784                 0.6907

                      4                      5                      6
                      A                      A                      A
 Frequencies --     62.0073                69.1561                72.4738
 Red. masses --      3.7502                 4.4857                 3.2936
 Frc consts  --      0.0085                 0.0126                 0.0102
 IR Inten    --      0.3065                 1.3757                 0.0417

                      7                      8                      9
                      A                      A                      A
 Frequencies --     77.9531                97.1914               116.9886
 Red. masses --      2.7682                 2.4022                 1.2981
 Frc consts  --      0.0099                 0.0134                 0.0105
 IR Inten    --      1.1447                 0.4397                 0.8932

                     10                     11                     12
                      A                      A                      A
 Frequencies --    137.8226               169.7254               185.7632
 Red. masses --      2.7166                 3.6297                 3.0223
 Frc consts  --      0.0304                 0.0616                 0.0614
 IR Inten    --      0.2062                 1.4643                 1.5450

                     13                     14                     15
                      A                      A                      A
 Frequencies --    202.1028               206.2581               245.5280
 Red. masses --      2.1578                 1.7166                 1.6608
 Frc consts  --      0.0519                 0.0430                 0.0590
 IR Inten    --      2.5663                 0.9209                 0.2895

                     16                     17                     18
                      A                      A                      A
 Frequencies --    251.5818               274.7192               291.5650
 Red. masses --      1.6636                 2.3556                 3.2761
 Frc consts  --      0.0620                 0.1047                 0.1641
 IR Inten    --      1.3399                 0.9155                 2.3076

                     19                     20                     21
                      A                      A                      A
 Frequencies --    303.3811               318.2787               365.8756
 Red. masses --      2.0248                 2.2628                 2.9543
 Frc consts  --      0.1098                 0.1351                 0.2330
 IR Inten    --      0.8689                 1.3184                 1.8672

                     22                     23                     24
                      A                      A                      A
 Frequencies --    378.2057               411.4197               436.3869
 Red. masses --      2.8461                 2.4450                 2.0430
 Frc consts  --      0.2399                 0.2438                 0.2292
 IR Inten    --      2.7176                 1.3459                 0.6377

                     25                     26                     27
                      A                      A                      A
 Frequencies --    460.0545               480.4829               525.6446
 Red. masses --      2.0573                 1.5559                 2.5787
 Frc consts  --      0.2565                 0.2116                 0.4198
 IR Inten    --      4.3512                56.6846                 7.2025

                     28                     29                     30
                      A                      A                      A
 Frequencies --    549.3768               609.6339               646.9371
 Red. masses --      2.5039                 2.8659                 2.9454
 Frc consts  --      0.4452                 0.6275                 0.7263
 IR Inten    --      6.8377                24.0263                 4.3567

                     31                     32                     33
                      A                      A                      A
 Frequencies --    685.2843               691.7850               714.8559
 Red. masses --      3.1804                 1.9808                 2.7136
 Frc consts  --      0.8800                 0.5585                 0.8170
 IR Inten    --     22.8628                56.9483                37.9829

                     34                     35                     36
                      A                      A                      A
 Frequencies --    734.3820               752.3961               775.4304
 Red. masses --      1.2993                 1.7994                 1.7403
 Frc consts  --      0.4128                 0.6002                 0.6165
 IR Inten    --     17.2810                13.8284                 4.6619

                     37                     38                     39
                      A                      A                      A
 Frequencies --    780.0148               815.0382               840.7888
 Red. masses --      4.0595                 1.1627                 2.1642
 Frc consts  --      1.4552                 0.4551                 0.9014
 IR Inten    --     51.1306                58.4122                 3.8816

                     40                     41                     42
                      A                      A                      A
 Frequencies --    865.1940               883.7565               888.4611
 Red. masses --      2.2792                 1.3371                 1.6722
 Frc consts  --      1.0052                 0.6153                 0.7777
 IR Inten    --     13.0590                 2.1903                 4.5392

                     43                     44                     45
                      A                      A                      A
 Frequencies --    901.8405               946.1797               949.6551
 Red. masses --      1.8093                 4.8886                 1.6863
 Frc consts  --      0.8670                 2.5786                 0.8960
 IR Inten    --      3.3816                28.1551                 1.8411

                     46                     47                     48
                      A                      A                      A
 Frequencies --    962.0646               991.3595              1024.4704
 Red. masses --      1.5165                 1.7342                 3.7495
 Frc consts  --      0.8270                 1.0042                 2.3186
 IR Inten    --      1.2484                 8.1259                15.3251

                     49                     50                     51
                      A                      A                      A
 Frequencies --   1038.5389              1046.5420              1053.9669
 Red. masses --      1.9880                 2.5307                 2.2183
 Frc consts  --      1.2633                 1.6330                 1.4518
 IR Inten    --      7.2077                 3.8291                13.5435

                     52                     53                     54
                      A                      A                      A
 Frequencies --   1061.2320              1067.5977              1080.6138
 Red. masses --      1.4915                 1.6705                 1.5687
 Frc consts  --      0.9897                 1.1218                 1.0793
 IR Inten    --      5.1322                 7.6205                 3.8957

                     55                     56                     57
                      A                      A                      A
 Frequencies --   1116.2813              1128.1018              1131.2857
 Red. masses --      2.3413                 1.3375                 3.7592
 Frc consts  --      1.7189                 1.0029                 2.8346
 IR Inten    --      3.4118                 3.7409                33.5349

                     58                     59                     60
                      A                      A                      A
 Frequencies --   1152.0900              1158.7977              1165.8690
 Red. masses --      2.2464                 2.0677                 2.2358
 Frc consts  --      1.7567                 1.6359                 1.7905
 IR Inten    --     13.6597                16.9458                18.3254

                     61                     62                     63
                      A                      A                      A
 Frequencies --   1183.4723              1192.2317              1231.2115
 Red. masses --      1.9836                 1.8423                 2.2761
 Frc consts  --      1.6369                 1.5429                 2.0329
 IR Inten    --     18.4912                41.8807                10.4497

                     64                     65                     66
                      A                      A                      A
 Frequencies --   1241.2472              1252.7131              1281.4108
 Red. masses --      1.3394                 1.4332                 1.3763
 Frc consts  --      1.2158                 1.3252                 1.3315
 IR Inten    --      8.0591                21.2764                31.1933

                     67                     68                     69
                      A                      A                      A
 Frequencies --   1293.3688              1307.2285              1337.7009
 Red. masses --      1.3874                 1.2435                 1.1875
 Frc consts  --      1.3674                 1.2520                 1.2520
 IR Inten    --     25.6699                 3.0773                 1.3166

                     70                     71                     72
                      A                      A                      A
 Frequencies --   1362.7599              1366.2721              1381.7913
 Red. masses --      1.1671                 3.6254                 1.5115
 Frc consts  --      1.2770                 3.9873                 1.7003
 IR Inten    --      1.4767                28.6868                14.1742

                     73                     74                     75
                      A                      A                      A
 Frequencies --   1397.0856              1400.1845              1403.1566
 Red. masses --      1.3663                 1.9458                 1.3269
 Frc consts  --      1.5713                 2.2476                 1.5392
 IR Inten    --     11.2562               112.7754                 1.2752

                     76                     77                     78
                      A                      A                      A
 Frequencies --   1417.3788              1421.2488              1433.7090
 Red. masses --      1.4219                 1.4302                 2.2693
 Frc consts  --      1.6830                 1.7021                 2.7483
 IR Inten    --     11.2635                 8.8731                69.5997

                     79                     80                     81
                      A                      A                      A
 Frequencies --   1438.2200              1444.1274              1459.3651
 Red. masses --      1.2986                 1.2788                 2.6730
 Frc consts  --      1.5826                 1.5714                 3.3541
 IR Inten    --     14.2986                 4.6146                19.7010

                     82                     83                     84
                      A                      A                      A
 Frequencies --   1464.6796              1478.5598              1498.4895
 Red. masses --      1.3028                 1.4139                 1.1581
 Frc consts  --      1.6467                 1.8212                 1.5321
 IR Inten    --     34.0337                39.3902                13.0266

                     85                     86                     87
                      A                      A                      A
 Frequencies --   1508.6378              1509.8966              1518.1051
 Red. masses --      1.7567                 1.5570                 1.0673
 Frc consts  --      2.3557                 2.0913                 1.4492
 IR Inten    --      4.2109                 5.5218                 0.8668

                     88                     89                     90
                      A                      A                      A
 Frequencies --   1520.0268              1522.7115              1526.6005
 Red. masses --      1.1325                 1.0700                 1.0662
 Frc consts  --      1.5417                 1.4617                 1.4640
 IR Inten    --      3.0948                 5.7577                 7.5765

                     91                     92                     93
                      A                      A                      A
 Frequencies --   1530.3332              1533.5140              1538.1101
 Red. masses --      1.0718                 1.0697                 1.0729
 Frc consts  --      1.4789                 1.4821                 1.4956
 IR Inten    --      1.5635                 6.4111                 1.2818

                     94                     95                     96
                      A                      A                      A
 Frequencies --   1538.6577              1540.5512              1545.2352
 Red. masses --      1.0750                 1.0783                 1.0897
 Frc consts  --      1.4995                 1.5078                 1.5330
 IR Inten    --     13.1101                 0.9547                 0.0064

                     97                     98                     99
                      A                      A                      A
 Frequencies --   1622.7715              1748.9917              2964.7577
 Red. masses --      3.7269                 5.2416                 1.0473
 Frc consts  --      5.7825                 9.4469                 5.4237
 IR Inten    --      7.9153               537.1339                74.9930

                    100                    101                    102
                      A                      A                      A
 Frequencies --   3003.3404              3015.7490              3018.0666
 Red. masses --      1.0711                 1.0958                 1.0679
 Frc consts  --      5.6926                 5.8717                 5.7311
 IR Inten    --     48.2833                65.3106                37.6370

                    103                    104                    105
                      A                      A                      A
 Frequencies --   3032.0332              3041.5643              3043.5428
 Red. masses --      1.0651                 1.0411                 1.0388
 Frc consts  --      5.7691                 5.6744                 5.6692
 IR Inten    --     19.7945                 9.3270                21.0761

                    106                    107                    108
                      A                      A                      A
 Frequencies --   3048.6040              3051.5114              3064.8491
 Red. masses --      1.0580                 1.0637                 1.0997
 Frc consts  --      5.7934                 5.8355                 6.0860
 IR Inten    --     54.4690                10.1443                 4.0156

                    109                    110                    111
                      A                      A                      A
 Frequencies --   3077.3664              3082.5817              3084.8636
 Red. masses --      1.0917                 1.0907                 1.0988
 Frc consts  --      6.0913                 6.1066                 6.1607
 IR Inten    --     46.0494                 7.9930                 7.7357

                    112                    113                    114
                      A                      A                      A
 Frequencies --   3086.8176              3102.5012              3108.5204
 Red. masses --      1.0999                 1.0919                 1.1019
 Frc consts  --      6.1749                 6.1923                 6.2733
 IR Inten    --     93.2810                51.8865                45.1582

                    115                    116                    117
                      A                      A                      A
 Frequencies --   3109.8727              3112.9712              3128.0151
 Red. masses --      1.0975                 1.1015                 1.1025
 Frc consts  --      6.2537                 6.2890                 6.3557
 IR Inten    --     18.7393                55.9979                26.0247

                    118                    119                    120
                      A                      A                      A
 Frequencies --   3155.0622              3257.7496              3294.0853
 Red. masses --      1.0852                 1.0944                 1.0990
 Frc consts  --      6.3645                 6.8430                 7.0259
 IR Inten    --      8.3645                 9.6054                 0.3111

                    121                    122                    123
                      A                      A                      A
 Frequencies --   3571.5622              3580.1378              3661.0164
 Red. masses --      1.0741                 1.0749                 1.0809
 Frc consts  --      8.0725                 8.1172                 8.5356
 IR Inten    --      3.9637                22.4463                54.5936

 - Thermochemistry -
 -------------------
 Temperature   298.150 Kelvin.  Pressure   1.00000 Atm.
 Atom     1 has atomic number  6 and mass  12.00000

 Molecular mass:   251.21100 amu.
 Principal axes and moments of inertia in atomic units:
                           1         2         3
     Eigenvalues --  3669.752415760.157437978.20362
           X            0.99955   0.02871   0.00869
           Y           -0.02869   0.99959  -0.00201
           Z           -0.00874   0.00176   0.99996
 This molecule is an asymmetric top.
 Rotational symmetry number  1.
 Warning -- assumption of classical behavior for rotation
           may cause significant error
 Rotational temperatures (Kelvin)      0.02360     0.01504     0.01086
 Rotational constants (GHZ):           0.49179     0.31331     0.22621
 Zero-point vibrational energy    1014214.1 (Joules/Mol)
                                  242.40299 (Kcal/Mol)
 Warning -- explicit consideration of  29 degrees of freedom as
           vibrations may cause significant error
 Vibrational temperatures:     40.45    56.62    81.45    89.21    99.50
          (Kelvin)            104.27   112.16   139.84   168.32   198.30
                              244.20   267.27   290.78   296.76   353.26
                              361.97   395.26   419.50   436.50   457.93
                              526.41   544.15   591.94   627.86   661.92
                              691.31   756.29   790.43   877.13   930.80
                              985.97   995.32  1028.52  1056.61  1082.53
                             1115.67  1122.27  1172.66  1209.71  1244.82
                             1271.53  1278.30  1297.55  1361.34  1366.34
                             1384.20  1426.35  1473.98  1494.23  1505.74
                             1516.42  1526.88  1536.03  1554.76  1606.08
                             1623.09  1627.67  1657.60  1667.25  1677.43
                             1702.75  1715.36  1771.44  1785.88  1802.37
                             1843.66  1860.87  1880.81  1924.65  1960.71
                             1965.76  1988.09  2010.09  2014.55  2018.83
                             2039.29  2044.86  2062.79  2069.28  2077.78
                             2099.70  2107.35  2127.32  2155.99  2170.59
                             2172.40  2184.21  2186.98  2190.84  2196.44
                             2201.81  2206.38  2213.00  2213.79  2216.51
                             2223.25  2334.81  2516.41  4265.63  4321.14
                             4338.99  4342.32  4362.42  4376.13  4378.98
                             4386.26  4390.44  4409.63  4427.64  4435.15
                             4438.43  4441.24  4463.81  4472.47  4474.41
                             4478.87  4500.52  4539.43  4687.18  4739.45
                             5138.68  5151.02  5267.39

 Zero-point correction=                           0.386294 (Hartree/Particle)
 Thermal correction to Energy=                    0.406236
 Thermal correction to Enthalpy=                  0.407180
 Thermal correction to Gibbs Free Energy=         0.336789
 Sum of electronic and zero-point Energies=           -783.863969
 Sum of electronic and thermal Energies=              -783.844027
 Sum of electronic and thermal Enthalpies=            -783.843083
 Sum of electronic and thermal Free Energies=         -783.913474

                     E (Thermal)             CV                S
                      KCal/Mol        Cal/Mol-Kelvin    Cal/Mol-Kelvin
 Total                  254.917             74.049            148.150
 Electronic               0.000              0.000              0.000
 Translational            0.889              2.981             42.464
 Rotational               0.889              2.981             33.489
 Vibrational            253.139             68.087             72.198
 Vibration     1          0.593              1.984              5.958
 Vibration     2          0.594              1.981              5.291
 Vibration     3          0.596              1.975              4.572
 Vibration     4          0.597              1.972              4.392
 Vibration     5          0.598              1.969              4.177
 Vibration     6          0.599              1.967              4.085
 Vibration     7          0.599              1.964              3.942
 Vibration     8          0.603              1.951              3.510
 Vibration     9          0.608              1.935              3.150
 Vibration    10          0.614              1.916              2.834
 Vibration    11          0.625              1.880              2.439
 Vibration    12          0.632              1.859              2.270
 Vibration    13          0.639              1.837              2.114
 Vibration    14          0.641              1.831              2.077
 Vibration    15          0.660              1.770              1.762
 Vibration    16          0.664              1.760              1.719
 Vibration    17          0.677              1.720              1.566
 Vibration    18          0.687              1.689              1.465
 Vibration    19          0.695              1.667              1.398
 Vibration    20          0.705              1.639              1.319
 Vibration    21          0.739              1.542              1.097
 Vibration    22          0.748              1.517              1.046
 Vibration    23          0.775              1.445              0.922
 Vibration    24          0.797              1.391              0.838
 Vibration    25          0.818              1.339              0.766
 Vibration    26          0.837              1.293              0.709
 Vibration    27          0.881              1.193              0.597
 Vibration    28          0.905              1.141              0.545
 Vibration    29          0.969              1.011              0.433

 Optimization completed.
    -- Stationary point found.
 Normal termination of Gaussian 16 at Mon Dec 14 17:25:54 2020.

 ----------------------------------------------------------------------
 # B3LYP/6-311++G(d,p) empiricaldispersion=gd3bj scf=xqc pop=npa geom=c
 heck
 ----------------------------------------------------------------------

 ---------------------------------------
 CID_111194900_JID_8462_Energie_neutraal
 ---------------------------------------
 Structure from the checkpoint file:  "JID_8462.chk"
 Charge =  0 Multiplicity = 1

 SCF Done:  E(RB3LYP) =  -784.474259827     A.U. after   14 cycles
 Normal termination of Gaussian 16 at Mon Dec 14 17:37:44 2020.

 ----------------------------------------------------------------------
 # B3LYP/6-311++G(d,p) empiricaldispersion=gd3bj scf=xqc pop=npa geom=c
 heck
 ----------------------------------------------------------------------

 -------------------------------------
 CID_111194900_JID_8462_Energie_kation
 -------------------------------------
 Structure from the checkpoint file:  "JID_8462.chk"
 Charge =  1 Multiplicity = 2

 SCF Done:  E(UB3LYP) =  -784.180211179     A.U. after   29 cycles
 Normal termination of Gaussian 16 at Mon Dec 14 18:11:51 2020.
 Gaussian 16:  ES64L-G16RevA.03 25-Dec-2016

 ----------------------------------------------------------------------
 # B3LYP/6-311++G(d,p) empiricaldispersion=gd3bj scf=xqc pop=npa geom=c
 heck
 ----------------------------------------------------------------------

 ------------------------------------
 CID_111194900_JID_8462_Energie_anion
 ------------------------------------
 Structure from the checkpoint file:  "JID_8462.chk"
 Charge = -1 Multiplicity = 2

                         Standard orientation:
 ---------------------------------------------------------------------
 Center     Atomic      Atomic             Coordinates (Angstroms)
 Number     Number       Type             X           Y           Z
 ---------------------------------------------------------------------
      1          6           0       -3.239104   -2.116008   -1.559007
      2          6           0       -2.598429   -1.154324   -0.554566
      3          6           0       -2.084879   -1.837928    0.720698
      4          6           0       -0.979879   -2.886137    0.501385
      5          6           0        0.257411   -2.366801   -0.247002
      6          6           0        0.919251   -1.141274    0.392441
      7          6           0        1.469297   -1.409949    1.796899
      8          7           0        1.973544   -0.650179   -0.518295
      9          6           0        2.553561    0.602136   -0.323920
     10          7           0        3.801364    0.900418   -0.348843
     11          6           0        4.774976   -0.173015   -0.387879
     12          7           0        1.633073    1.630220   -0.078419
     13          6           0        0.468478    1.791415   -0.945438
     14          6           0       -0.788580    2.014438   -0.153222
     15          6           0       -1.042069    1.945834    1.205584
     16          6           0       -2.429028    2.197703    1.330230
     17          7           0       -3.007920    2.410701    0.149215
     18          7           0       -1.985859    2.300212   -0.734890
     19          1           0       -2.517510   -2.847426   -1.941111
     20          1           0       -3.646967   -1.575366   -2.420630
     21          1           0       -4.062500   -2.675341   -1.097718
     22          1           0       -1.774223   -0.616670   -1.040373
     23          1           0       -3.321480   -0.382092   -0.267908
     24          1           0       -1.728975   -1.062384    1.410202
     25          1           0       -2.929088   -2.327036    1.226241
     26          1           0       -0.678844   -3.290702    1.476029
     27          1           0       -1.385984   -3.736782   -0.059943
     28          1           0        0.997675   -3.177757   -0.321141
     29          1           0       -0.012697   -2.103255   -1.276618
     30          1           0        0.175661   -0.348483    0.468108
     31          1           0        2.205823   -2.223473    1.779042
     32          1           0        1.958282   -0.512311    2.189056
     33          1           0        0.670577   -1.691884    2.491079
     34          1           0        2.667178   -1.362527   -0.715912
     35          1           0        4.524004   -1.030232    0.261759
     36          1           0        4.917716   -0.563608   -1.408531
     37          1           0        5.745095    0.211823   -0.057520
     38          1           0        2.145856    2.489369    0.083152
     39          1           0        0.621166    2.621324   -1.652737
     40          1           0        0.373013    0.884194   -1.552481
     41          1           0       -0.314500    1.747086    1.977202
     42          1           0       -3.027998    2.236039    2.230553
     43          1           0       -2.186734    2.401355   -1.718396
 ---------------------------------------------------------------------

 SCF Done:  E(UB3LYP) =  -784.464756176     A.U. after   33 cycles
 SCF Done:  E(UB3LYP) =  -784.464756177     a.u. after    1 cycles

 The electronic state is 2-A.
 Alpha  occ. eigenvalues --  -14.29077 -14.24002 -14.23286 -14.23257 -14.18402
 Alpha  occ. eigenvalues --  -10.17041 -10.12957 -10.12467 -10.11636 -10.10107
 Alpha  occ. eigenvalues --  -10.09488 -10.07499 -10.07434 -10.07400 -10.07150
 Alpha  occ. eigenvalues --  -10.07052 -10.06653 -10.06379  -0.95458  -0.89419
 Alpha  occ. eigenvalues --   -0.81283  -0.78634  -0.73398  -0.71789  -0.69703
 Alpha  occ. eigenvalues --   -0.67711  -0.63626  -0.62586  -0.59256  -0.57952
 Alpha  occ. eigenvalues --   -0.54863  -0.51790  -0.50983  -0.50574  -0.50088
 Alpha  occ. eigenvalues --   -0.45547  -0.43469  -0.41362  -0.40638  -0.39247
 Alpha  occ. eigenvalues --   -0.38354  -0.36788  -0.36043  -0.35494  -0.35186
 Alpha  occ. eigenvalues --   -0.34410  -0.33845  -0.33690  -0.32666  -0.31813
 Alpha  occ. eigenvalues --   -0.31576  -0.30809  -0.30675  -0.30204  -0.29388
 Alpha  occ. eigenvalues --   -0.27998  -0.26494  -0.26134  -0.25517  -0.24772
 Alpha  occ. eigenvalues --   -0.23091  -0.22383  -0.22101  -0.20742  -0.17334
 Alpha  occ. eigenvalues --   -0.17109  -0.16081  -0.15216  -0.13451   0.03887
 Alpha virt. eigenvalues --    0.05616   0.06506   0.06838   0.07893   0.08085
 Alpha virt. eigenvalues --    0.08475   0.08794   0.08979   0.09681   0.09942
 Alpha virt. eigenvalues --    0.10582   0.10925   0.11008   0.11647   0.11973

  Beta  occ. eigenvalues --  -14.29032 -14.23998 -14.23271 -14.23252 -14.18393
  Beta  occ. eigenvalues --  -10.17041 -10.12928 -10.12468 -10.11635 -10.10106
  Beta  occ. eigenvalues --  -10.09465 -10.07494 -10.07421 -10.07380 -10.07127
  Beta  occ. eigenvalues --  -10.07048 -10.06644 -10.06356  -0.95426  -0.89404
  Beta  occ. eigenvalues --   -0.81263  -0.78618  -0.73358  -0.71765  -0.69670
  Beta  occ. eigenvalues --   -0.67687  -0.63594  -0.62550  -0.59217  -0.57910
  Beta  occ. eigenvalues --   -0.54826  -0.51718  -0.50958  -0.50545  -0.50050
  Beta  occ. eigenvalues --   -0.45509  -0.43432  -0.41334  -0.40601  -0.39219
  Beta  occ. eigenvalues --   -0.38330  -0.36761  -0.36013  -0.35468  -0.35155
  Beta  occ. eigenvalues --   -0.34386  -0.33825  -0.33666  -0.32638  -0.31786
  Beta  occ. eigenvalues --   -0.31548  -0.30787  -0.30655  -0.30180  -0.29363
  Beta  occ. eigenvalues --   -0.27971  -0.26465  -0.26111  -0.25487  -0.24749
  Beta  occ. eigenvalues --   -0.23072  -0.22360  -0.22078  -0.20726  -0.17312
  Beta  occ. eigenvalues --   -0.17091  -0.16054  -0.15205  -0.13423
  Beta virt. eigenvalues --    0.05958   0.06790   0.07040   0.07157   0.08190
  Beta virt. eigenvalues --    0.08435   0.08738   0.08977   0.09214   0.09888
  Beta virt. eigenvalues --    0.10196   0.10959   0.11130   0.11182   0.11669

 Mulliken charges and spin densities:
               1          2
     1  C   -0.138759  -0.513161
     2  C   -0.379116   0.382065
     3  C   -0.061838  -0.104427
     4  C    0.051044  -0.658794
     5  C   -0.743359   0.676426
     6  C   -0.764412   0.190757
     7  C    0.559317  -1.112504
     8  N    0.004919   0.116658
     9  C   -0.180173  -0.091204
    10  N   -0.150001   0.065345
    11  C    0.254919  -0.697775
    12  N   -0.125467   0.013558
    13  C    0.923245  -1.575037
    14  C   -0.007229  -0.304043
    15  C   -0.680460   1.012559
    16  C   -0.305035  -0.157441
    17  N   -0.140426   0.004613
    18  N    0.072249  -0.004533
    19  H    0.018963   0.124674
    20  H   -0.214610   0.361613
    21  H   -0.008899   0.134626
    22  H    0.245883  -0.137363
    23  H    0.298868  -0.118853
    24  H   -0.016525   0.190620
    25  H    0.031067   0.143955
    26  H    0.022495   0.123704
    27  H    0.036756   0.141425
    28  H   -0.459603   0.613021
    29  H   -0.102173   0.307478
    30  H    1.691557  -1.502797
    31  H   -0.175174   0.340586
    32  H    0.144298   0.032042
    33  H    0.059204   0.077432
    34  H    0.175309   0.083440
    35  H   -0.110899   0.250444
    36  H   -0.129697   0.282207
    37  H    0.011023   0.120613
    38  H    0.341036  -0.018618
    39  H   -0.746978   0.963081
    40  H   -0.054221   0.310442
    41  H   -0.034169   0.232858
    42  H    0.034722   0.119104
    43  H   -0.247651   0.581203
 Sum of Mulliken charges =  -1.00000   1.00000

 Dipole moment (field-independent basis, Debye):
    X=             -0.2547    Y=             -0.2043    Z=              4.6787  Tot=              4.6901
 Quadrupole moment (field-independent basis, Debye-Ang):
   XX=           -187.9526   YY=           -171.8411   ZZ=           -155.5667
   XY=              9.7383   XZ=             -6.1976   YZ=              7.3809

 Summary of Natural Population Analysis:

                                       Natural Population
                Natural  -----------------------------------------------
    Atom  No    Charge         Core      Valence    Rydberg      Total
 -----------------------------------------------------------------------
      C    1   -0.28618      0.99967     2.28142    0.00509     3.28618
      C    2   -0.19734      0.99963     2.18963    0.00807     3.19734
      C    3   -0.19015      0.99962     2.18342    0.00710     3.19015
      C    4   -0.19043      0.99962     2.18271    0.00810     3.19043
      C    5   -0.19239      0.99960     2.18267    0.01012     3.19239
      C    6   -0.02599      0.99957     2.01380    0.01263     3.02599
      C    7   -0.29165      0.99964     2.28618    0.00583     3.29165
      N    8   -0.33600      0.99967     2.82589    0.01044     3.83600
      C    9    0.31392      0.99957     1.66817    0.01834     2.68608
      N   10   -0.29702      0.99964     2.78678    0.01060     3.79702
      C   11   -0.19511      0.99964     2.18677    0.00869     3.19511
      N   12   -0.32917      0.99968     2.81997    0.00953     3.82917
      C   13   -0.10676      0.99957     2.09582    0.01137     3.10676
      C   14    0.07501      0.99954     1.91196    0.01349     2.92499
      C   15   -0.16791      0.99949     2.16119    0.00723     3.16791
      C   16   -0.01512      0.99962     2.00154    0.01396     3.01512
      N   17   -0.15549      0.99974     2.64288    0.01287     3.65549
      N   18   -0.17059      0.99965     2.65628    0.01466     3.67059
      H   19    0.09552      0.00000     0.40355    0.00093     0.40448
      H   20    0.10116      0.00000     0.39799    0.00085     0.39884
      H   21    0.09271      0.00000     0.40645    0.00084     0.40729
      H   22    0.09277      0.00000     0.40454    0.00269     0.40723
      H   23    0.10196      0.00000     0.39616    0.00188     0.39804
      H   24    0.09809      0.00000     0.40046    0.00146     0.40191
      H   25    0.09389      0.00000     0.40518    0.00093     0.40611
      H   26    0.09610      0.00000     0.40286    0.00104     0.40390
      H   27    0.09799      0.00000     0.40102    0.00100     0.40201
      H   28    0.09846      0.00000     0.40010    0.00144     0.40154
      H   29    0.10280      0.00000     0.39550    0.00170     0.39720
      H   30    0.10454      0.00000     0.39069    0.00478     0.39546
      H   31    0.09870      0.00000     0.40000    0.00131     0.40130
      H   32    0.10278      0.00000     0.39630    0.00092     0.39722
      H   33    0.10107      0.00000     0.39811    0.00082     0.39893
      H   34    0.18960      0.00000     0.30674    0.00366     0.31040
      H   35    0.08336      0.00000     0.41515    0.00150     0.41664
      H   36    0.08952      0.00000     0.40925    0.00122     0.41048
      H   37    0.09357      0.00000     0.40525    0.00118     0.40643
      H   38    0.19219      0.00000     0.30507    0.00274     0.30781
      H   39    0.10279      0.00000     0.39565    0.00156     0.39721
      H   40    0.11367      0.00000     0.38378    0.00255     0.38633
      H   41    0.11439      0.00000     0.38458    0.00102     0.38561
      H   42    0.09616      0.00000     0.40303    0.00080     0.40384
      H   43    0.20457      0.00000     0.28728    0.00815     0.29543
 =======================================================================
   * Total *    0.00000     17.99316    50.77175    0.23509    69.00000

 Normal termination of Gaussian 16 at Mon Dec 14 18:49:26 2020.
