 Gaussian 16, Revision A.03,

 -----------------------------------------------------------
 # opt freq B3LYP/6-31G(d) empiricaldispersion=gd3bj scf=xqc
 -----------------------------------------------------------

 -------------------------------
 CID_106672617_JID_2218_neutraal
 -------------------------------
 Symbolic Z-matrix:
 Charge =  0 Multiplicity = 1

 SCF Done:  E(RB3LYP) =  -558.367455300     A.U. after   13 cycles
 SCF Done:  E(RB3LYP) =  -558.374133042     A.U. after   11 cycles
 SCF Done:  E(RB3LYP) =  -558.374667698     A.U. after   10 cycles
 SCF Done:  E(RB3LYP) =  -558.374841548     A.U. after   10 cycles
 SCF Done:  E(RB3LYP) =  -558.374888756     A.U. after   10 cycles
 SCF Done:  E(RB3LYP) =  -558.374932965     A.U. after   10 cycles
 SCF Done:  E(RB3LYP) =  -558.374956434     A.U. after   10 cycles
 SCF Done:  E(RB3LYP) =  -558.374974245     A.U. after   10 cycles
 SCF Done:  E(RB3LYP) =  -558.375018355     A.U. after   10 cycles
 SCF Done:  E(RB3LYP) =  -558.375052625     A.U. after   11 cycles
 SCF Done:  E(RB3LYP) =  -558.375129069     A.U. after    9 cycles
 SCF Done:  E(RB3LYP) =  -558.375145320     A.U. after   10 cycles
 SCF Done:  E(RB3LYP) =  -558.375145392     A.U. after    9 cycles
 SCF Done:  E(RB3LYP) =  -558.375145643     A.U. after    7 cycles
 SCF Done:  E(RB3LYP) =  -558.375145992     A.U. after    8 cycles
 SCF Done:  E(RB3LYP) =  -558.375145934     A.U. after    7 cycles
 Optimization completed.
    -- Stationary point found.
 Normal termination of Gaussian 16 at Wed Dec  9 17:02:01 2020.

 --------------------------------------------------------------------
 #N Geom=AllCheck Guess=TCheck SCRF=Check GenChk RB3LYP/6-31G(d) Freq
 --------------------------------------------------------------------

 Structure from the checkpoint file:  "JID_2218.chk"
 -------------------------------
 CID_106672617_JID_2218_neutraal
 -------------------------------
 Charge =  0 Multiplicity = 1

 SCF Done:  E(RB3LYP) =  -558.375145934     A.U. after    1 cycles

  Exact polarizability: 119.075  -0.130  98.539  -0.064  -0.164  92.147
 Approx polarizability: 142.704   1.603 143.125  -1.589  -0.685 142.484

                      1                      2                      3
                      A                      A                      A
 Frequencies --     31.4694                45.5720                77.5678
 Red. masses --      4.3228                 2.6173                 4.1012
 Frc consts  --      0.0025                 0.0032                 0.0145
 IR Inten    --      0.5185                 0.1342                 0.7281

                      4                      5                      6
                      A                      A                      A
 Frequencies --    110.1602               159.4956               189.7345
 Red. masses --      2.5390                 2.2775                 3.2682
 Frc consts  --      0.0182                 0.0341                 0.0693
 IR Inten    --      0.2348                 0.3473                 1.1803

                      7                      8                      9
                      A                      A                      A
 Frequencies --    246.3330               298.8107               306.9321
 Red. masses --      3.2132                 2.7148                 1.8120
 Frc consts  --      0.1149                 0.1428                 0.1006
 IR Inten    --      2.0622                 0.6463                13.3900

                     10                     11                     12
                      A                      A                      A
 Frequencies --    320.0949               356.4036               403.6633
 Red. masses --      1.6165                 3.9328                 2.5580
 Frc consts  --      0.0976                 0.2943                 0.2456
 IR Inten    --     61.8595                12.4091                 0.8383

                     13                     14                     15
                      A                      A                      A
 Frequencies --    417.4869               455.8372               559.3007
 Red. masses --      2.2758                 2.5527                 1.8463
 Frc consts  --      0.2337                 0.3125                 0.3403
 IR Inten    --      7.8107                 6.6677                41.4508

                     16                     17                     18
                      A                      A                      A
 Frequencies --    576.9178               629.0460               663.2513
 Red. masses --      1.6748                 2.7552                 2.3487
 Frc consts  --      0.3284                 0.6423                 0.6087
 IR Inten    --     56.7594                 0.3236                12.4183

                     19                     20                     21
                      A                      A                      A
 Frequencies --    693.8976               774.1901               802.7497
 Red. masses --      2.5050                 1.4849                 1.3497
 Frc consts  --      0.7106                 0.5244                 0.5124
 IR Inten    --      3.9666                 0.8063                 3.0869

                     22                     23                     24
                      A                      A                      A
 Frequencies --    835.2277               864.5643               887.6886
 Red. masses --      3.5028                 3.2304                 1.9943
 Frc consts  --      1.4397                 1.4226                 0.9259
 IR Inten    --     26.0527                 5.5725                 2.9157

                     25                     26                     27
                      A                      A                      A
 Frequencies --    910.5301               918.2089               946.5402
 Red. masses --      1.9331                 2.1774                 2.2347
 Frc consts  --      0.9443                 1.0816                 1.1797
 IR Inten    --      1.9919                12.9261                 1.9944

                     28                     29                     30
                      A                      A                      A
 Frequencies --    976.4643               982.5447              1002.3594
 Red. masses --      1.3084                 2.4095                 1.5965
 Frc consts  --      0.7351                 1.3705                 0.9451
 IR Inten    --      2.0515                 2.3739                15.3268

                     31                     32                     33
                      A                      A                      A
 Frequencies --   1039.6431              1066.8098              1091.8597
 Red. masses --      1.8743                 2.2295                 2.4134
 Frc consts  --      1.1936                 1.4950                 1.6952
 IR Inten    --      1.0264                 6.2604                22.6648

                     34                     35                     36
                      A                      A                      A
 Frequencies --   1102.3681              1113.7050              1123.8902
 Red. masses --      2.5720                 3.6658                 2.4120
 Frc consts  --      1.8415                 2.6789                 1.7950
 IR Inten    --     18.3532                10.7262                32.0793

                     37                     38                     39
                      A                      A                      A
 Frequencies --   1143.2729              1169.0475              1203.4139
 Red. masses --      2.4292                 1.4469                 1.8024
 Frc consts  --      1.8707                 1.1650                 1.5379
 IR Inten    --     57.2618                99.2457                11.6998

                     40                     41                     42
                      A                      A                      A
 Frequencies --   1208.9760              1218.4887              1249.2520
 Red. masses --      1.3480                 1.4148                 1.3850
 Frc consts  --      1.1608                 1.2376                 1.2735
 IR Inten    --     21.4530                 2.5318                43.5201

                     43                     44                     45
                      A                      A                      A
 Frequencies --   1256.0048              1269.4464              1271.0204
 Red. masses --      1.5168                 1.4599                 1.3298
 Frc consts  --      1.4098                 1.3861                 1.2658
 IR Inten    --      3.3562                 3.2652                 0.9950

                     46                     47                     48
                      A                      A                      A
 Frequencies --   1277.9171              1290.8795              1293.6288
 Red. masses --      1.2231                 1.4933                 1.5830
 Frc consts  --      1.1768                 1.4661                 1.5608
 IR Inten    --      0.6012                 2.7338                 4.1309

                     49                     50                     51
                      A                      A                      A
 Frequencies --   1298.2567              1315.2227              1325.9852
 Red. masses --      1.3641                 1.4136                 1.4186
 Frc consts  --      1.3547                 1.4407                 1.4696
 IR Inten    --      3.0002                 4.7245                 6.2093

                     52                     53                     54
                      A                      A                      A
 Frequencies --   1362.4502              1375.3694              1404.6565
 Red. masses --      1.4714                 1.4446                 1.5018
 Frc consts  --      1.6093                 1.6101                 1.7458
 IR Inten    --      3.6118                31.2685                19.3538

                     55                     56                     57
                      A                      A                      A
 Frequencies --   1410.4258              1419.0617              1441.7077
 Red. masses --      1.4973                 1.3776                 1.2418
 Frc consts  --      1.7550                 1.6345                 1.5207
 IR Inten    --      5.3823                28.5518                26.0410

                     58                     59                     60
                      A                      A                      A
 Frequencies --   1461.6642              1500.7084              1507.9945
 Red. masses --      1.2716                 1.0883                 1.0907
 Frc consts  --      1.6006                 1.4440                 1.4614
 IR Inten    --    107.9783                 1.7757                 0.4818

                     61                     62                     63
                      A                      A                      A
 Frequencies --   1515.5608              1540.3731              1545.7532
 Red. masses --      1.0834                 1.1298                 1.0857
 Frc consts  --      1.4661                 1.5794                 1.5284
 IR Inten    --      3.6065                 1.2730                 0.3762

                     64                     65                     66
                      A                      A                      A
 Frequencies --   1557.1566              2917.0794              2949.7480
 Red. masses --      1.0984                 1.0722                 1.0739
 Frc consts  --      1.5692                 5.3756                 5.5055
 IR Inten    --     12.3252                71.6326                63.4001

                     67                     68                     69
                      A                      A                      A
 Frequencies --   3015.9440              3041.2887              3051.2985
 Red. masses --      1.0595                 1.0869                 1.0874
 Frc consts  --      5.6782                 5.9234                 5.9652
 IR Inten    --     35.9866                 8.4437                36.6408

                     70                     71                     72
                      A                      A                      A
 Frequencies --   3054.7336              3057.7664              3062.0796
 Red. masses --      1.0606                 1.0820                 1.0786
 Frc consts  --      5.8311                 5.9607                 5.9586
 IR Inten    --     74.9921                15.9723                38.9620

                     73                     74                     75
                      A                      A                      A
 Frequencies --   3070.8987              3079.5219              3096.6037
 Red. masses --      1.0617                 1.0854                 1.0893
 Frc consts  --      5.8988                 6.0645                 6.1541
 IR Inten    --     44.8002                23.0258                33.2509

                     76                     77                     78
                      A                      A                      A
 Frequencies --   3105.0240              3109.5380              3126.7308
 Red. masses --      1.1051                 1.1060                 1.1079
 Frc consts  --      6.2772                 6.3006                 6.3816
 IR Inten    --     20.5997                28.5674                79.0411

                     79                     80                     81
                      A                      A                      A
 Frequencies --   3129.7832              3644.2691              3724.6342
 Red. masses --      1.0890                 1.0644                 1.0659
 Frc consts  --      6.2849                 8.3289                 8.7119
 IR Inten    --     38.2480                53.1742                10.9786

 - Thermochemistry -
 -------------------
 Temperature   298.150 Kelvin.  Pressure   1.00000 Atm.
 Atom     1 has atomic number  6 and mass  12.00000

 Molecular mass:   171.12593 amu.
 Principal axes and moments of inertia in atomic units:
                           1         2         3
     Eigenvalues --   965.079913810.486353952.87507
           X            0.99996  -0.00854   0.00231
           Y            0.00858   0.99976  -0.01991
           Z           -0.00214   0.01993   0.99980
 This molecule is an asymmetric top.
 Rotational symmetry number  1.
 Warning -- assumption of classical behavior for rotation
           may cause significant error
 Rotational temperatures (Kelvin)      0.08975     0.02273     0.02191
 Rotational constants (GHZ):           1.87004     0.47362     0.45656
 Zero-point vibrational energy     682182.2 (Joules/Mol)
                                  163.04546 (Kcal/Mol)
 Warning -- explicit consideration of  16 degrees of freedom as
           vibrations may cause significant error
 Vibrational temperatures:     45.28    65.57   111.60   158.50   229.48
          (Kelvin)            272.99   354.42   429.92   441.61   460.55
                              512.79   580.78   600.67   655.85   804.71
                              830.06   905.06   954.27   998.36  1113.89
                             1154.98  1201.71  1243.92  1277.19  1310.05
                             1321.10  1361.86  1404.91  1413.66  1442.17
                             1495.81  1534.90  1570.94  1586.06  1602.37
                             1617.03  1644.91  1682.00  1731.44  1739.45
                             1753.13  1797.39  1807.11  1826.45  1828.71
                             1838.64  1857.29  1861.24  1867.90  1892.31
                             1907.80  1960.26  1978.85  2020.99  2029.29
                             2041.71  2074.30  2103.01  2159.18  2169.67
                             2180.55  2216.25  2223.99  2240.40  4197.03
                             4244.03  4339.27  4375.74  4390.14  4395.08
                             4399.44  4405.65  4418.34  4430.75  4455.32
                             4467.44  4473.93  4498.67  4503.06  5243.29
                             5358.92

 Zero-point correction=                           0.259829 (Hartree/Particle)
 Thermal correction to Energy=                    0.271811
 Thermal correction to Enthalpy=                  0.272756
 Thermal correction to Gibbs Free Energy=         0.220721
 Sum of electronic and zero-point Energies=           -558.115316
 Sum of electronic and thermal Energies=              -558.103335
 Sum of electronic and thermal Enthalpies=            -558.102390
 Sum of electronic and thermal Free Energies=         -558.154425

                     E (Thermal)             CV                S
                      KCal/Mol        Cal/Mol-Kelvin    Cal/Mol-Kelvin
 Total                  170.564             46.107            109.516
 Electronic               0.000              0.000              0.000
 Translational            0.889              2.981             41.319
 Rotational               0.889              2.981             31.053
 Vibrational            168.787             40.145             37.144
 Vibration     1          0.594              1.983              5.735
 Vibration     2          0.595              1.979              5.001
 Vibration     3          0.599              1.964              3.951
 Vibration     4          0.606              1.941              3.266
 Vibration     5          0.621              1.892              2.556
 Vibration     6          0.633              1.854              2.230
 Vibration     7          0.661              1.769              1.757
 Vibration     8          0.692              1.676              1.424
 Vibration     9          0.697              1.661              1.379
 Vibration    10          0.706              1.635              1.310
 Vibration    11          0.732              1.562              1.138
 Vibration    12          0.769              1.462              0.949
 Vibration    13          0.781              1.432              0.901
 Vibration    14          0.814              1.348              0.778
 Vibration    15          0.915              1.119              0.525
 Vibration    16          0.933              1.081              0.491

 Optimization completed.
    -- Stationary point found.
 Normal termination of Gaussian 16 at Wed Dec  9 17:09:28 2020.

 ----------------------------------------------------------------------
 # B3LYP/6-311++G(d,p) empiricaldispersion=gd3bj scf=xqc pop=npa geom=c
 heck
 ----------------------------------------------------------------------

 ---------------------------------------
 CID_106672617_JID_2218_Energie_neutraal
 ---------------------------------------
 Structure from the checkpoint file:  "JID_2218.chk"
 Charge =  0 Multiplicity = 1

 SCF Done:  E(RB3LYP) =  -558.549209626     A.U. after   13 cycles
 Normal termination of Gaussian 16 at Wed Dec  9 17:12:48 2020.

 ----------------------------------------------------------------------
 # B3LYP/6-311++G(d,p) empiricaldispersion=gd3bj scf=xqc pop=npa geom=c
 heck
 ----------------------------------------------------------------------

 -------------------------------------
 CID_106672617_JID_2218_Energie_kation
 -------------------------------------
 Structure from the checkpoint file:  "JID_2218.chk"
 Charge =  1 Multiplicity = 2

 SCF Done:  E(UB3LYP) =  -558.257483860     A.U. after   19 cycles
 Normal termination of Gaussian 16 at Wed Dec  9 17:19:11 2020.
 Gaussian 16:  ES64L-G16RevA.03 25-Dec-2016

 ----------------------------------------------------------------------
 # B3LYP/6-311++G(d,p) empiricaldispersion=gd3bj scf=xqc pop=npa geom=c
 heck
 ----------------------------------------------------------------------

 ------------------------------------
 CID_106672617_JID_2218_Energie_anion
 ------------------------------------
 Structure from the checkpoint file:  "JID_2218.chk"
 Charge = -1 Multiplicity = 2

                         Standard orientation:
 ---------------------------------------------------------------------
 Center     Atomic      Atomic             Coordinates (Angstroms)
 Number     Number       Type             X           Y           Z
 ---------------------------------------------------------------------
      1          6           0        3.713610   -0.952363    0.512267
      2          6           0        3.505202    0.530507    0.107150
      3          6           0        1.970192    0.304300    0.190218
      4          6           0        2.240519   -1.226311    0.115772
      5          6           0        1.111348    0.974695   -0.885318
      6          7           0       -0.325397    0.789288   -0.796284
      7          6           0       -0.868483   -0.553938   -0.920543
      8          6           0       -2.367509   -0.294191   -0.707430
      9          6           0       -2.337976    0.698898    0.482439
     10          6           0       -1.016632    1.470204    0.300400
     11          8           0       -2.382634   -0.043863    1.711552
     12          8           0       -3.151310   -1.430899   -0.443583
     13          1           0        3.869777   -1.058703    1.590832
     14          1           0        4.493741   -1.515858   -0.008539
     15          1           0        3.942419    1.305696    0.744281
     16          1           0        3.819137    0.713983   -0.927725
     17          1           0        1.607574    0.576420    1.189853
     18          1           0        2.156105   -1.592180   -0.914256
     19          1           0        1.651917   -1.884384    0.763109
     20          1           0        1.306504    2.056637   -0.871092
     21          1           0        1.439762    0.612514   -1.870122
     22          1           0       -0.635812   -0.981859   -1.901095
     23          1           0       -0.512361   -1.271741   -0.154118
     24          1           0       -2.768071    0.205049   -1.596273
     25          1           0       -3.218196    1.343396    0.516971
     26          1           0       -0.464125    1.450741    1.258053
     27          1           0       -1.174858    2.527587    0.051975
     28          1           0       -1.500615   -0.422930    1.859083
     29          1           0       -3.165188   -1.502095    0.529567
 ---------------------------------------------------------------------

 SCF Done:  E(UB3LYP) =  -558.535761614     A.U. after   28 cycles

 The electronic state is 2-A.
 Alpha  occ. eigenvalues --  -19.03369 -19.01857 -14.20105 -10.12729 -10.11896
 Alpha  occ. eigenvalues --  -10.09465 -10.08888 -10.08783 -10.06383 -10.06102
 Alpha  occ. eigenvalues --  -10.06046 -10.05769  -0.94719  -0.91384  -0.83177
 Alpha  occ. eigenvalues --   -0.74044  -0.67077  -0.62647  -0.59317  -0.55321
 Alpha  occ. eigenvalues --   -0.53008  -0.50254  -0.47538  -0.44408  -0.43281
 Alpha  occ. eigenvalues --   -0.40278  -0.38319  -0.37764  -0.36428  -0.35620
 Alpha  occ. eigenvalues --   -0.34101  -0.32560  -0.30648  -0.29519  -0.28760
 Alpha  occ. eigenvalues --   -0.28171  -0.26918  -0.25939  -0.24215  -0.23727
 Alpha  occ. eigenvalues --   -0.23622  -0.21814  -0.20350  -0.20026  -0.19529
 Alpha  occ. eigenvalues --   -0.16746  -0.10817   0.04701
 Alpha virt. eigenvalues --    0.07111   0.07357   0.07900   0.08773   0.09705
 Alpha virt. eigenvalues --    0.09774   0.10543   0.10847   0.11469   0.11959
 Alpha virt. eigenvalues --    0.12415   0.13122   0.13752   0.14333   0.14972

  Beta  occ. eigenvalues --  -19.03317 -19.01846 -14.20105 -10.12717 -10.11893
  Beta  occ. eigenvalues --  -10.09433 -10.08874 -10.08761 -10.06364 -10.06083
  Beta  occ. eigenvalues --  -10.06024 -10.05743  -0.94647  -0.91323  -0.83157
  Beta  occ. eigenvalues --   -0.74009  -0.67041  -0.62596  -0.59274  -0.55256
  Beta  occ. eigenvalues --   -0.52946  -0.50198  -0.47478  -0.44334  -0.43232
  Beta  occ. eigenvalues --   -0.40229  -0.38279  -0.37686  -0.36386  -0.35571
  Beta  occ. eigenvalues --   -0.34050  -0.32528  -0.30605  -0.29494  -0.28721
  Beta  occ. eigenvalues --   -0.28137  -0.26877  -0.25892  -0.24168  -0.23697
  Beta  occ. eigenvalues --   -0.23587  -0.21771  -0.20302  -0.19986  -0.19490
  Beta  occ. eigenvalues --   -0.16717  -0.10795
  Beta virt. eigenvalues --    0.07028   0.07690   0.08370   0.08579   0.09115
  Beta virt. eigenvalues --    0.09980   0.10112   0.11113   0.11297   0.11865
  Beta virt. eigenvalues --    0.12291   0.12757   0.13360   0.14009   0.14748

 Mulliken charges and spin densities:
               1          2
     1  C   -0.519935   0.154003
     2  C    1.332604  -1.865643
     3  C   -1.353528   2.177321
     4  C    1.302600  -1.706470
     5  C   -0.073693  -0.799246
     6  N    0.007928   0.169841
     7  C    0.079721  -0.184297
     8  C   -0.761004  -0.016858
     9  C    0.559576  -0.593490
    10  C    0.220723  -0.638872
    11  O   -0.224429  -0.018027
    12  O   -0.176105   0.014328
    13  H   -0.225655   0.371414
    14  H   -0.117304   0.254277
    15  H   -0.300636   0.441040
    16  H   -0.055803   0.167756
    17  H   -0.130094   0.302244
    18  H    0.030224   0.112986
    19  H   -0.333320   0.463895
    20  H   -0.062189   0.224012
    21  H   -0.148779   0.330644
    22  H   -0.153562   0.293137
    23  H    0.385687  -0.186897
    24  H    0.130655   0.066781
    25  H    0.079482   0.152918
    26  H   -0.160479   0.307608
    27  H   -0.310792   0.448196
    28  H   -0.156903   0.439384
    29  H    0.135012   0.118016
 Sum of Mulliken charges =  -1.00000   1.00000

 Dipole moment (field-independent basis, Debye):
    X=             -1.9648    Y=              0.4873    Z=             -3.3210  Tot=              3.8894
 Quadrupole moment (field-independent basis, Debye-Ang):
   XX=           -136.6947   YY=           -112.7243   ZZ=           -113.6548
   XY=             -3.3225   XZ=             -4.0402   YZ=              0.3728

 Summary of Natural Population Analysis:

                                       Natural Population
                Natural  -----------------------------------------------
    Atom  No    Charge         Core      Valence    Rydberg      Total
 -----------------------------------------------------------------------
      C    1   -0.18755      0.99965     2.18058    0.00732     3.18755
      C    2   -0.18525      0.99963     2.17685    0.00877     3.18525
      C    3   -0.12245      0.99960     2.11120    0.01166     3.12245
      C    4   -0.18848      0.99963     2.17926    0.00958     3.18848
      C    5   -0.07641      0.99958     2.06590    0.01093     3.07641
      N    6   -0.28413      0.99972     2.77050    0.01390     3.78413
      C    7   -0.09439      0.99960     2.08399    0.01080     3.09439
      C    8    0.05408      0.99953     1.93182    0.01457     2.94592
      C    9    0.04936      0.99956     1.93553    0.01554     2.95064
      C   10   -0.09592      0.99961     2.08506    0.01125     3.09592
      O   11   -0.37819      0.99990     3.37082    0.00747     4.37819
      O   12   -0.37502      0.99989     3.36785    0.00728     4.37502
      H   13    0.09744      0.00000     0.40054    0.00202     0.40256
      H   14    0.09150      0.00000     0.40723    0.00126     0.40850
      H   15    0.09778      0.00000     0.40091    0.00131     0.40222
      H   16    0.09190      0.00000     0.40675    0.00135     0.40810
      H   17    0.10004      0.00000     0.39684    0.00312     0.39996
      H   18    0.09255      0.00000     0.40599    0.00147     0.40745
      H   19    0.10130      0.00000     0.39681    0.00189     0.39870
      H   20    0.09600      0.00000     0.40260    0.00141     0.40400
      H   21    0.09218      0.00000     0.40627    0.00155     0.40782
      H   22    0.09811      0.00000     0.40037    0.00152     0.40189
      H   23    0.08242      0.00000     0.41492    0.00266     0.41758
      H   24    0.08743      0.00000     0.41111    0.00146     0.41257
      H   25    0.09225      0.00000     0.40672    0.00103     0.40775
      H   26    0.09117      0.00000     0.40672    0.00212     0.40883
      H   27    0.09868      0.00000     0.39963    0.00168     0.40132
      H   28    0.23651      0.00000     0.25707    0.00641     0.26349
      H   29    0.23707      0.00000     0.25966    0.00327     0.26293
 =======================================================================
   * Total *    0.00000     11.99591    34.83949    0.16460    47.00000

 Normal termination of Gaussian 16 at Wed Dec  9 17:28:28 2020.
