 Gaussian 16, Revision A.03,

 -----------------------------------------------------------
 # opt freq B3LYP/6-31G(d) empiricaldispersion=gd3bj scf=xqc
 -----------------------------------------------------------

 ------------------------------
 CID_89639563_JID_2843_neutraal
 ------------------------------
 Symbolic Z-matrix:
 Charge =  0 Multiplicity = 1

 SCF Done:  E(RB3LYP) =  -484.179754214     A.U. after   14 cycles
 SCF Done:  E(RB3LYP) =  -484.184293722     A.U. after   12 cycles
 SCF Done:  E(RB3LYP) =  -484.184705634     A.U. after   11 cycles
 SCF Done:  E(RB3LYP) =  -484.184739967     A.U. after   11 cycles
 SCF Done:  E(RB3LYP) =  -484.184740047     A.U. after   10 cycles
 SCF Done:  E(RB3LYP) =  -484.184764158     A.U. after   10 cycles
 SCF Done:  E(RB3LYP) =  -484.184765001     A.U. after    8 cycles
 SCF Done:  E(RB3LYP) =  -484.184765374     A.U. after    7 cycles
 SCF Done:  E(RB3LYP) =  -484.184765467     A.U. after    7 cycles
 SCF Done:  E(RB3LYP) =  -484.184765536     A.U. after    6 cycles
 Optimization completed.
    -- Stationary point found.
 Normal termination of Gaussian 16 at Wed Dec  9 18:06:37 2020.

 --------------------------------------------------------------------
 #N Geom=AllCheck Guess=TCheck SCRF=Check GenChk RB3LYP/6-31G(d) Freq
 --------------------------------------------------------------------

 Structure from the checkpoint file:  "JID_2843.chk"
 ------------------------------
 CID_89639563_JID_2843_neutraal
 ------------------------------
 Charge =  0 Multiplicity = 1

 SCF Done:  E(RB3LYP) =  -484.184765536     A.U. after    1 cycles

  Exact polarizability: 166.325 -14.349 134.320   0.000   0.000  74.976
 Approx polarizability: 229.859 -37.260 225.059   0.000   0.001 108.261

                      1                      2                      3
                      A                      A                      A
 Frequencies --     52.8674                74.7633               152.0616
 Red. masses --      2.9803                 3.1307                 2.6262
 Frc consts  --      0.0049                 0.0103                 0.0358
 IR Inten    --      0.3443                 1.3603                 0.0474

                      4                      5                      6
                      A                      A                      A
 Frequencies --    186.1297               192.7296               229.0427
 Red. masses --      2.8909                 2.9677                 1.1189
 Frc consts  --      0.0590                 0.0649                 0.0346
 IR Inten    --      0.7322                 0.3882                 0.2334

                      7                      8                      9
                      A                      A                      A
 Frequencies --    262.1233               266.9759               285.7531
 Red. masses --      1.1328                 1.0779                 2.9430
 Frc consts  --      0.0459                 0.0453                 0.1416
 IR Inten    --      0.0428                 0.3624                 0.0147

                     10                     11                     12
                      A                      A                      A
 Frequencies --    321.2426               325.3029               334.2256
 Red. masses --      2.8394                 1.0445                 2.6448
 Frc consts  --      0.1726                 0.0651                 0.1741
 IR Inten    --      0.1728                 0.0451                 0.8657

                     13                     14                     15
                      A                      A                      A
 Frequencies --    377.1694               383.5906               416.7488
 Red. masses --      2.6889                 2.3932                 2.6491
 Frc consts  --      0.2254                 0.2075                 0.2711
 IR Inten    --      1.8656                 1.5202                 0.8124

                     16                     17                     18
                      A                      A                      A
 Frequencies --    441.4016               492.4020               520.1531
 Red. masses --      2.9127                 3.2507                 2.6308
 Frc consts  --      0.3344                 0.4644                 0.4194
 IR Inten    --      8.9589                 0.5029                 0.2870

                     19                     20                     21
                      A                      A                      A
 Frequencies --    590.2737               624.3040               657.5886
 Red. masses --      4.2386                 1.6083                 1.5284
 Frc consts  --      0.8701                 0.3693                 0.3894
 IR Inten    --      1.8540                 6.0992                 3.1286

                     22                     23                     24
                      A                      A                      A
 Frequencies --    692.5300               696.0641               722.2021
 Red. masses --      4.7658                 1.6756                 2.3652
 Frc consts  --      1.3467                 0.4783                 0.7268
 IR Inten    --      2.9632                48.0350                19.3259

                     25                     26                     27
                      A                      A                      A
 Frequencies --    747.2168               773.3859               833.0158
 Red. masses --      1.5391                 4.3590                 2.7836
 Frc consts  --      0.5063                 1.5361                 1.1381
 IR Inten    --     16.0669                 4.9886                 0.5957

                     28                     29                     30
                      A                      A                      A
 Frequencies --    891.0079               911.5638               941.7563
 Red. masses --      1.5103                 1.2277                 1.7500
 Frc consts  --      0.7064                 0.6010                 0.9145
 IR Inten    --     15.2784                 0.0123                 1.2470

                     31                     32                     33
                      A                      A                      A
 Frequencies --    953.2234               959.4889               975.2338
 Red. masses --      1.6894                 3.3570                 1.1966
 Frc consts  --      0.9044                 1.8209                 0.6705
 IR Inten    --      0.2538                11.8581                 0.0642

                     34                     35                     36
                      A                      A                      A
 Frequencies --    983.7869              1056.7309              1061.4191
 Red. masses --      1.6885                 1.4739                 1.3899
 Frc consts  --      0.9628                 0.9697                 0.9226
 IR Inten    --      1.2846                 5.3935                 0.0013

                     37                     38                     39
                      A                      A                      A
 Frequencies --   1088.1904              1118.3696              1164.1649
 Red. masses --      1.6761                 2.0228                 1.3015
 Frc consts  --      1.1694                 1.4906                 1.0393
 IR Inten    --     48.5326                10.5590                 0.2577

                     40                     41                     42
                      A                      A                      A
 Frequencies --   1201.7531              1242.2325              1242.3268
 Red. masses --      1.7095                 2.6870                 1.9418
 Frc consts  --      1.4546                 2.4430                 1.7657
 IR Inten    --      3.8077                 3.3385                12.8952

                     43                     44                     45
                      A                      A                      A
 Frequencies --   1250.1492              1301.6808              1340.3600
 Red. masses --      2.5790                 2.4394                 1.4871
 Frc consts  --      2.3748                 2.4353                 1.5741
 IR Inten    --      8.6285                22.0151                 1.2198

                     46                     47                     48
                      A                      A                      A
 Frequencies --   1369.9255              1396.5337              1425.5011
 Red. masses --      2.3570                 3.0384                 1.2126
 Frc consts  --      2.6062                 3.4913                 1.4518
 IR Inten    --     28.6606                39.1963                 4.1731

                     49                     50                     51
                      A                      A                      A
 Frequencies --   1427.2431              1456.6558              1463.8593
 Red. masses --      1.2616                 1.2368                 1.3683
 Frc consts  --      1.5142                 1.5462                 1.7275
 IR Inten    --      2.8468                 6.3624                 2.6182

                     52                     53                     54
                      A                      A                      A
 Frequencies --   1485.3564              1502.3063              1511.5834
 Red. masses --      1.3041                 1.0413                 1.7418
 Frc consts  --      1.6952                 1.3847                 2.3449
 IR Inten    --     20.6813                 7.3754                12.3033

                     55                     56                     57
                      A                      A                      A
 Frequencies --   1511.6198              1517.4202              1522.1135
 Red. masses --      1.0496                 1.0457                 1.0908
 Frc consts  --      1.4130                 1.4186                 1.4890
 IR Inten    --      0.0125                 0.1468                 0.4871

                     58                     59                     60
                      A                      A                      A
 Frequencies --   1534.9449              1536.2890              1550.9275
 Red. masses --      1.0820                 1.0507                 1.0638
 Frc consts  --      1.5020                 1.4611                 1.5076
 IR Inten    --     10.5285                 4.9183                 7.7374

                     61                     62                     63
                      A                      A                      A
 Frequencies --   1557.6282              1611.4008              1657.6096
 Red. masses --      1.1524                 4.8249                 4.5617
 Frc consts  --      1.6473                 7.3815                 7.3849
 IR Inten    --     15.3003                29.2294               153.2614

                     64                     65                     66
                      A                      A                      A
 Frequencies --   1720.9964              3035.6960              3045.8874
 Red. masses --      6.2379                 1.0361                 1.0351
 Frc consts  --     10.8854                 5.6254                 5.6582
 IR Inten    --    215.2492                52.2937                27.1778

                     67                     68                     69
                      A                      A                      A
 Frequencies --   3046.3446              3054.0468              3084.5873
 Red. masses --      1.0348                 1.0361                 1.1047
 Frc consts  --      5.6579                 5.6937                 6.1927
 IR Inten    --     24.5581                25.2743                26.9036

                     70                     71                     72
                      A                      A                      A
 Frequencies --   3112.2308              3112.5972              3120.3078
 Red. masses --      1.1020                 1.1024                 1.1014
 Frc consts  --      6.2888                 6.2926                 6.3184
 IR Inten    --      6.0416                 3.4505                93.0660

                     73                     74                     75
                      A                      A                      A
 Frequencies --   3120.5300              3125.1023              3127.2456
 Red. masses --      1.1030                 1.1021                 1.1014
 Frc consts  --      6.3281                 6.3417                 6.3465
 IR Inten    --     17.3191                24.5389                46.7058

                     76                     77                     78
                      A                      A                      A
 Frequencies --   3155.8896              3204.8475              3212.8196
 Red. masses --      1.1002                 1.0594                 1.0884
 Frc consts  --      6.4562                 6.4109                 6.6194
 IR Inten    --     10.2559                 0.5252                 7.4468

                     79                     80                     81
                      A                      A                      A
 Frequencies --   3231.4210              3240.3182              3286.7516
 Red. masses --      1.0888                 1.0945                 1.1150
 Frc consts  --      6.6985                 6.7708                 7.0967
 IR Inten    --      4.5636                10.8128                13.1941

 - Thermochemistry -
 -------------------
 Temperature   298.150 Kelvin.  Pressure   1.00000 Atm.
 Atom     1 has atomic number  6 and mass  12.00000

 Molecular mass:   163.13610 amu.
 Principal axes and moments of inertia in atomic units:
                           1         2         3
     Eigenvalues --   962.339653108.856273660.68655
           X            1.00000   0.00181  -0.00000
           Y           -0.00181   1.00000  -0.00000
           Z            0.00000   0.00000   1.00000
 This molecule is an asymmetric top.
 Rotational symmetry number  1.
 Warning -- assumption of classical behavior for rotation
           may cause significant error
 Rotational temperatures (Kelvin)      0.09000     0.02786     0.02366
 Rotational constants (GHZ):           1.87537     0.58052     0.49301
 Zero-point vibrational energy     678349.9 (Joules/Mol)
                                  162.12951 (Kcal/Mol)
 Warning -- explicit consideration of  19 degrees of freedom as
           vibrations may cause significant error
 Vibrational temperatures:     76.06   107.57   218.78   267.80   277.29
          (Kelvin)            329.54   377.14   384.12   411.13   462.20
                              468.04   480.88   542.66   551.90   599.61
                              635.08   708.46   748.38   849.27   898.23
                              946.12   996.40  1001.48  1039.09  1075.08
                             1112.73  1198.52  1281.96  1311.54  1354.98
                             1371.48  1380.49  1403.14  1415.45  1520.40
                             1527.15  1565.66  1609.08  1674.97  1729.05
                             1787.30  1787.43  1798.69  1872.83  1928.48
                             1971.02  2009.30  2050.98  2053.48  2095.80
                             2106.17  2137.10  2161.48  2174.83  2174.88
                             2183.23  2189.98  2208.44  2210.38  2231.44
                             2241.08  2318.45  2384.93  2476.13  4367.69
                             4382.35  4383.01  4394.09  4438.03  4477.81
                             4478.33  4489.43  4489.75  4496.33  4499.41
                             4540.62  4611.06  4622.53  4649.29  4662.10
                             4728.90

 Zero-point correction=                           0.258370 (Hartree/Particle)
 Thermal correction to Energy=                    0.270971
 Thermal correction to Enthalpy=                  0.271915
 Thermal correction to Gibbs Free Energy=         0.220731
 Sum of electronic and zero-point Energies=           -483.926396
 Sum of electronic and thermal Energies=              -483.913795
 Sum of electronic and thermal Enthalpies=            -483.912850
 Sum of electronic and thermal Free Energies=         -483.964034

                     E (Thermal)             CV                S
                      KCal/Mol        Cal/Mol-Kelvin    Cal/Mol-Kelvin
 Total                  170.037             50.049            107.726
 Electronic               0.000              0.000              0.000
 Translational            0.889              2.981             41.177
 Rotational               0.889              2.981             30.772
 Vibrational            168.259             44.087             35.777
 Vibration     1          0.596              1.976              4.707
 Vibration     2          0.599              1.966              4.024
 Vibration     3          0.619              1.900              2.646
 Vibration     4          0.632              1.859              2.266
 Vibration     5          0.635              1.850              2.201
 Vibration     6          0.652              1.797              1.886
 Vibration     7          0.669              1.742              1.648
 Vibration     8          0.672              1.734              1.616
 Vibration     9          0.684              1.700              1.499
 Vibration    10          0.707              1.633              1.304
 Vibration    11          0.709              1.625              1.283
 Vibration    12          0.716              1.607              1.240
 Vibration    13          0.748              1.519              1.050
 Vibration    14          0.753              1.505              1.025
 Vibration    15          0.780              1.434              0.903
 Vibration    16          0.801              1.380              0.822
 Vibration    17          0.848              1.267              0.677
 Vibration    18          0.875              1.205              0.610
 Vibration    19          0.948              1.053              0.467

 Optimization completed.
    -- Stationary point found.
 Normal termination of Gaussian 16 at Wed Dec  9 18:14:21 2020.

 ----------------------------------------------------------------------
 # B3LYP/6-311++G(d,p) empiricaldispersion=gd3bj scf=xqc pop=npa geom=c
 heck
 ----------------------------------------------------------------------

 --------------------------------------
 CID_89639563_JID_2843_Energie_neutraal
 --------------------------------------
 Structure from the checkpoint file:  "JID_2843.chk"
 Charge =  0 Multiplicity = 1

 SCF Done:  E(RB3LYP) =  -484.316788330     A.U. after   14 cycles
 Normal termination of Gaussian 16 at Wed Dec  9 18:18:02 2020.

 ----------------------------------------------------------------------
 # B3LYP/6-311++G(d,p) empiricaldispersion=gd3bj scf=xqc pop=npa geom=c
 heck
 ----------------------------------------------------------------------

 ------------------------------------
 CID_89639563_JID_2843_Energie_kation
 ------------------------------------
 Structure from the checkpoint file:  "JID_2843.chk"
 Charge =  1 Multiplicity = 2

 SCF Done:  E(UB3LYP) =  -484.080208269     A.U. after   18 cycles
 Normal termination of Gaussian 16 at Wed Dec  9 18:24:27 2020.
 Gaussian 16:  ES64L-G16RevA.03 25-Dec-2016

 ----------------------------------------------------------------------
 # B3LYP/6-311++G(d,p) empiricaldispersion=gd3bj scf=xqc pop=npa geom=c
 heck
 ----------------------------------------------------------------------

 -----------------------------------
 CID_89639563_JID_2843_Energie_anion
 -----------------------------------
 Structure from the checkpoint file:  "JID_2843.chk"
 Charge = -1 Multiplicity = 2

                         Standard orientation:
 ---------------------------------------------------------------------
 Center     Atomic      Atomic             Coordinates (Angstroms)
 Number     Number       Type             X           Y           Z
 ---------------------------------------------------------------------
      1          6           0        2.706961   -0.617512    1.260709
      2          6           0        2.135197    0.067580    0.000002
      3          6           0        2.585720    1.536258    0.000021
      4          6           0        2.706901   -0.617468   -1.260767
      5          6           0        0.612976   -0.075771    0.000015
      6          6           0       -0.240048    0.981669    0.000003
      7          6           0       -1.689051    0.855109   -0.000011
      8          6           0       -2.520624    1.928293    0.000021
      9          7           0       -2.169443   -0.474114   -0.000043
     10          6           0       -1.309383   -1.543042    0.000012
     11          6           0        0.037490   -1.403882    0.000031
     12          6           0       -3.602442   -0.684995    0.000005
     13          1           0        3.800591   -0.539800    1.271953
     14          1           0        2.446380   -1.679829    1.301031
     15          1           0        2.319765   -0.142410    2.168668
     16          1           0        3.680001    1.587398    0.000037
     17          1           0        2.226268    2.067813   -0.887667
     18          1           0        2.226239    2.067794    0.887709
     19          1           0        2.446329   -1.679786   -1.301096
     20          1           0        2.319636   -0.142341   -2.168683
     21          1           0        3.800528   -0.539734   -1.272073
     22          1           0        0.129992    1.999384    0.000012
     23          1           0       -2.092980    2.923428    0.000049
     24          1           0       -3.599034    1.855041   -0.000009
     25          1           0       -1.790355   -2.515228    0.000015
     26          1           0        0.658539   -2.290153    0.000068
     27          1           0       -3.814369   -1.755528   -0.000011
     28          1           0       -4.056773   -0.227349    0.887773
     29          1           0       -4.056830   -0.227336   -0.887725
 ---------------------------------------------------------------------

 SCF Done:  E(UB3LYP) =  -484.302009987     A.U. after   33 cycles
 SCF Done:  E(UB3LYP) =  -484.302009987     a.u. after    1 cycles

 The electronic state is 2-A.
 Alpha  occ. eigenvalues --  -14.26326 -10.11558 -10.11317 -10.10616 -10.09450
 Alpha  occ. eigenvalues --  -10.08528 -10.06774 -10.06342 -10.06149 -10.06149
 Alpha  occ. eigenvalues --  -10.06088 -10.03658  -0.87869  -0.74709  -0.69367
 Alpha  occ. eigenvalues --   -0.68738  -0.61571  -0.59815  -0.58978  -0.58057
 Alpha  occ. eigenvalues --   -0.53207  -0.50475  -0.44174  -0.42055  -0.40663
 Alpha  occ. eigenvalues --   -0.37214  -0.36481  -0.36324  -0.34565  -0.33977
 Alpha  occ. eigenvalues --   -0.32461  -0.30898  -0.30513  -0.30005  -0.28438
 Alpha  occ. eigenvalues --   -0.27872  -0.27313  -0.27308  -0.27032  -0.24073
 Alpha  occ. eigenvalues --   -0.22797  -0.22759  -0.18933  -0.17568  -0.07421
 Alpha  occ. eigenvalues --    0.04412
 Alpha virt. eigenvalues --    0.06035   0.07180   0.07379   0.08354   0.08621
 Alpha virt. eigenvalues --    0.08692   0.10097   0.10201   0.10807   0.10879
 Alpha virt. eigenvalues --    0.11207   0.11915   0.12567   0.12585   0.13485

  Beta  occ. eigenvalues --  -14.26326 -10.11555 -10.11292 -10.10571 -10.09446
  Beta  occ. eigenvalues --  -10.08528 -10.06769 -10.06320 -10.06124 -10.06124
  Beta  occ. eigenvalues --  -10.06075 -10.03651  -0.87857  -0.74696  -0.69346
  Beta  occ. eigenvalues --   -0.68716  -0.61522  -0.59777  -0.58929  -0.58020
  Beta  occ. eigenvalues --   -0.53168  -0.50439  -0.44130  -0.41994  -0.40635
  Beta  occ. eigenvalues --   -0.37177  -0.36454  -0.36288  -0.34532  -0.33941
  Beta  occ. eigenvalues --   -0.32426  -0.30851  -0.30483  -0.29977  -0.28407
  Beta  occ. eigenvalues --   -0.27851  -0.27288  -0.27279  -0.27007  -0.24048
  Beta  occ. eigenvalues --   -0.22773  -0.22736  -0.18922  -0.17558  -0.07411
  Beta virt. eigenvalues --    0.06551   0.07200   0.07234   0.08063   0.08985
  Beta virt. eigenvalues --    0.08992   0.09329   0.10246   0.10442   0.11185
  Beta virt. eigenvalues --    0.11330   0.11710   0.12059   0.12829   0.12960

 Mulliken charges and spin densities:
               1          2
     1  C    0.637105  -1.317583
     2  C   -0.998344   1.484297
     3  C   -0.633613   0.157368
     4  C    0.637230  -1.317721
     5  C    0.846743  -0.170881
     6  C   -0.491939   0.235780
     7  C    0.168081   0.041548
     8  C    0.264775  -1.326126
     9  N   -0.143864   0.303559
    10  C    2.413435  -2.195514
    11  C   -1.782622   1.031947
    12  C    0.954811  -1.327000
    13  H   -0.187721   0.344047
    14  H   -0.293602   0.439274
    15  H    0.078047   0.063171
    16  H   -0.277135   0.450346
    17  H   -0.037760   0.166910
    18  H   -0.037773   0.166921
    19  H   -0.293625   0.439304
    20  H    0.078035   0.063184
    21  H   -0.187701   0.344023
    22  H    0.177166  -0.027384
    23  H   -0.015377   0.138268
    24  H    0.150761  -0.042560
    25  H   -1.087996   1.286350
    26  H   -0.037986   0.194851
    27  H   -0.437558   0.579849
    28  H   -0.230771   0.396870
    29  H   -0.230800   0.396900
 Sum of Mulliken charges =  -1.00000   1.00000

 Dipole moment (field-independent basis, Debye):
    X=              1.1912    Y=              4.5581    Z=             -0.0001  Tot=              4.7112
 Quadrupole moment (field-independent basis, Debye-Ang):
   XX=           -154.6479   YY=           -125.2411   ZZ=           -106.5335
   XY=             -8.9043   XZ=              0.0010   YZ=              0.0001

 Summary of Natural Population Analysis:

                                       Natural Population
                Natural  -----------------------------------------------
    Atom  No    Charge         Core      Valence    Rydberg      Total
 -----------------------------------------------------------------------
      C    1   -0.27987      0.99963     2.27312    0.00712     3.27987
      C    2   -0.05463      0.99955     2.04297    0.01211     3.05463
      C    3   -0.28663      0.99964     2.27935    0.00765     3.28663
      C    4   -0.27987      0.99963     2.27312    0.00712     3.27987
      C    5    0.00569      0.99947     1.98137    0.01347     2.99431
      C    6   -0.11736      0.99945     2.10965    0.00826     3.11736
      C    7    0.08493      0.99950     1.90426    0.01131     2.91507
      C    8   -0.28549      0.99957     2.27704    0.00888     3.28549
      N    9   -0.21679      0.99963     2.70647    0.01068     3.71679
      C   10    0.04490      0.99953     1.94304    0.01253     2.95510
      C   11   -0.15611      0.99951     2.14532    0.01128     3.15611
      C   12   -0.17390      0.99964     2.16517    0.00908     3.17390
      H   13    0.09937      0.00000     0.39955    0.00108     0.40063
      H   14    0.10230      0.00000     0.39648    0.00122     0.39770
      H   15    0.10061      0.00000     0.39849    0.00090     0.39939
      H   16    0.10227      0.00000     0.39680    0.00093     0.39773
      H   17    0.10073      0.00000     0.39834    0.00094     0.39927
      H   18    0.10073      0.00000     0.39834    0.00094     0.39927
      H   19    0.10230      0.00000     0.39648    0.00122     0.39770
      H   20    0.10061      0.00000     0.39849    0.00090     0.39939
      H   21    0.09937      0.00000     0.39955    0.00108     0.40063
      H   22    0.10288      0.00000     0.39564    0.00147     0.39712
      H   23    0.09572      0.00000     0.40351    0.00077     0.40428
      H   24    0.09629      0.00000     0.40282    0.00089     0.40371
      H   25    0.10299      0.00000     0.39404    0.00296     0.39701
      H   26    0.10879      0.00000     0.38971    0.00150     0.39121
      H   27    0.10522      0.00000     0.39206    0.00272     0.39478
      H   28    0.09747      0.00000     0.40076    0.00177     0.40253
      H   29    0.09747      0.00000     0.40076    0.00177     0.40253
 =======================================================================
   * Total *    0.00000     11.99474    32.86269    0.14257    45.00000

 Normal termination of Gaussian 16 at Wed Dec  9 18:36:14 2020.
