 Gaussian 16, Revision A.03,

 -----------------------------------------------------------
 # opt freq B3LYP/6-31G(d) empiricaldispersion=gd3bj scf=xqc
 -----------------------------------------------------------

 -----------------------------
 CID_45086158_JID_944_neutraal
 -----------------------------
 Symbolic Z-matrix:
 Charge =  0 Multiplicity = 1

 SCF Done:  E(RB3LYP) =  -833.630769913     A.U. after   15 cycles
 SCF Done:  E(RB3LYP) =  -833.638674022     A.U. after   13 cycles
 SCF Done:  E(RB3LYP) =  -833.639622880     A.U. after   12 cycles
 SCF Done:  E(RB3LYP) =  -833.639725134     A.U. after   10 cycles
 SCF Done:  E(RB3LYP) =  -833.639761654     A.U. after   10 cycles
 SCF Done:  E(RB3LYP) =  -833.639782686     A.U. after   10 cycles
 SCF Done:  E(RB3LYP) =  -833.639826082     A.U. after   11 cycles
 SCF Done:  E(RB3LYP) =  -833.639838633     A.U. after   10 cycles
 SCF Done:  E(RB3LYP) =  -833.639841764     A.U. after    9 cycles
 SCF Done:  E(RB3LYP) =  -833.639842789     A.U. after    8 cycles
 SCF Done:  E(RB3LYP) =  -833.639843504     A.U. after    8 cycles
 SCF Done:  E(RB3LYP) =  -833.639843867     A.U. after    8 cycles
 SCF Done:  E(RB3LYP) =  -833.639844348     A.U. after    8 cycles
 SCF Done:  E(RB3LYP) =  -833.639844766     A.U. after    9 cycles
 SCF Done:  E(RB3LYP) =  -833.639844856     A.U. after    8 cycles
 SCF Done:  E(RB3LYP) =  -833.639844968     A.U. after    7 cycles
 Optimization completed.
    -- Stationary point found.
 Normal termination of Gaussian 16 at Tue Dec  8 13:32:32 2020.

 --------------------------------------------------------------------
 #N Geom=AllCheck Guess=TCheck SCRF=Check GenChk RB3LYP/6-31G(d) Freq
 --------------------------------------------------------------------

 Structure from the checkpoint file:  "JID_944.chk"
 -----------------------------
 CID_45086158_JID_944_neutraal
 -----------------------------
 Charge =  0 Multiplicity = 1

 SCF Done:  E(RB3LYP) =  -833.639844968     A.U. after    1 cycles

  Exact polarizability: 128.589  -5.028  88.502  -1.091   2.386  56.486
 Approx polarizability: 185.428 -15.244 148.129  -7.211   5.932  84.554

                      1                      2                      3
                      A                      A                      A
 Frequencies --     63.4383                80.1653               107.1953
 Red. masses --      2.6776                 3.2774                 1.3630
 Frc consts  --      0.0063                 0.0124                 0.0092
 IR Inten    --      3.7287                 1.0259                37.4977

                      4                      5                      6
                      A                      A                      A
 Frequencies --    157.4963               194.6911               205.6531
 Red. masses --      3.6050                 2.5815                 1.5227
 Frc consts  --      0.0527                 0.0577                 0.0379
 IR Inten    --     35.4914                33.8565                37.3233

                      7                      8                      9
                      A                      A                      A
 Frequencies --    236.5936               258.2192               291.7721
 Red. masses --      5.0939                 1.1966                 2.7228
 Frc consts  --      0.1680                 0.0470                 0.1366
 IR Inten    --      1.9585                 1.2333                 1.9685

                     10                     11                     12
                      A                      A                      A
 Frequencies --    329.0548               403.1331               438.7577
 Red. masses --      3.8427                 4.3940                 3.7452
 Frc consts  --      0.2451                 0.4207                 0.4248
 IR Inten    --      3.5046                 1.4629                 4.8812

                     13                     14                     15
                      A                      A                      A
 Frequencies --    510.0914               528.3335               553.1343
 Red. masses --      4.5350                 1.3584                 4.9118
 Frc consts  --      0.6952                 0.2234                 0.8854
 IR Inten    --     20.6314                88.9979                 4.4053

                     16                     17                     18
                      A                      A                      A
 Frequencies --    676.8322               718.4793               725.0672
 Red. masses --      4.6379                 4.5390                 4.5983
 Frc consts  --      1.2518                 1.3805                 1.4243
 IR Inten    --      6.5635                 3.9610                 8.3031

                     19                     20                     21
                      A                      A                      A
 Frequencies --    745.2875               920.0651               976.3052
 Red. masses --      5.3924                 2.4223                 3.5337
 Frc consts  --      1.7648                 1.2081                 1.9845
 IR Inten    --      6.9514                16.4215                30.4551

                     22                     23                     24
                      A                      A                      A
 Frequencies --   1038.4922              1071.1910              1110.7580
 Red. masses --      1.7915                 1.6579                 3.4735
 Frc consts  --      1.1384                 1.1208                 2.5250
 IR Inten    --     35.7234                44.4187                26.1684

                     25                     26                     27
                      A                      A                      A
 Frequencies --   1131.0895              1168.0201              1170.8875
 Red. masses --      2.7708                 2.2678                 1.4070
 Frc consts  --      2.0886                 1.8229                 1.1365
 IR Inten    --    106.5325                53.4279                 6.7202

                     28                     29                     30
                      A                      A                      A
 Frequencies --   1239.3996              1275.3146              1314.3202
 Red. masses --      4.0631                 2.4864                 1.3736
 Frc consts  --      3.6773                 2.3826                 1.3980
 IR Inten    --      2.4523                70.1646                12.3618

                     31                     32                     33
                      A                      A                      A
 Frequencies --   1359.1831              1380.4758              1412.3787
 Red. masses --      2.9541                 1.8185                 1.2836
 Frc consts  --      3.2154                 2.0418                 1.5086
 IR Inten    --     75.3895                 6.3983                49.5045

                     34                     35                     36
                      A                      A                      A
 Frequencies --   1430.1957              1437.7897              1493.9367
 Red. masses --      1.4674                 1.5101                 1.9613
 Frc consts  --      1.7684                 1.8393                 2.5790
 IR Inten    --     20.7074                 6.8458                66.9459

                     37                     38                     39
                      A                      A                      A
 Frequencies --   1504.8147              1519.7599              1523.1460
 Red. masses --      2.2546                 1.0472                 1.0746
 Frc consts  --      3.0080                 1.4251                 1.4688
 IR Inten    --    235.1881                 7.0254                 5.2132

                     40                     41                     42
                      A                      A                      A
 Frequencies --   1529.7285              1538.2815              1629.8571
 Red. masses --      1.0526                 1.1277                 6.6077
 Frc consts  --      1.4513                 1.5723                10.3418
 IR Inten    --      9.9512                64.8479                19.3835

                     43                     44                     45
                      A                      A                      A
 Frequencies --   3050.8968              3071.5371              3092.4416
 Red. masses --      1.0388                 1.0342                 1.0859
 Frc consts  --      5.6970                 5.7486                 6.1187
 IR Inten    --      8.5854                44.9240                 5.4658

                     46                     47                     48
                      A                      A                      A
 Frequencies --   3123.6749              3145.5412              3147.2675
 Red. masses --      1.0989                 1.1027                 1.1022
 Frc consts  --      6.3174                 6.4284                 6.4323
 IR Inten    --     30.3843                13.0999                10.4655

                     49                     50                     51
                      A                      A                      A
 Frequencies --   3172.7316              3680.7724              3758.0350
 Red. masses --      1.1060                 1.0822                 1.0668
 Frc consts  --      6.5596                 8.6384                 8.8765
 IR Inten    --      1.6818                98.8148                19.9542

 - Thermochemistry -
 -------------------
 Temperature   298.150 Kelvin.  Pressure   1.00000 Atm.
 Atom     1 has atomic number  6 and mass  12.00000

 Molecular mass:   159.04663 amu.
 Principal axes and moments of inertia in atomic units:
                           1         2         3
     Eigenvalues --   764.654542476.132552892.76958
           X            0.99980   0.00858   0.01788
           Y           -0.00865   0.99996   0.00339
           Z           -0.01785  -0.00354   0.99983
 This molecule is an asymmetric top.
 Rotational symmetry number  1.
 Warning -- assumption of classical behavior for rotation
           may cause significant error
 Rotational temperatures (Kelvin)      0.11327     0.03498     0.02994
 Rotational constants (GHZ):           2.36020     0.72885     0.62388
 Zero-point vibrational energy     398605.8 (Joules/Mol)
                                   95.26907 (Kcal/Mol)
 Warning -- explicit consideration of  15 degrees of freedom as
           vibrations may cause significant error
 Vibrational temperatures:     91.27   115.34   154.23   226.60   280.12
          (Kelvin)            295.89   340.41   371.52   419.80   473.44
                              580.02   631.27   733.91   760.15   795.84
                              973.81  1033.73  1043.21  1072.30  1323.77
                             1404.69  1494.16  1541.20  1598.13  1627.39
                             1680.52  1684.65  1783.22  1834.89  1891.01
                             1955.56  1986.20  2032.10  2057.73  2068.66
                             2149.44  2165.09  2186.60  2191.47  2200.94
                             2213.24  2345.00  4389.56  4419.26  4449.33
                             4494.27  4525.73  4528.22  4564.85  5295.81
                             5406.97

 Zero-point correction=                           0.151821 (Hartree/Particle)
 Thermal correction to Energy=                    0.162455
 Thermal correction to Enthalpy=                  0.163400
 Thermal correction to Gibbs Free Energy=         0.115243
 Sum of electronic and zero-point Energies=           -833.488024
 Sum of electronic and thermal Energies=              -833.477390
 Sum of electronic and thermal Enthalpies=            -833.476445
 Sum of electronic and thermal Free Energies=         -833.524602

                     E (Thermal)             CV                S
                      KCal/Mol        Cal/Mol-Kelvin    Cal/Mol-Kelvin
 Total                  101.942             37.818            101.353
 Electronic               0.000              0.000              0.000
 Translational            0.889              2.981             41.101
 Rotational               0.889              2.981             30.083
 Vibrational            100.165             31.857             30.169
 Vibration     1          0.597              1.972              4.347
 Vibration     2          0.600              1.963              3.887
 Vibration     3          0.606              1.943              3.319
 Vibration     4          0.621              1.894              2.580
 Vibration     5          0.635              1.847              2.183
 Vibration     6          0.640              1.832              2.082
 Vibration     7          0.655              1.785              1.828
 Vibration     8          0.667              1.749              1.674
 Vibration     9          0.687              1.689              1.464
 Vibration    10          0.712              1.617              1.265
 Vibration    11          0.769              1.463              0.951
 Vibration    12          0.799              1.386              0.831
 Vibration    13          0.865              1.228              0.633
 Vibration    14          0.883              1.187              0.591
 Vibration    15          0.909              1.133              0.538

 Optimization completed.
    -- Stationary point found.
 Normal termination of Gaussian 16 at Tue Dec  8 13:36:07 2020.

 ----------------------------------------------------------------------
 # B3LYP/6-311++G(d,p) empiricaldispersion=gd3bj scf=xqc pop=npa geom=c
 heck
 ----------------------------------------------------------------------

 -------------------------------------
 CID_45086158_JID_944_Energie_neutraal
 -------------------------------------
 Structure from the checkpoint file:  "JID_944.chk"
 Charge =  0 Multiplicity = 1

 SCF Done:  E(RB3LYP) =  -833.797645927     A.U. after   14 cycles
 Normal termination of Gaussian 16 at Tue Dec  8 13:37:53 2020.

 ----------------------------------------------------------------------
 # B3LYP/6-311++G(d,p) empiricaldispersion=gd3bj scf=xqc pop=npa geom=c
 heck
 ----------------------------------------------------------------------

 -----------------------------------
 CID_45086158_JID_944_Energie_kation
 -----------------------------------
 Structure from the checkpoint file:  "JID_944.chk"
 Charge =  1 Multiplicity = 2

 SCF Done:  E(UB3LYP) =  -833.507777171     A.U. after   23 cycles
 Normal termination of Gaussian 16 at Tue Dec  8 13:42:13 2020.
 Gaussian 16:  ES64L-G16RevA.03 25-Dec-2016

 ----------------------------------------------------------------------
 # B3LYP/6-311++G(d,p) empiricaldispersion=gd3bj scf=xqc pop=npa geom=c
 heck
 ----------------------------------------------------------------------

 ----------------------------------
 CID_45086158_JID_944_Energie_anion
 ----------------------------------
 Structure from the checkpoint file:  "JID_944.chk"
 Charge = -1 Multiplicity = 2

                         Standard orientation:
 ---------------------------------------------------------------------
 Center     Atomic      Atomic             Coordinates (Angstroms)
 Number     Number       Type             X           Y           Z
 ---------------------------------------------------------------------
      1          6           0        2.760524   -0.112055    1.227284
      2          6           0        2.202100   -0.331989   -0.180712
      3          6           0        0.715456   -0.573750   -0.166643
      4          7           0        0.195597   -1.767666   -0.247172
      5          7           0       -1.152185   -1.546759   -0.135792
      6          6           0       -1.499652   -0.239116   -0.002599
      7         16           0       -3.025631    0.424165    0.138440
      8          7           0       -0.260767    0.391794   -0.014592
      9          6           0       -0.091542    1.834097    0.044048
     10          8           0        2.544278    0.730556   -1.070179
     11          1           0        2.322452    0.778246    1.695539
     12          1           0        3.846651    0.016825    1.178035
     13          1           0        2.537608   -0.970567    1.867234
     14          1           0        2.640093   -1.243737   -0.598391
     15          1           0       -1.805318   -2.313640   -0.187136
     16          1           0        0.379324    2.191567   -0.873501
     17          1           0       -1.088393    2.266060    0.148495
     18          1           0        0.514091    2.114888    0.910933
     19          1           0        2.709529    1.524557   -0.540193
 ---------------------------------------------------------------------

 SCF Done:  E(UB3LYP) =  -833.790140658     A.U. after   28 cycles

 The electronic state is 2-A.
 Alpha  occ. eigenvalues --  -88.69948 -19.02785 -14.30395 -14.29333 -14.26050
 Alpha  occ. eigenvalues --  -10.19331 -10.15902 -10.14618 -10.10887 -10.06605
 Alpha  occ. eigenvalues --   -7.78701  -5.75155  -5.74466  -5.74253  -1.00278
 Alpha  occ. eigenvalues --   -0.93350  -0.85768  -0.77766  -0.67008  -0.65511
 Alpha  occ. eigenvalues --   -0.62032  -0.57644  -0.52684  -0.50998  -0.45661
 Alpha  occ. eigenvalues --   -0.41172  -0.39391  -0.38567  -0.37525  -0.35316
 Alpha  occ. eigenvalues --   -0.33687  -0.32198  -0.29556  -0.29145  -0.27657
 Alpha  occ. eigenvalues --   -0.24733  -0.23818  -0.22574  -0.21252  -0.19191
 Alpha  occ. eigenvalues --   -0.12744  -0.11692   0.04515
 Alpha virt. eigenvalues --    0.07047   0.07834   0.08532   0.08954   0.09825
 Alpha virt. eigenvalues --    0.10126   0.11236   0.11958   0.12293   0.12594
 Alpha virt. eigenvalues --    0.14116   0.15029   0.15456   0.16038   0.16883

  Beta  occ. eigenvalues --  -88.69946 -19.02726 -14.30387 -14.29326 -14.26045
  Beta  occ. eigenvalues --  -10.19331 -10.15903 -10.14607 -10.10820 -10.06518
  Beta  occ. eigenvalues --   -7.78698  -5.75153  -5.74465  -5.74251  -1.00266
  Beta  occ. eigenvalues --   -0.93233  -0.85747  -0.77752  -0.66936  -0.65445
  Beta  occ. eigenvalues --   -0.62003  -0.57546  -0.52633  -0.50926  -0.45614
  Beta  occ. eigenvalues --   -0.41118  -0.39338  -0.38507  -0.37443  -0.35247
  Beta  occ. eigenvalues --   -0.33634  -0.32131  -0.29489  -0.29087  -0.27580
  Beta  occ. eigenvalues --   -0.24666  -0.23795  -0.22551  -0.21220  -0.19139
  Beta  occ. eigenvalues --   -0.12736  -0.11684
  Beta virt. eigenvalues --    0.07019   0.08134   0.08496   0.08650   0.09451
  Beta virt. eigenvalues --    0.10370   0.10988   0.11762   0.12467   0.12761
  Beta virt. eigenvalues --    0.13357   0.14412   0.15041   0.15652   0.16352

 Mulliken charges and spin densities:
               1          2
     1  C    2.330316  -2.750045
     2  C   -2.478888   2.312311
     3  C    1.270956  -1.299232
     4  N   -0.216649   0.146935
     5  N   -0.006501  -0.080143
     6  C    0.379205  -0.082039
     7  S   -0.920839   0.098193
     8  N   -0.160837   0.169368
     9  C    1.534641  -1.921654
    10  O   -0.116644  -0.103197
    11  H   -0.474642   0.635484
    12  H   -0.919841   1.112853
    13  H   -0.307971   0.453547
    14  H   -0.077560   0.304701
    15  H    0.194936   0.166313
    16  H   -0.252673   0.463883
    17  H    0.126658  -0.013043
    18  H   -0.730654   0.937832
    19  H   -0.173011   0.447934
 Sum of Mulliken charges =  -1.00000   1.00000

 Dipole moment (field-independent basis, Debye):
    X=             -5.8361    Y=             -4.9486    Z=             -2.7518  Tot=              8.1315
 Quadrupole moment (field-independent basis, Debye-Ang):
   XX=           -138.8463   YY=           -102.4128   ZZ=            -98.8493
   XY=             -6.1887   XZ=             -6.6915   YZ=             -2.2542

 Summary of Natural Population Analysis:

                                       Natural Population
                Natural  -----------------------------------------------
    Atom  No    Charge         Core      Valence    Rydberg      Total
 -----------------------------------------------------------------------
      C    1   -0.29668      0.99965     2.29119    0.00584     3.29668
      C    2    0.04184      0.99954     1.94327    0.01536     2.95816
      C    3    0.20312      0.99957     1.77854    0.01877     2.79688
      N    4   -0.15347      0.99968     2.64284    0.01095     3.65347
      N    5   -0.19577      0.99963     2.68324    0.01291     3.69577
      C    6    0.11876      0.99962     1.86043    0.02118     2.88124
      S    7   -0.14531      4.99960     3.13223    0.01348     8.14531
      N    8   -0.22047      0.99957     2.70997    0.01093     3.72047
      C    9   -0.18331      0.99963     2.17516    0.00852     3.18331
      O   10   -0.36980      0.99990     3.36331    0.00658     4.36980
      H   11    0.10521      0.00000     0.39001    0.00478     0.39479
      H   12    0.11025      0.00000     0.38654    0.00321     0.38975
      H   13    0.10795      0.00000     0.39027    0.00178     0.39205
      H   14    0.10000      0.00000     0.39825    0.00176     0.40000
      H   15    0.20439      0.00000     0.29359    0.00202     0.29561
      H   16    0.10835      0.00000     0.39026    0.00139     0.39165
      H   17    0.11612      0.00000     0.38266    0.00122     0.38388
      H   18    0.10792      0.00000     0.38899    0.00309     0.39208
      H   19    0.24091      0.00000     0.24646    0.01263     0.25909
 =======================================================================
   * Total *    0.00000     13.99638    27.84722    0.15640    42.00000

 Normal termination of Gaussian 16 at Tue Dec  8 13:46:27 2020.
