 Gaussian 16, Revision A.03,

 -----------------------------------------------------------
 # opt freq B3LYP/6-31G(d) empiricaldispersion=gd3bj scf=xqc
 -----------------------------------------------------------

 ------------------------------
 CID_79277806_JID_2024_neutraal
 ------------------------------
 Symbolic Z-matrix:
 Charge =  0 Multiplicity = 1

 SCF Done:  E(RB3LYP) =  -537.300837962     A.U. after   15 cycles
 SCF Done:  E(RB3LYP) =  -537.308277602     A.U. after   12 cycles
 SCF Done:  E(RB3LYP) =  -537.308988079     A.U. after   12 cycles
 SCF Done:  E(RB3LYP) =  -537.309554958     A.U. after   14 cycles
 SCF Done:  E(RB3LYP) =  -537.310415118     A.U. after   12 cycles
 SCF Done:  E(RB3LYP) =  -537.311180393     A.U. after   12 cycles
 SCF Done:  E(RB3LYP) =  -537.311100012     A.U. after   14 cycles
 SCF Done:  E(RB3LYP) =  -537.311552608     A.U. after   14 cycles
 SCF Done:  E(RB3LYP) =  -537.311642549     A.U. after   11 cycles
 SCF Done:  E(RB3LYP) =  -537.311680782     A.U. after   11 cycles
 SCF Done:  E(RB3LYP) =  -537.311828733     A.U. after   10 cycles
 SCF Done:  E(RB3LYP) =  -537.311831127     A.U. after    9 cycles
 SCF Done:  E(RB3LYP) =  -537.311829317     A.U. after   10 cycles
 SCF Done:  E(RB3LYP) =  -537.311832420     A.U. after   10 cycles
 SCF Done:  E(RB3LYP) =  -537.311832767     A.U. after    8 cycles
 SCF Done:  E(RB3LYP) =  -537.311832787     A.U. after    6 cycles
 Optimization completed.
    -- Stationary point found.
 Normal termination of Gaussian 16 at Wed Dec  9 16:49:22 2020.

 --------------------------------------------------------------------
 #N Geom=AllCheck Guess=TCheck SCRF=Check GenChk RB3LYP/6-31G(d) Freq
 --------------------------------------------------------------------

 Structure from the checkpoint file:  "JID_2024.chk"
 ------------------------------
 CID_79277806_JID_2024_neutraal
 ------------------------------
 Charge =  0 Multiplicity = 1

 SCF Done:  E(RB3LYP) =  -537.311832787     A.U. after    1 cycles

  Exact polarizability: 149.803 -11.029  98.800  -4.736  -1.435  80.518
 Approx polarizability: 174.218 -22.440 155.687  -9.403   1.506 119.178

                      1                      2                      3
                      A                      A                      A
 Frequencies --     19.6588                33.8822                48.2808
 Red. masses --      3.1680                 3.5465                 3.2557
 Frc consts  --      0.0007                 0.0024                 0.0045
 IR Inten    --      0.0266                 0.6049                 0.3644

                      4                      5                      6
                      A                      A                      A
 Frequencies --     82.3104                89.4627               107.2059
 Red. masses --      3.8668                 2.7627                 2.9345
 Frc consts  --      0.0154                 0.0130                 0.0199
 IR Inten    --      0.1232                 0.3733                 0.6968

                      7                      8                      9
                      A                      A                      A
 Frequencies --    142.1230               190.1449               260.3584
 Red. masses --      2.8949                 2.4520                 2.1310
 Frc consts  --      0.0345                 0.0522                 0.0851
 IR Inten    --      3.9949                 0.1119                 2.7630

                     10                     11                     12
                      A                      A                      A
 Frequencies --    286.9921               315.9073               403.1742
 Red. masses --      3.2884                 2.9261                 3.5372
 Frc consts  --      0.1596                 0.1721                 0.3388
 IR Inten    --     20.1870                 1.4724                 1.9915

                     13                     14                     15
                      A                      A                      A
 Frequencies --    419.8462               442.3469               490.6825
 Red. masses --      3.1990                 2.2759                 2.7237
 Frc consts  --      0.3322                 0.2624                 0.3864
 IR Inten    --      0.9205                 5.0898                21.7615

                     16                     17                     18
                      A                      A                      A
 Frequencies --    511.5775               623.3912               649.1761
 Red. masses --      1.8193                 2.0238                 1.5775
 Frc consts  --      0.2805                 0.4634                 0.3917
 IR Inten    --      6.9866                19.2605                65.7132

                     19                     20                     21
                      A                      A                      A
 Frequencies --    666.5755               686.8753               770.4078
 Red. masses --      1.7944                 2.4885                 1.8451
 Frc consts  --      0.4698                 0.6917                 0.6452
 IR Inten    --     17.9187                 1.3811                16.1516

                     22                     23                     24
                      A                      A                      A
 Frequencies --    798.0946               825.9018               871.3598
 Red. masses --      1.2008                 1.7385                 2.3296
 Frc consts  --      0.4507                 0.6987                 1.0421
 IR Inten    --      1.5583                94.0186                39.2431

                     25                     26                     27
                      A                      A                      A
 Frequencies --    914.3163               930.5762               935.4593
 Red. masses --      2.0615                 1.6644                 2.4782
 Frc consts  --      1.0154                 0.8492                 1.2777
 IR Inten    --      0.9085                 2.9025                 1.2613

                     28                     29                     30
                      A                      A                      A
 Frequencies --    948.6942               956.3768               971.3788
 Red. masses --      1.3488                 1.3782                 1.7194
 Frc consts  --      0.7153                 0.7427                 0.9559
 IR Inten    --     35.5032                 2.2495                19.2698

                     31                     32                     33
                      A                      A                      A
 Frequencies --    992.4164              1000.8793              1038.3537
 Red. masses --      2.4885                 2.4699                 1.0985
 Frc consts  --      1.4441                 1.4578                 0.6978
 IR Inten    --      6.0995                 0.5765                15.3288

                     34                     35                     36
                      A                      A                      A
 Frequencies --   1057.8979              1109.3157              1121.1273
 Red. masses --      2.0094                 2.1729                 2.4855
 Frc consts  --      1.3249                 1.5754                 1.8407
 IR Inten    --      3.0621                11.0218                14.2214

                     37                     38                     39
                      A                      A                      A
 Frequencies --   1168.2190              1189.9689              1205.4444
 Red. masses --      2.5176                 2.4214                 1.6565
 Frc consts  --      2.0243                 2.0202                 1.4182
 IR Inten    --     40.1310                21.9777                 8.3875

                     40                     41                     42
                      A                      A                      A
 Frequencies --   1215.4686              1251.3675              1258.4225
 Red. masses --      1.8192                 1.2386                 1.4690
 Frc consts  --      1.5835                 1.1428                 1.3707
 IR Inten    --     10.4747                17.7914                 9.6949

                     43                     44                     45
                      A                      A                      A
 Frequencies --   1264.5831              1269.3361              1294.1138
 Red. masses --      1.2328                 1.2485                 1.4922
 Frc consts  --      1.1615                 1.1852                 1.4724
 IR Inten    --      0.4071                 0.5318                 3.0276

                     46                     47                     48
                      A                      A                      A
 Frequencies --   1304.1646              1314.8275              1322.5295
 Red. masses --      1.4298                 1.6968                 1.3187
 Frc consts  --      1.4328                 1.7283                 1.3589
 IR Inten    --      0.2059               210.6219                 1.9635

                     49                     50                     51
                      A                      A                      A
 Frequencies --   1330.1867              1382.2845              1389.8020
 Red. masses --      1.2083                 1.2952                 1.4853
 Frc consts  --      1.2597                 1.4581                 1.6903
 IR Inten    --      2.9721                 1.2175                 9.5177

                     52                     53                     54
                      A                      A                      A
 Frequencies --   1416.0477              1476.7599              1487.5938
 Red. masses --      1.7912                 1.1911                 1.1912
 Frc consts  --      2.1162                 1.5304                 1.5531
 IR Inten    --     73.8520                 3.2275                 4.8065

                     55                     56                     57
                      A                      A                      A
 Frequencies --   1502.3770              1506.0743              1517.4936
 Red. masses --      1.4414                 1.0936                 1.0901
 Frc consts  --      1.9169                 1.4615                 1.4790
 IR Inten    --     75.3501                 1.2239                 4.2078

                     58                     59                     60
                      A                      A                      A
 Frequencies --   1531.6344              1533.0821              1542.8817
 Red. masses --      1.2046                 1.0968                 1.1722
 Frc consts  --      1.6650                 1.5188                 1.6440
 IR Inten    --     17.5652                 1.2807                 7.4555

                     61                     62                     63
                      A                      A                      A
 Frequencies --   1737.5013              1781.7002              2999.8138
 Red. masses --      4.5542                 8.4110                 1.0560
 Frc consts  --      8.1005                15.7315                 5.5987
 IR Inten    --      8.7974               357.6673                35.4288

                     64                     65                     66
                      A                      A                      A
 Frequencies --   3028.0924              3033.7299              3061.9978
 Red. masses --      1.0657                 1.1046                 1.0625
 Frc consts  --      5.7575                 5.9900                 5.8695
 IR Inten    --     45.4848                30.5319                33.0806

                     67                     68                     69
                      A                      A                      A
 Frequencies --   3072.0304              3081.2022              3082.7267
 Red. masses --      1.0595                 1.0966                 1.0623
 Frc consts  --      5.8910                 6.1338                 5.9478
 IR Inten    --     16.5781                17.6802                31.5892

                     70                     71                     72
                      A                      A                      A
 Frequencies --   3102.0167              3124.7594              3125.4318
 Red. masses --      1.0873                 1.1068                 1.1024
 Frc consts  --      6.1644                 6.3671                 6.3447
 IR Inten    --      6.9120                18.1093                25.8483

                     73                     74                     75
                      A                      A                      A
 Frequencies --   3141.9953              3154.2502              3165.5016
 Red. masses --      1.1073                 1.0610                 1.0894
 Frc consts  --      6.4404                 6.2193                 6.4319
 IR Inten    --     60.5248                15.9749                 9.9020

                     76                     77                     78
                      A                      A                      A
 Frequencies --   3237.0839              3484.5114              3565.6698
 Red. masses --      1.1159                 1.0727                 1.0754
 Frc consts  --      6.8892                 7.6741                 8.0556
 IR Inten    --     23.2238                 2.7893                 9.9100

 - Thermochemistry -
 -------------------
 Temperature   298.150 Kelvin.  Pressure   1.00000 Atm.
 Atom     1 has atomic number  6 and mass  12.00000

 Molecular mass:   168.12626 amu.
 Principal axes and moments of inertia in atomic units:
                           1         2         3
     Eigenvalues --   639.981665527.128695707.91596
           X            1.00000  -0.00259   0.00135
           Y            0.00266   0.99885  -0.04777
           Z           -0.00122   0.04777   0.99886
 This molecule is an asymmetric top.
 Rotational symmetry number  1.
 Warning -- assumption of classical behavior for rotation
           may cause significant error
 Rotational temperatures (Kelvin)      0.13534     0.01567     0.01517
 Rotational constants (GHZ):           2.81999     0.32652     0.31618
 Zero-point vibrational energy     648179.8 (Joules/Mol)
                                  154.91870 (Kcal/Mol)
 Warning -- explicit consideration of  16 degrees of freedom as
           vibrations may cause significant error
 Vibrational temperatures:     28.28    48.75    69.47   118.43   128.72
          (Kelvin)            154.25   204.48   273.58   374.60   412.92
                              454.52   580.08   604.07   636.44   705.98
                              736.05   896.92   934.02   959.05   988.26
                             1108.44  1148.28  1188.29  1253.69  1315.50
                             1338.89  1345.92  1364.96  1376.01  1397.60
                             1427.87  1440.04  1493.96  1522.08  1596.06
                             1613.05  1680.81  1712.10  1734.37  1748.79
                             1800.44  1810.59  1819.45  1826.29  1861.94
                             1876.40  1891.74  1902.83  1913.84  1988.80
                             1999.62  2037.38  2124.73  2140.32  2161.59
                             2166.91  2183.33  2203.68  2205.76  2219.86
                             2499.88  2563.47  4316.06  4356.75  4364.86
                             4405.53  4419.97  4433.16  4435.36  4463.11
                             4495.83  4496.80  4520.63  4538.26  4554.45
                             4657.44  5013.43  5130.20

 Zero-point correction=                           0.246879 (Hartree/Particle)
 Thermal correction to Energy=                    0.259942
 Thermal correction to Enthalpy=                  0.260886
 Thermal correction to Gibbs Free Energy=         0.204792
 Sum of electronic and zero-point Energies=           -537.064954
 Sum of electronic and thermal Energies=              -537.051891
 Sum of electronic and thermal Enthalpies=            -537.050946
 Sum of electronic and thermal Free Energies=         -537.107041

                     E (Thermal)             CV                S
                      KCal/Mol        Cal/Mol-Kelvin    Cal/Mol-Kelvin
 Total                  163.116             47.344            118.061
 Electronic               0.000              0.000              0.000
 Translational            0.889              2.981             41.267
 Rotational               0.889              2.981             31.380
 Vibrational            161.339             41.382             45.415
 Vibration     1          0.593              1.986              6.668
 Vibration     2          0.594              1.983              5.588
 Vibration     3          0.595              1.978              4.887
 Vibration     4          0.600              1.961              3.835
 Vibration     5          0.602              1.957              3.672
 Vibration     6          0.606              1.943              3.319
 Vibration     7          0.616              1.911              2.775
 Vibration     8          0.633              1.853              2.226
 Vibration     9          0.668              1.745              1.659
 Vibration    10          0.684              1.698              1.492
 Vibration    11          0.703              1.643              1.331
 Vibration    12          0.769              1.463              0.951
 Vibration    13          0.783              1.427              0.892
 Vibration    14          0.802              1.378              0.819
 Vibration    15          0.846              1.271              0.682
 Vibration    16          0.867              1.224              0.630

 Optimization completed.
    -- Stationary point found.
 Normal termination of Gaussian 16 at Wed Dec  9 16:54:44 2020.

 ----------------------------------------------------------------------
 # B3LYP/6-311++G(d,p) empiricaldispersion=gd3bj scf=xqc pop=npa geom=c
 heck
 ----------------------------------------------------------------------

 --------------------------------------
 CID_79277806_JID_2024_Energie_neutraal
 --------------------------------------
 Structure from the checkpoint file:  "JID_2024.chk"
 Charge =  0 Multiplicity = 1

 SCF Done:  E(RB3LYP) =  -537.473340304     A.U. after   14 cycles
 Normal termination of Gaussian 16 at Wed Dec  9 16:56:57 2020.

 ----------------------------------------------------------------------
 # B3LYP/6-311++G(d,p) empiricaldispersion=gd3bj scf=xqc pop=npa geom=c
 heck
 ----------------------------------------------------------------------

 ------------------------------------
 CID_79277806_JID_2024_Energie_kation
 ------------------------------------
 Structure from the checkpoint file:  "JID_2024.chk"
 Charge =  1 Multiplicity = 2

 SCF Done:  E(UB3LYP) =  -537.165027961     A.U. after   25 cycles
 Normal termination of Gaussian 16 at Wed Dec  9 17:03:46 2020.
 Gaussian 16:  ES64L-G16RevA.03 25-Dec-2016

 ----------------------------------------------------------------------
 # B3LYP/6-311++G(d,p) empiricaldispersion=gd3bj scf=xqc pop=npa geom=c
 heck
 ----------------------------------------------------------------------

 -----------------------------------
 CID_79277806_JID_2024_Energie_anion
 -----------------------------------
 Structure from the checkpoint file:  "JID_2024.chk"
 Charge = -1 Multiplicity = 2

                         Standard orientation:
 ---------------------------------------------------------------------
 Center     Atomic      Atomic             Coordinates (Angstroms)
 Number     Number       Type             X           Y           Z
 ---------------------------------------------------------------------
      1          6           0       -5.103938    0.374381   -0.349811
      2          6           0       -4.204579   -0.605133   -0.264869
      3          6           0       -2.743414   -0.439576   -0.567738
      4          7           0       -1.939999   -0.848370    0.593962
      5          6           0       -0.513408   -0.747051    0.357273
      6          6           0        0.005279    0.702037    0.342815
      7          8           0       -0.707391    1.633695    0.700105
      8          7           0        1.296376    0.903680   -0.065802
      9          6           0        2.313281   -0.097309   -0.289274
     10          6           0        3.564768    0.332812   -1.090675
     11          6           0        4.410987   -0.585107   -0.168293
     12          6           0        3.257179   -0.540441    0.867906
     13          1           0       -4.820445    1.379880   -0.653823
     14          1           0       -6.154073    0.211536   -0.122514
     15          1           0       -4.504454   -1.601069    0.060309
     16          1           0       -2.465140   -1.103860   -1.400133
     17          1           0       -2.541141    0.593892   -0.889636
     18          1           0       -2.169670   -0.210577    1.356109
     19          1           0        0.030724   -1.291753    1.142591
     20          1           0       -0.274571   -1.249449   -0.587778
     21          1           0        1.610866    1.860103    0.059363
     22          1           0        1.853519   -0.972668   -0.754758
     23          1           0        3.568053    0.149561   -2.168811
     24          1           0        3.793287    1.390568   -0.913250
     25          1           0        5.389014   -0.214880    0.148685
     26          1           0        4.536518   -1.584541   -0.596221
     27          1           0        3.390168    0.275048    1.586837
     28          1           0        3.004902   -1.456200    1.411064
 ---------------------------------------------------------------------

 SCF Done:  E(UB3LYP) =  -537.459725346     A.U. after   32 cycles

 The electronic state is 2-A.
 Alpha  occ. eigenvalues --  -18.99401 -14.23796 -14.20676 -10.17463 -10.11179
 Alpha  occ. eigenvalues --  -10.10619 -10.10305 -10.09212 -10.08444 -10.06795
 Alpha  occ. eigenvalues --  -10.06519 -10.06394  -0.94460  -0.83043  -0.81690
 Alpha  occ. eigenvalues --   -0.73564  -0.69916  -0.62320  -0.57194  -0.56159
 Alpha  occ. eigenvalues --   -0.55781  -0.48039  -0.47646  -0.46632  -0.42424
 Alpha  occ. eigenvalues --   -0.40509  -0.39151  -0.37566  -0.36851  -0.35447
 Alpha  occ. eigenvalues --   -0.34413  -0.32511  -0.32058  -0.29229  -0.28980
 Alpha  occ. eigenvalues --   -0.28811  -0.27895  -0.26001  -0.25681  -0.23971
 Alpha  occ. eigenvalues --   -0.22208  -0.21739  -0.18650  -0.17056  -0.15421
 Alpha  occ. eigenvalues --   -0.14031   0.04654
 Alpha virt. eigenvalues --    0.06442   0.07187   0.07692   0.07884   0.08335
 Alpha virt. eigenvalues --    0.08934   0.09377   0.10256   0.10850   0.11088
 Alpha virt. eigenvalues --    0.11359   0.11581   0.12227   0.12779   0.13556

  Beta  occ. eigenvalues --  -18.99399 -14.23785 -14.20670 -10.17460 -10.11162
  Beta  occ. eigenvalues --  -10.10592 -10.10295 -10.09202 -10.08436 -10.06757
  Beta  occ. eigenvalues --  -10.06487 -10.06355  -0.94451  -0.83018  -0.81678
  Beta  occ. eigenvalues --   -0.73527  -0.69892  -0.62280  -0.57145  -0.56073
  Beta  occ. eigenvalues --   -0.55723  -0.48000  -0.47618  -0.46522  -0.42398
  Beta  occ. eigenvalues --   -0.40461  -0.39087  -0.37521  -0.36819  -0.35400
  Beta  occ. eigenvalues --   -0.34398  -0.32489  -0.32026  -0.29187  -0.28938
  Beta  occ. eigenvalues --   -0.28783  -0.27857  -0.25976  -0.25656  -0.23904
  Beta  occ. eigenvalues --   -0.22151  -0.21676  -0.18608  -0.17044  -0.15400
  Beta  occ. eigenvalues --   -0.14012
  Beta virt. eigenvalues --    0.06441   0.07395   0.07650   0.08348   0.08509
  Beta virt. eigenvalues --    0.08864   0.09015   0.09883   0.10446   0.11172
  Beta virt. eigenvalues --    0.11485   0.11868   0.12084   0.12417   0.13039

 Mulliken charges and spin densities:
               1          2
     1  C   -0.334583  -0.122952
     2  C   -0.173374   0.465935
     3  C    0.138475  -0.709236
     4  N   -0.132258   0.159305
     5  C    0.691802  -1.248036
     6  C   -0.144863   0.207524
     7  O   -0.355390   0.004246
     8  N    0.037346  -0.059557
     9  C   -2.000208   1.928720
    10  C    1.441737  -1.797402
    11  C   -0.189727  -0.013572
    12  C    1.807901  -2.184904
    13  H    0.065542   0.058622
    14  H    0.072467   0.047158
    15  H    0.033699   0.123167
    16  H   -0.100007   0.234354
    17  H    0.135147  -0.019567
    18  H    0.203426   0.024203
    19  H   -0.071022   0.275011
    20  H   -0.633921   0.843444
    21  H    0.138990   0.136224
    22  H    0.200202  -0.035633
    23  H   -0.544726   0.707890
    24  H   -0.163713   0.272272
    25  H   -0.324299   0.476020
    26  H   -0.424743   0.570683
    27  H   -0.208297   0.354914
    28  H   -0.165604   0.301169
 Sum of Mulliken charges =  -1.00000   1.00000

 Dipole moment (field-independent basis, Debye):
    X=             -7.3922    Y=              2.4822    Z=              1.6267  Tot=              7.9657
 Quadrupole moment (field-independent basis, Debye-Ang):
   XX=           -159.4849   YY=           -112.4661   ZZ=           -109.1070
   XY=              5.5480   XZ=              5.1296   YZ=             -4.0068

 Summary of Natural Population Analysis:

                                       Natural Population
                Natural  -----------------------------------------------
    Atom  No    Charge         Core      Valence    Rydberg      Total
 -----------------------------------------------------------------------
      C    1   -0.19584      0.99957     2.18940    0.00687     3.19584
      C    2   -0.07953      0.99957     2.07027    0.00969     3.07953
      C    3   -0.10926      0.99960     2.09788    0.01178     3.10926
      N    4   -0.33463      0.99975     2.82279    0.01209     3.83463
      C    5   -0.13417      0.99959     2.12376    0.01082     3.13417
      C    6    0.33994      0.99969     1.63858    0.02180     2.66006
      O    7   -0.33363      0.99988     3.32781    0.00595     4.33363
      N    8   -0.31409      0.99965     2.80447    0.00997     3.81409
      C    9   -0.01780      0.99957     2.00431    0.01392     3.01780
      C   10   -0.18480      0.99964     2.17592    0.00924     3.18480
      C   11   -0.19041      0.99965     2.18278    0.00798     3.19041
      C   12   -0.18968      0.99963     2.18141    0.00864     3.18968
      H   13    0.09177      0.00000     0.40707    0.00116     0.40823
      H   14    0.09061      0.00000     0.40837    0.00103     0.40939
      H   15    0.09398      0.00000     0.40475    0.00127     0.40602
      H   16    0.09763      0.00000     0.40078    0.00159     0.40237
      H   17    0.08928      0.00000     0.40830    0.00242     0.41072
      H   18    0.17773      0.00000     0.31931    0.00296     0.32227
      H   19    0.10824      0.00000     0.39015    0.00161     0.39176
      H   20    0.10590      0.00000     0.39187    0.00223     0.39410
      H   21    0.19176      0.00000     0.30529    0.00295     0.30824
      H   22    0.10306      0.00000     0.39365    0.00329     0.39694
      H   23    0.10309      0.00000     0.39472    0.00219     0.39691
      H   24    0.09482      0.00000     0.40327    0.00191     0.40518
      H   25    0.09848      0.00000     0.39978    0.00174     0.40152
      H   26    0.10033      0.00000     0.39704    0.00263     0.39967
      H   27    0.09673      0.00000     0.40168    0.00160     0.40327
      H   28    0.10048      0.00000     0.39786    0.00166     0.39952
 =======================================================================
   * Total *   -0.00000     11.99578    33.84327    0.16095    46.00000

 Normal termination of Gaussian 16 at Wed Dec  9 17:13:51 2020.
