 Gaussian 16, Revision A.03,

 -----------------------------------------------------------
 # opt freq B3LYP/6-31G(d) empiricaldispersion=gd3bj scf=xqc
 -----------------------------------------------------------

 ------------------------------
 CID_82413178_JID_2257_neutraal
 ------------------------------
 Symbolic Z-matrix:
 Charge =  0 Multiplicity = 1

 SCF Done:  E(RB3LYP) =  -537.336840840     A.U. after   14 cycles
 SCF Done:  E(RB3LYP) =  -537.341017567     A.U. after   12 cycles
 SCF Done:  E(RB3LYP) =  -537.341102046     A.U. after   12 cycles
 SCF Done:  E(RB3LYP) =  -537.341350797     A.U. after   11 cycles
 SCF Done:  E(RB3LYP) =  -537.341526163     A.U. after   11 cycles
 SCF Done:  E(RB3LYP) =  -537.341551286     A.U. after   10 cycles
 SCF Done:  E(RB3LYP) =  -537.341567335     A.U. after   10 cycles
 SCF Done:  E(RB3LYP) =  -537.341573482     A.U. after   10 cycles
 SCF Done:  E(RB3LYP) =  -537.341579418     A.U. after   10 cycles
 SCF Done:  E(RB3LYP) =  -537.341581373     A.U. after    9 cycles
 SCF Done:  E(RB3LYP) =  -537.341581777     A.U. after    8 cycles
 SCF Done:  E(RB3LYP) =  -537.341582001     A.U. after    8 cycles
 SCF Done:  E(RB3LYP) =  -537.341581995     A.U. after    7 cycles
 Optimization completed.
    -- Stationary point found.
 Normal termination of Gaussian 16 at Wed Dec  9 16:59:40 2020.

 --------------------------------------------------------------------
 #N Geom=AllCheck Guess=TCheck SCRF=Check GenChk RB3LYP/6-31G(d) Freq
 --------------------------------------------------------------------

 Structure from the checkpoint file:  "JID_2257.chk"
 ------------------------------
 CID_82413178_JID_2257_neutraal
 ------------------------------
 Charge =  0 Multiplicity = 1

 SCF Done:  E(RB3LYP) =  -537.341581995     A.U. after    1 cycles

  Exact polarizability: 115.895   0.395 101.978  -1.626  -0.598  90.042
 Approx polarizability: 146.254   0.533 162.291  -1.485   2.201 137.579

                      1                      2                      3
                      A                      A                      A
 Frequencies --     37.7946                59.7477               101.3993
 Red. masses --      2.7673                 4.9150                 3.1778
 Frc consts  --      0.0023                 0.0103                 0.0193
 IR Inten    --      0.2585                 1.2420                 1.3279

                      4                      5                      6
                      A                      A                      A
 Frequencies --    183.2433               195.5868               236.0447
 Red. masses --      2.7001                 3.6819                 1.0968
 Frc consts  --      0.0534                 0.0830                 0.0360
 IR Inten    --      1.5593                 1.0170                 0.2070

                      7                      8                      9
                      A                      A                      A
 Frequencies --    280.8603               328.7272               351.5323
 Red. masses --      2.1390                 2.0648                 3.8136
 Frc consts  --      0.0994                 0.1315                 0.2777
 IR Inten    --      5.1726                 1.0776                 8.1524

                     10                     11                     12
                      A                      A                      A
 Frequencies --    366.5479               411.5777               422.1549
 Red. masses --      2.4423                 2.0803                 2.3036
 Frc consts  --      0.1933                 0.2076                 0.2419
 IR Inten    --      4.7204                 2.2407                 4.4660

                     13                     14                     15
                      A                      A                      A
 Frequencies --    473.7859               507.1555               565.9712
 Red. masses --      2.5352                 3.7560                 3.9601
 Frc consts  --      0.3353                 0.5692                 0.7474
 IR Inten    --      0.8456                 2.5959                17.9694

                     16                     17                     18
                      A                      A                      A
 Frequencies --    581.9458               623.4971               707.6466
 Red. masses --      2.5449                 2.1446                 3.2252
 Frc consts  --      0.5078                 0.4912                 0.9516
 IR Inten    --      0.7015                 1.7100                 8.4686

                     19                     20                     21
                      A                      A                      A
 Frequencies --    739.3031               791.7255               823.2736
 Red. masses --      2.7214                 2.7606                 2.8289
 Frc consts  --      0.8764                 1.0195                 1.1297
 IR Inten    --      6.4402                 7.0020                10.6640

                     22                     23                     24
                      A                      A                      A
 Frequencies --    867.0438               879.8456               904.9812
 Red. masses --      1.6889                 1.8422                 2.4230
 Frc consts  --      0.7480                 0.8403                 1.1692
 IR Inten    --    158.5528                 2.5076                 4.4304

                     25                     26                     27
                      A                      A                      A
 Frequencies --    934.8683               959.9873               979.4957
 Red. masses --      2.8078                 2.6082                 2.0893
 Frc consts  --      1.4458                 1.4162                 1.1810
 IR Inten    --      4.0806                 9.6734                 7.3579

                     28                     29                     30
                      A                      A                      A
 Frequencies --    989.3263               997.1696              1056.9990
 Red. masses --      1.8195                 2.3507                 2.0708
 Frc consts  --      1.0493                 1.3772                 1.3631
 IR Inten    --      1.1227                 4.1517                27.0907

                     31                     32                     33
                      A                      A                      A
 Frequencies --   1070.4834              1076.8052              1109.7921
 Red. masses --      2.1948                 2.1900                 2.0402
 Frc consts  --      1.4818                 1.4961                 1.4805
 IR Inten    --     24.8622                13.8848                 8.7221

                     34                     35                     36
                      A                      A                      A
 Frequencies --   1110.5903              1119.1571              1172.0254
 Red. masses --      2.0243                 2.4128                 1.4201
 Frc consts  --      1.4711                 1.7806                 1.1494
 IR Inten    --     18.3188                 6.4562                 3.1458

                     37                     38                     39
                      A                      A                      A
 Frequencies --   1172.4687              1193.3700              1228.2109
 Red. masses --      2.2279                 1.9844                 1.6044
 Frc consts  --      1.8045                 1.6651                 1.4260
 IR Inten    --     15.1142                25.6173                11.0100

                     40                     41                     42
                      A                      A                      A
 Frequencies --   1240.8012              1250.7950              1310.0934
 Red. masses --      1.5224                 1.3856                 1.8840
 Frc consts  --      1.3810                 1.2772                 1.9052
 IR Inten    --      3.9825                12.9651                 0.3038

                     43                     44                     45
                      A                      A                      A
 Frequencies --   1321.3159              1331.3684              1347.7860
 Red. masses --      1.4009                 1.5556                 1.3306
 Frc consts  --      1.4410                 1.6246                 1.4240
 IR Inten    --      2.0100                 7.5992                 0.8569

                     46                     47                     48
                      A                      A                      A
 Frequencies --   1353.8472              1365.0601              1373.5903
 Red. masses --      1.3862                 1.4258                 1.5926
 Frc consts  --      1.4969                 1.5653                 1.7704
 IR Inten    --      4.5236                 1.5308                 3.2153

                     49                     50                     51
                      A                      A                      A
 Frequencies --   1393.2460              1398.4889              1410.5300
 Red. masses --      1.2965                 1.4238                 1.2874
 Frc consts  --      1.4827                 1.6407                 1.5092
 IR Inten    --     22.2192                14.5337                 1.8558

                     52                     53                     54
                      A                      A                      A
 Frequencies --   1478.4487              1487.3348              1491.4729
 Red. masses --      1.1205                 1.1450                 1.1089
 Frc consts  --      1.4430                 1.4924                 1.4534
 IR Inten    --      2.6935                 5.0275                10.9847

                     55                     56                     57
                      A                      A                      A
 Frequencies --   1508.2879              1509.9835              1516.2082
 Red. masses --      1.0897                 1.0852                 1.0757
 Frc consts  --      1.4605                 1.4578                 1.4570
 IR Inten    --      1.6999                 7.3326                 8.5694

                     58                     59                     60
                      A                      A                      A
 Frequencies --   1519.0909              1526.7774              1533.7268
 Red. masses --      1.0790                 1.0824                 1.0998
 Frc consts  --      1.4670                 1.4866                 1.5243
 IR Inten    --      4.4144                 7.1208                 2.1514

                     61                     62                     63
                      A                      A                      A
 Frequencies --   1544.9403              1805.1320              2965.9536
 Red. masses --      1.0545                11.7207                 1.0590
 Frc consts  --      1.4829                22.5020                 5.4888
 IR Inten    --      2.6538               137.4949                57.4390

                     64                     65                     66
                      A                      A                      A
 Frequencies --   3017.2394              3026.5856              3035.8777
 Red. masses --      1.0683                 1.0651                 1.0657
 Frc consts  --      5.7300                 5.7483                 5.7871
 IR Inten    --     17.4909                24.2614                31.3647

                     67                     68                     69
                      A                      A                      A
 Frequencies --   3048.5589              3054.2247              3062.4344
 Red. masses --      1.0660                 1.0714                 1.0634
 Frc consts  --      5.8369                 5.8884                 5.8761
 IR Inten    --     39.3692                13.8301                46.7981

                     70                     71                     72
                      A                      A                      A
 Frequencies --   3070.8180              3081.6494              3090.9234
 Red. masses --      1.0947                 1.0744                 1.1008
 Frc consts  --      6.0823                 6.0117                 6.1963
 IR Inten    --     36.1009                37.2925                52.1478

                     73                     74                     75
                      A                      A                      A
 Frequencies --   3116.2017              3120.6885              3121.6164
 Red. masses --      1.1000                 1.0965                 1.1009
 Frc consts  --      6.2937                 6.2916                 6.3206
 IR Inten    --     25.2608                13.3213                30.8084

                     76                     77                     78
                      A                      A                      A
 Frequencies --   3126.6230              3138.7633              3455.7184
 Red. masses --      1.1031                 1.0974                 1.0741
 Frc consts  --      6.3536                 6.3699                 7.5573
 IR Inten    --     33.6300                 9.0469                 2.2824

 - Thermochemistry -
 -------------------
 Temperature   298.150 Kelvin.  Pressure   1.00000 Atm.
 Atom     1 has atomic number  6 and mass  12.00000

 Molecular mass:   168.12626 amu.
 Principal axes and moments of inertia in atomic units:
                           1         2         3
     Eigenvalues --  1029.154582536.934222869.96087
           X            1.00000  -0.00150   0.00108
           Y            0.00151   0.99996  -0.00920
           Z           -0.00106   0.00921   0.99996
 This molecule is an asymmetric top.
 Rotational symmetry number  1.
 Warning -- assumption of classical behavior for rotation
           may cause significant error
 Rotational temperatures (Kelvin)      0.08416     0.03414     0.03018
 Rotational constants (GHZ):           1.75362     0.71139     0.62884
 Zero-point vibrational energy     658929.1 (Joules/Mol)
                                  157.48783 (Kcal/Mol)
 Warning -- explicit consideration of  16 degrees of freedom as
           vibrations may cause significant error
 Vibrational temperatures:     54.38    85.96   145.89   263.65   281.41
          (Kelvin)            339.62   404.10   472.97   505.78   527.38
                              592.17   607.39   681.67   729.68   814.31
                              837.29   897.07  1018.15  1063.69  1139.12
                             1184.51  1247.48  1265.90  1302.07  1345.07
                             1381.21  1409.28  1423.42  1434.70  1520.79
                             1540.19  1549.28  1596.74  1597.89  1610.22
                             1686.28  1686.92  1716.99  1767.12  1785.24
                             1799.61  1884.93  1901.08  1915.54  1939.16
                             1947.88  1964.02  1976.29  2004.57  2012.11
                             2029.44  2127.16  2139.94  2145.90  2170.09
                             2172.53  2181.49  2185.63  2196.69  2206.69
                             2222.82  2597.18  4267.35  4341.13  4354.58
                             4367.95  4386.20  4394.35  4406.16  4418.22
                             4433.81  4447.15  4483.52  4489.97  4491.31
                             4498.51  4515.98  4972.01

 Zero-point correction=                           0.250973 (Hartree/Particle)
 Thermal correction to Energy=                    0.262083
 Thermal correction to Enthalpy=                  0.263027
 Thermal correction to Gibbs Free Energy=         0.213732
 Sum of electronic and zero-point Energies=           -537.090609
 Sum of electronic and thermal Energies=              -537.079499
 Sum of electronic and thermal Enthalpies=            -537.078555
 Sum of electronic and thermal Free Energies=         -537.127850

                     E (Thermal)             CV                S
                      KCal/Mol        Cal/Mol-Kelvin    Cal/Mol-Kelvin
 Total                  164.459             43.723            103.750
 Electronic               0.000              0.000              0.000
 Translational            0.889              2.981             41.267
 Rotational               0.889              2.981             30.395
 Vibrational            162.682             37.762             32.089
 Vibration     1          0.594              1.982              5.371
 Vibration     2          0.597              1.973              4.466
 Vibration     3          0.604              1.948              3.427
 Vibration     4          0.631              1.863              2.295
 Vibration     5          0.636              1.846              2.174
 Vibration     6          0.655              1.786              1.832
 Vibration     7          0.681              1.709              1.528
 Vibration     8          0.712              1.618              1.266
 Vibration     9          0.728              1.572              1.159
 Vibration    10          0.739              1.541              1.094
 Vibration    11          0.776              1.445              0.921
 Vibration    12          0.784              1.422              0.885
 Vibration    13          0.831              1.308              0.727
 Vibration    14          0.862              1.234              0.640
 Vibration    15          0.922              1.105              0.512
 Vibration    16          0.939              1.070              0.482

 Optimization completed.
    -- Stationary point found.
 Normal termination of Gaussian 16 at Wed Dec  9 17:07:51 2020.

 ----------------------------------------------------------------------
 # B3LYP/6-311++G(d,p) empiricaldispersion=gd3bj scf=xqc pop=npa geom=c
 heck
 ----------------------------------------------------------------------

 --------------------------------------
 CID_82413178_JID_2257_Energie_neutraal
 --------------------------------------
 Structure from the checkpoint file:  "JID_2257.chk"
 Charge =  0 Multiplicity = 1

 SCF Done:  E(RB3LYP) =  -537.494160310     A.U. after   14 cycles
 Normal termination of Gaussian 16 at Wed Dec  9 17:11:57 2020.

 ----------------------------------------------------------------------
 # B3LYP/6-311++G(d,p) empiricaldispersion=gd3bj scf=xqc pop=npa geom=c
 heck
 ----------------------------------------------------------------------

 ------------------------------------
 CID_82413178_JID_2257_Energie_kation
 ------------------------------------
 Structure from the checkpoint file:  "JID_2257.chk"
 Charge =  1 Multiplicity = 2

 SCF Done:  E(UB3LYP) =  -537.206856096     A.U. after   23 cycles
 Normal termination of Gaussian 16 at Wed Dec  9 17:20:24 2020.
 Gaussian 16:  ES64L-G16RevA.03 25-Dec-2016

 ----------------------------------------------------------------------
 # B3LYP/6-311++G(d,p) empiricaldispersion=gd3bj scf=xqc pop=npa geom=c
 heck
 ----------------------------------------------------------------------

 -----------------------------------
 CID_82413178_JID_2257_Energie_anion
 -----------------------------------
 Structure from the checkpoint file:  "JID_2257.chk"
 Charge = -1 Multiplicity = 2

                         Standard orientation:
 ---------------------------------------------------------------------
 Center     Atomic      Atomic             Coordinates (Angstroms)
 Number     Number       Type             X           Y           Z
 ---------------------------------------------------------------------
      1          6           0        3.061293    0.145431    0.790040
      2          7           0        2.365606   -0.336791   -0.398966
      3          6           0        1.543282   -1.523537   -0.154611
      4          6           0        0.313588   -1.251210    0.723573
      5          6           0       -0.559991   -0.092473    0.190758
      6          6           0       -1.655622    0.328490    1.201911
      7          6           0       -2.966723    0.290047    0.391805
      8          7           0       -2.782318   -0.749571   -0.633202
      9          6           0       -1.402854   -0.549914   -1.075208
     10          6           0        0.310130    1.085826   -0.244500
     11          8           0        0.008108    2.246617   -0.035757
     12          6           0        1.566834    0.710517   -1.035436
     13          1           0        3.734882    0.959648    0.503580
     14          1           0        3.666192   -0.667981    1.204223
     15          1           0        2.403159    0.524749    1.592364
     16          1           0        1.227586   -1.910818   -1.132946
     17          1           0        2.173767   -2.293902    0.303732
     18          1           0        0.638118   -1.013257    1.744223
     19          1           0       -0.303801   -2.157481    0.802810
     20          1           0       -1.697605   -0.399164    2.021515
     21          1           0       -1.447047    1.313386    1.625341
     22          1           0       -3.119131    1.247899   -0.120186
     23          1           0       -3.855551    0.084540    0.995088
     24          1           0       -2.843223   -1.659855   -0.175006
     25          1           0       -1.399551    0.241795   -1.834756
     26          1           0       -1.005795   -1.456944   -1.539935
     27          1           0        2.169149    1.611235   -1.182638
     28          1           0        1.251364    0.348690   -2.026168
 ---------------------------------------------------------------------

 SCF Done:  E(UB3LYP) =  -537.483619860     A.U. after   32 cycles

 The electronic state is 2-A.
 Alpha  occ. eigenvalues --  -18.99801 -14.20434 -14.19286 -10.13546 -10.09246
 Alpha  occ. eigenvalues --  -10.08967 -10.08568 -10.08536 -10.08363 -10.07769
 Alpha  occ. eigenvalues --  -10.06030 -10.05436  -0.93136  -0.82753  -0.81558
 Alpha  occ. eigenvalues --   -0.69233  -0.63609  -0.63056  -0.60560  -0.55399
 Alpha  occ. eigenvalues --   -0.50706  -0.49499  -0.47624  -0.41218  -0.40453
 Alpha  occ. eigenvalues --   -0.38157  -0.37079  -0.36443  -0.33976  -0.33091
 Alpha  occ. eigenvalues --   -0.32763  -0.32150  -0.29342  -0.29152  -0.28304
 Alpha  occ. eigenvalues --   -0.27444  -0.26654  -0.25354  -0.25136  -0.24334
 Alpha  occ. eigenvalues --   -0.23266  -0.22489  -0.21213  -0.16122  -0.12932
 Alpha  occ. eigenvalues --   -0.10142   0.04589
 Alpha virt. eigenvalues --    0.07268   0.07517   0.08328   0.08533   0.09812
 Alpha virt. eigenvalues --    0.09965   0.10601   0.10910   0.11311   0.12688
 Alpha virt. eigenvalues --    0.12990   0.13462   0.13716   0.14000   0.14594

  Beta  occ. eigenvalues --  -18.99685 -14.20430 -14.19261 -10.13420 -10.09250
  Beta  occ. eigenvalues --  -10.08946 -10.08537 -10.08501 -10.08349 -10.07778
  Beta  occ. eigenvalues --  -10.05994 -10.05424  -0.92910  -0.82721  -0.81503
  Beta  occ. eigenvalues --   -0.69167  -0.63518  -0.63005  -0.60510  -0.55320
  Beta  occ. eigenvalues --   -0.50607  -0.49366  -0.47538  -0.41104  -0.40396
  Beta  occ. eigenvalues --   -0.38103  -0.37008  -0.36334  -0.33862  -0.33008
  Beta  occ. eigenvalues --   -0.32684  -0.32071  -0.29294  -0.29062  -0.28138
  Beta  occ. eigenvalues --   -0.27370  -0.26579  -0.25301  -0.24985  -0.24128
  Beta  occ. eigenvalues --   -0.23217  -0.22430  -0.21118  -0.16041  -0.12885
  Beta  occ. eigenvalues --   -0.10081
  Beta virt. eigenvalues --    0.07151   0.08061   0.08507   0.09049   0.09315
  Beta virt. eigenvalues --    0.10247   0.10361   0.10835   0.11316   0.11650
  Beta virt. eigenvalues --    0.13027   0.13243   0.13916   0.13985   0.14307

 Mulliken charges and spin densities:
               1          2
     1  C    0.468909  -0.809942
     2  N   -0.148893   0.297702
     3  C    1.299234  -1.977223
     4  C   -0.249468   0.028884
     5  C    0.222644   0.732924
     6  C   -0.201334  -0.011302
     7  C    0.124727  -0.597296
     8  N   -0.169787   0.163308
     9  C    0.920359  -1.788858
    10  C   -1.502149   1.277837
    11  O   -0.274856   0.040139
    12  C    0.459596  -1.115069
    13  H    0.029672   0.098116
    14  H   -0.346354   0.511322
    15  H    0.008079   0.118472
    16  H   -0.070587   0.243117
    17  H   -0.463334   0.649091
    18  H    0.021008   0.146521
    19  H   -0.869355   1.065000
    20  H   -0.256277   0.404191
    21  H    0.165747   0.028341
    22  H    0.163675  -0.008239
    23  H   -0.282770   0.465566
    24  H   -0.105219   0.344172
    25  H    0.163563   0.036019
    26  H   -0.128054   0.309224
    27  H    0.125327   0.067119
    28  H   -0.104103   0.280863
 Sum of Mulliken charges =  -1.00000   1.00000

 Dipole moment (field-independent basis, Debye):
    X=              0.7984    Y=              4.4661    Z=             -0.9033  Tot=              4.6259
 Quadrupole moment (field-independent basis, Debye-Ang):
   XX=           -128.7202   YY=           -121.5573   ZZ=           -104.5061
   XY=             -1.1278   XZ=              0.0235   YZ=              2.9999

 Summary of Natural Population Analysis:

                                       Natural Population
                Natural  -----------------------------------------------
    Atom  No    Charge         Core      Valence    Rydberg      Total
 -----------------------------------------------------------------------
      C    1   -0.17820      0.99963     2.17010    0.00847     3.17820
      N    2   -0.27620      0.99975     2.76166    0.01479     3.77620
      C    3   -0.08497      0.99960     2.07243    0.01294     3.08497
      C    4   -0.19783      0.99959     2.18679    0.01146     3.19783
      C    5   -0.09336      0.99951     2.07944    0.01441     3.09336
      C    6   -0.19877      0.99960     2.18926    0.00991     3.19877
      C    7   -0.09009      0.99964     2.07932    0.01114     3.09009
      N    8   -0.33295      0.99976     2.82041    0.01278     3.83295
      C    9   -0.07998      0.99959     2.06835    0.01205     3.07998
      C   10    0.31253      0.99958     1.66550    0.02239     2.68747
      O   11   -0.28687      0.99987     3.28036    0.00664     4.28687
      C   12   -0.13103      0.99956     2.11905    0.01242     3.13103
      H   13    0.09334      0.00000     0.40566    0.00100     0.40666
      H   14    0.09694      0.00000     0.40195    0.00111     0.40306
      H   15    0.08171      0.00000     0.41696    0.00133     0.41829
      H   16    0.09446      0.00000     0.40360    0.00194     0.40554
      H   17    0.10009      0.00000     0.39837    0.00154     0.39991
      H   18    0.09923      0.00000     0.39906    0.00171     0.40077
      H   19    0.10710      0.00000     0.38823    0.00467     0.39290
      H   20    0.09832      0.00000     0.40019    0.00149     0.40168
      H   21    0.11124      0.00000     0.38757    0.00120     0.38876
      H   22    0.08923      0.00000     0.40957    0.00120     0.41077
      H   23    0.09538      0.00000     0.40364    0.00098     0.40462
      H   24    0.17299      0.00000     0.32270    0.00430     0.32701
      H   25    0.08987      0.00000     0.40877    0.00136     0.41013
      H   26    0.10003      0.00000     0.39867    0.00130     0.39997
      H   27    0.10256      0.00000     0.39618    0.00127     0.39744
      H   28    0.10523      0.00000     0.39331    0.00146     0.39477
 =======================================================================
   * Total *   -0.00000     11.99568    33.82710    0.17722    46.00000

 Normal termination of Gaussian 16 at Wed Dec  9 17:31:39 2020.
