 Gaussian 16, Revision A.03,

 -----------------------------------------------------------
 # opt freq B3LYP/6-31G(d) empiricaldispersion=gd3bj scf=xqc
 -----------------------------------------------------------

 -----------------------------
 CID_150078164_JID_34_neutraal
 -----------------------------
 Symbolic Z-matrix:
 Charge =  0 Multiplicity = 1

 SCF Done:  E(RB3LYP) =  -885.405317688     A.U. after   20 cycles
 SCF Done:  E(RB3LYP) =  -885.425845354     A.U. after   17 cycles
 SCF Done:  E(RB3LYP) =  -885.429298368     A.U. after   16 cycles
 SCF Done:  E(RB3LYP) =  -885.431419305     A.U. after   15 cycles
 SCF Done:  E(RB3LYP) =  -885.431645638     A.U. after   15 cycles
 SCF Done:  E(RB3LYP) =  -885.431917292     A.U. after   15 cycles
 SCF Done:  E(RB3LYP) =  -885.432685101     A.U. after   16 cycles
 SCF Done:  E(RB3LYP) =  -885.433642067     A.U. after   16 cycles
 SCF Done:  E(RB3LYP) =  -885.434453607     A.U. after   16 cycles
 SCF Done:  E(RB3LYP) =  -885.434950545     A.U. after   14 cycles
 SCF Done:  E(RB3LYP) =  -885.436718252     A.U. after   16 cycles
 SCF Done:  E(RB3LYP) =  -885.436850807     A.U. after   16 cycles
 SCF Done:  E(RB3LYP) =  -885.436857081     A.U. after   12 cycles
 SCF Done:  E(RB3LYP) =  -885.436860278     A.U. after   12 cycles
 SCF Done:  E(RB3LYP) =  -885.436860077     A.U. after   10 cycles
 SCF Done:  E(RB3LYP) =  -885.436860727     A.U. after   11 cycles
 Optimization completed.
    -- Stationary point found.
 Normal termination of Gaussian 16 at Tue Dec  8 10:20:23 2020.

 --------------------------------------------------------------------
 #N Geom=AllCheck Guess=TCheck SCRF=Check GenChk RB3LYP/6-31G(d) Freq
 --------------------------------------------------------------------

 Structure from the checkpoint file:  "JID_34.chk"
 -----------------------------
 CID_150078164_JID_34_neutraal
 -----------------------------
 Charge =  0 Multiplicity = 1

 SCF Done:  E(RB3LYP) =  -885.436860727     A.U. after    1 cycles

  Exact polarizability: 113.640   6.334  80.256 -11.147  -1.649  62.950
 Approx polarizability: 175.401   9.622 130.962 -40.173 -15.383 127.740

                      1                      2                      3
                      A                      A                      A
 Frequencies --     27.2412                37.5781                75.7712
 Red. masses --      6.5350                 5.5809                 5.5302
 Frc consts  --      0.0029                 0.0046                 0.0187
 IR Inten    --      1.6705                 8.6918                 5.4754

                      4                      5                      6
                      A                      A                      A
 Frequencies --    106.4119               118.1014               173.5746
 Red. masses --      8.0235                 1.1948                 4.3586
 Frc consts  --      0.0535                 0.0098                 0.0774
 IR Inten    --      1.9603                 0.0419                10.8949

                      7                      8                      9
                      A                      A                      A
 Frequencies --    236.4578               241.1608               246.4901
 Red. masses --      4.1654                 5.2506                 4.0436
 Frc consts  --      0.1372                 0.1799                 0.1448
 IR Inten    --      6.3375                 7.5173                 8.4759

                     10                     11                     12
                      A                      A                      A
 Frequencies --    309.4152               382.1818               423.7845
 Red. masses --      5.6834                 4.3737                 5.2134
 Frc consts  --      0.3206                 0.3764                 0.5516
 IR Inten    --      6.2987                 3.8911                41.6725

                     13                     14                     15
                      A                      A                      A
 Frequencies --    443.8311               563.3281               569.3674
 Red. masses --      7.5709                12.0314                 7.3888
 Frc consts  --      0.8787                 2.2495                 1.4113
 IR Inten    --     15.9877                18.6105                59.3334

                     16                     17                     18
                      A                      A                      A
 Frequencies --    654.9151               777.4898               855.2949
 Red. masses --      7.0619                 4.1701                 6.1600
 Frc consts  --      1.7846                 1.4852                 2.6550
 IR Inten    --      9.6052                33.4908                11.4253

                     19                     20                     21
                      A                      A                      A
 Frequencies --    923.8983               981.6147               992.2185
 Red. masses --      2.8609                 2.8995                 5.7399
 Frc consts  --      1.4388                 1.6461                 3.3295
 IR Inten    --     37.0248                33.1599                56.7804

                     22                     23                     24
                      A                      A                      A
 Frequencies --   1051.3347              1079.2617              1145.2738
 Red. masses --      1.4738                 2.5300                 7.9693
 Frc consts  --      0.9598                 1.7363                 6.1587
 IR Inten    --     74.3723                 7.7408               143.6285

                     25                     26                     27
                      A                      A                      A
 Frequencies --   1162.0354              1202.2625              1259.9598
 Red. masses --      1.3799                 1.6540                 1.3840
 Frc consts  --      1.0978                 1.4086                 1.2945
 IR Inten    --      4.8354                25.5001                22.3108

                     28                     29                     30
                      A                      A                      A
 Frequencies --   1345.7380              1376.9678              1458.3742
 Red. masses --      3.4532                 1.3108                 1.1736
 Frc consts  --      3.6846                 1.4643                 1.4706
 IR Inten    --    169.5562                21.1881                12.1797

                     31                     32                     33
                      A                      A                      A
 Frequencies --   1470.4449              1509.5619              1519.1712
 Red. masses --      1.0918                 1.1925                 1.1244
 Frc consts  --      1.3909                 1.6011                 1.5289
 IR Inten    --     23.2370                23.9330                11.5662

                     34                     35                     36
                      A                      A                      A
 Frequencies --   1525.5424              1779.4542              2265.1241
 Red. masses --      1.0454                 7.0648                13.6875
 Frc consts  --      1.4334                13.1802                41.3770
 IR Inten    --     10.7890                63.2843               573.7253

                     37                     38                     39
                      A                      A                      A
 Frequencies --   2802.5536              3045.8372              3080.7692
 Red. masses --      1.0782                 1.0660                 1.0353
 Frc consts  --      4.9894                 5.8267                 5.7894
 IR Inten    --    207.1952                 5.8641                14.2565

                     40                     41                     42
                      A                      A                      A
 Frequencies --   3104.5906              3149.2063              3213.9927
 Red. masses --      1.0960                 1.1048                 1.1035
 Frc consts  --      6.2241                 6.4558                 6.7158
 IR Inten    --      6.3850                 4.8800                 1.0304

 - Thermochemistry -
 -------------------
 Temperature   298.150 Kelvin.  Pressure   1.00000 Atm.
 Atom     1 has atomic number  6 and mass  12.00000

 Molecular mass:   162.02115 amu.
 Principal axes and moments of inertia in atomic units:
                           1         2         3
     Eigenvalues --   840.394422874.993343291.30402
           X            0.99998   0.00556   0.00339
           Y           -0.00565   0.99968   0.02461
           Z           -0.00326  -0.02463   0.99969
 This molecule is an asymmetric top.
 Rotational symmetry number  1.
 Warning -- assumption of classical behavior for rotation
           may cause significant error
 Rotational temperatures (Kelvin)      0.10306     0.03013     0.02632
 Rotational constants (GHZ):           2.14749     0.62774     0.54834
 Zero-point vibrational energy     291216.4 (Joules/Mol)
                                   69.60239 (Kcal/Mol)
 Warning -- explicit consideration of  15 degrees of freedom as
           vibrations may cause significant error
 Vibrational temperatures:     39.19    54.07   109.02   153.10   169.92
          (Kelvin)            249.74   340.21   346.98   354.64   445.18
                              549.87   609.73   638.57   810.50   819.19
                              942.28  1118.63  1230.58  1329.28  1412.32
                             1427.58  1512.64  1552.82  1647.79  1671.91
                             1729.79  1812.80  1936.22  1981.15  2098.28
                             2115.64  2171.92  2185.75  2194.92  2560.24
                             3259.01  4032.25  4382.28  4432.54  4466.81
                             4531.01  4624.22

 Zero-point correction=                           0.110918 (Hartree/Particle)
 Thermal correction to Energy=                    0.122030
 Thermal correction to Enthalpy=                  0.122975
 Thermal correction to Gibbs Free Energy=         0.071722
 Sum of electronic and zero-point Energies=           -885.325942
 Sum of electronic and thermal Energies=              -885.314830
 Sum of electronic and thermal Enthalpies=            -885.313886
 Sum of electronic and thermal Free Energies=         -885.365138

                     E (Thermal)             CV                S
                      KCal/Mol        Cal/Mol-Kelvin    Cal/Mol-Kelvin
 Total                   76.575             36.689            107.869
 Electronic               0.000              0.000              0.000
 Translational            0.889              2.981             41.156
 Rotational               0.889              2.981             30.454
 Vibrational             74.798             30.727             36.259
 Vibration     1          0.593              1.984              6.021
 Vibration     2          0.594              1.982              5.383
 Vibration     3          0.599              1.965              3.998
 Vibration     4          0.605              1.944              3.333
 Vibration     5          0.608              1.934              3.131
 Vibration     6          0.627              1.875              2.396
 Vibration     7          0.655              1.785              1.829
 Vibration     8          0.658              1.777              1.794
 Vibration     9          0.661              1.769              1.756
 Vibration    10          0.699              1.656              1.365
 Vibration    11          0.752              1.508              1.031
 Vibration    12          0.786              1.419              0.879
 Vibration    13          0.803              1.375              0.815
 Vibration    14          0.919              1.111              0.517
 Vibration    15          0.925              1.098              0.505

                           ! Non-Optimized Parameters !
 Normal termination of Gaussian 16 at Tue Dec  8 10:22:37 2020.

 ----------------------------------------------------------------------
 # B3LYP/6-311++G(d,p) empiricaldispersion=gd3bj scf=xqc pop=npa geom=c
 heck
 ----------------------------------------------------------------------

 -------------------------------------
 CID_150078164_JID_34_Energie_neutraal
 -------------------------------------
 Structure from the checkpoint file:  "JID_34.chk"
 Charge =  0 Multiplicity = 1

 SCF Done:  E(RB3LYP) =  -885.612534882     A.U. after   16 cycles
 Normal termination of Gaussian 16 at Tue Dec  8 10:23:20 2020.

 ----------------------------------------------------------------------
 # B3LYP/6-311++G(d,p) empiricaldispersion=gd3bj scf=xqc pop=npa geom=c
 heck
 ----------------------------------------------------------------------

 -----------------------------------
 CID_150078164_JID_34_Energie_kation
 -----------------------------------
 Structure from the checkpoint file:  "JID_34.chk"
 Charge =  1 Multiplicity = 2

 SCF Done:  E(UB3LYP) =  -885.294618821     A.U. after   24 cycles
 Normal termination of Gaussian 16 at Tue Dec  8 10:24:59 2020.
 Gaussian 16:  ES64L-G16RevA.03 25-Dec-2016

 ----------------------------------------------------------------------
 # B3LYP/6-311++G(d,p) empiricaldispersion=gd3bj scf=xqc pop=npa geom=c
 heck
 ----------------------------------------------------------------------

 ----------------------------------
 CID_150078164_JID_34_Energie_anion
 ----------------------------------
 Structure from the checkpoint file:  "JID_34.chk"
 Charge = -1 Multiplicity = 2

                         Standard orientation:
 ---------------------------------------------------------------------
 Center     Atomic      Atomic             Coordinates (Angstroms)
 Number     Number       Type             X           Y           Z
 ---------------------------------------------------------------------
      1          6           0        0.802275    2.240444    0.533922
      2          7           0       -0.181770    1.281631    0.024374
      3          6           0       -0.201034    0.008254   -0.030853
      4         16           0       -2.083272   -0.586701   -0.442850
      5          8           0       -2.361694   -1.129198    0.927020
      6          8           0       -2.561230    0.835521   -0.708661
      7          6           0        0.798386   -0.997039    0.401733
      8          7           0        2.155686   -0.521964    0.746989
      9          7           0        2.964226   -0.519111   -0.192311
     10          7           0        3.799294   -0.473109   -0.967710
     11          1           0        1.608932    1.719629    1.044397
     12          1           0        0.288663    2.913495    1.225307
     13          1           0        1.195269    2.826287   -0.302343
     14          1           0       -1.138898    1.639310   -0.285156
     15          1           0        0.371817   -1.451666    1.303765
     16          1           0        0.830149   -1.792509   -0.355451
 ---------------------------------------------------------------------

 SCF Done:  E(UB3LYP) =  -885.635116963     A.U. after   30 cycles

 The electronic state is 2-A.
 Alpha  occ. eigenvalues --  -88.81273 -18.93729 -18.92574 -14.33918 -14.24280
 Alpha  occ. eigenvalues --  -14.23037 -14.20231 -10.09229 -10.08911 -10.05856
 Alpha  occ. eigenvalues --   -7.88274  -5.84575  -5.84477  -5.83910  -1.00807
 Alpha  occ. eigenvalues --   -0.89905  -0.85081  -0.82145  -0.80100  -0.64519
 Alpha  occ. eigenvalues --   -0.59942  -0.48562  -0.43754  -0.42567  -0.39301
 Alpha  occ. eigenvalues --   -0.38351  -0.37821  -0.33875  -0.32871  -0.31673
 Alpha  occ. eigenvalues --   -0.29979  -0.29374  -0.26939  -0.26382  -0.25046
 Alpha  occ. eigenvalues --   -0.19824  -0.18368  -0.14583  -0.14027  -0.12868
 Alpha  occ. eigenvalues --   -0.12229  -0.07005   0.04253
 Alpha virt. eigenvalues --    0.07560   0.08764   0.10982   0.11864   0.12540
 Alpha virt. eigenvalues --    0.12889   0.13607   0.14505   0.14733   0.16166
 Alpha virt. eigenvalues --    0.16922   0.17791   0.18304   0.18915   0.19067

  Beta  occ. eigenvalues --  -88.81285 -18.93740 -18.92541 -14.33672 -14.23988
  Beta  occ. eigenvalues --  -14.23055 -14.19780 -10.09225 -10.08930 -10.05078
  Beta  occ. eigenvalues --   -7.88283  -5.84581  -5.84505  -5.83925  -1.00353
  Beta  occ. eigenvalues --   -0.89821  -0.84836  -0.81472  -0.79813  -0.63868
  Beta  occ. eigenvalues --   -0.59717  -0.47899  -0.43399  -0.42266  -0.38427
  Beta  occ. eigenvalues --   -0.37855  -0.37570  -0.33024  -0.32188  -0.31171
  Beta  occ. eigenvalues --   -0.29589  -0.28766  -0.26874  -0.26273  -0.24842
  Beta  occ. eigenvalues --   -0.18380  -0.16786  -0.14404  -0.13775  -0.12768
  Beta  occ. eigenvalues --   -0.12092  -0.06679
  Beta virt. eigenvalues --    0.08362   0.09751   0.10968   0.11836   0.12405
  Beta virt. eigenvalues --    0.12650   0.13524   0.13781   0.14648   0.14790
  Beta virt. eigenvalues --    0.16214   0.17156   0.18007   0.18500   0.18882

 Mulliken charges and spin densities:
               1          2
     1  C   -0.271227  -0.070201
     2  N   -0.106396   0.135226
     3  C   -0.198016   0.599930
     4  S    0.288440   0.003284
     5  O   -0.462677  -0.007487
     6  O   -0.497499  -0.003417
     7  C   -0.579412  -0.058139
     8  N   -0.464266  -0.020873
     9  N    0.467998   0.062920
    10  N   -0.190931   0.202369
    11  H    0.086430   0.060294
    12  H    0.094823   0.044389
    13  H    0.144553   0.004956
    14  H    0.342915  -0.006096
    15  H    0.212284   0.010454
    16  H    0.132983   0.042393
 Sum of Mulliken charges =  -1.00000   1.00000

 Dipole moment (field-independent basis, Debye):
    X=              3.5711    Y=              1.5273    Z=             -0.0426  Tot=              3.8842
 Quadrupole moment (field-independent basis, Debye-Ang):
   XX=           -117.5547   YY=            -72.6308   ZZ=            -78.6416
   XY=              0.9878   XZ=              5.6415   YZ=              3.3684

 Summary of Natural Population Analysis:

                                       Natural Population
                Natural  -----------------------------------------------
    Atom  No    Charge         Core      Valence    Rydberg      Total
 -----------------------------------------------------------------------
      C    1   -0.18571      0.99965     2.17953    0.00653     3.18571
      N    2   -0.21864      0.99953     2.71009    0.00902     3.71864
      C    3    0.23659      0.99948     1.74209    0.02184     2.76341
      S    4    0.69452      4.99956     2.21648    0.08944     7.30548
      O    5   -0.49952      0.99993     3.49061    0.00898     4.49952
      O    6   -0.51388      0.99993     3.50581    0.00814     4.51388
      C    7   -0.13873      0.99949     2.12742    0.01182     3.13873
      N    8   -0.20435      0.99971     2.69010    0.01454     3.70435
      N    9    0.13306      0.99970     2.35093    0.01631     3.36694
      N   10   -0.03125      0.99982     2.51817    0.01326     3.53125
      H   11    0.10750      0.00000     0.39080    0.00169     0.39250
      H   12    0.09351      0.00000     0.40482    0.00167     0.40649
      H   13    0.09255      0.00000     0.40655    0.00090     0.40745
      H   14    0.20829      0.00000     0.28848    0.00322     0.29171
      H   15    0.12393      0.00000     0.37433    0.00174     0.37607
      H   16    0.10213      0.00000     0.39536    0.00251     0.39787
 =======================================================================
   * Total *   -0.00000     13.99680    27.79158    0.21162    42.00000

 Normal termination of Gaussian 16 at Tue Dec  8 10:26:55 2020.
