 Gaussian 16, Revision A.03,

 -----------------------------------------------------------
 # opt freq B3LYP/6-31G(d) empiricaldispersion=gd3bj scf=xqc
 -----------------------------------------------------------

 -----------------------------
 CID_88654665_JID_193_neutraal
 -----------------------------
 Symbolic Z-matrix:
 Charge =  0 Multiplicity = 1

 SCF Done:  E(RB3LYP) =  -461.252768511     A.U. after   15 cycles
 SCF Done:  E(RB3LYP) =  -461.254181057     A.U. after   12 cycles
 SCF Done:  E(RB3LYP) =  -461.254720509     A.U. after   12 cycles
 SCF Done:  E(RB3LYP) =  -461.254874891     A.U. after   11 cycles
 SCF Done:  E(RB3LYP) =  -461.255080505     A.U. after   13 cycles
 SCF Done:  E(RB3LYP) =  -461.255150398     A.U. after   12 cycles
 SCF Done:  E(RB3LYP) =  -461.255255468     A.U. after   12 cycles
 SCF Done:  E(RB3LYP) =  -461.255280445     A.U. after   12 cycles
 SCF Done:  E(RB3LYP) =  -461.255283146     A.U. after   10 cycles
 SCF Done:  E(RB3LYP) =  -461.255283999     A.U. after    8 cycles
 SCF Done:  E(RB3LYP) =  -461.255284259     A.U. after    8 cycles
 SCF Done:  E(RB3LYP) =  -461.255284754     A.U. after    9 cycles
 SCF Done:  E(RB3LYP) =  -461.255285044     A.U. after    9 cycles
 Optimization completed.
    -- Stationary point found.

 1\1\GINC-NODE200\FOpt\RB3LYP\6-31G(d)\C8H10O2\VSC10255\08-Dec-2020\0\\
 # opt freq B3LYP/6-31G(d) empiricaldispersion=gd3bj scf=xqc\\CID_88654
 665_JID_193_neutraal\\0,1\C,1.0228922149,0.2060842273,0.0243005108\C,0
 .2756138738,0.1193497497,-1.3166163646\C,0.7884200372,-1.0092201182,-2
 .1819930397\C,0.2158831331,-2.278805306,-2.0946196283\C,0.7272082631,-
 3.3329176382,-2.8569052693\C,1.803690777,-3.1458714084,-3.7198475333\C
 ,2.3698908836,-1.8717651885,-3.8032841491\C,1.8751210577,-0.8135186595
 ,-3.0461122008\O,0.0733587807,-4.5363126024,-2.6635375209\O,0.59915385

 Normal termination of Gaussian 16 at Tue Dec  8 10:19:28 2020.

 --------------------------------------------------------------------
 #N Geom=AllCheck Guess=TCheck SCRF=Check GenChk RB3LYP/6-31G(d) Freq
 --------------------------------------------------------------------

 Structure from the checkpoint file:  "JID_193.chk"
 -----------------------------
 CID_88654665_JID_193_neutraal
 -----------------------------
 Charge =  0 Multiplicity = 1

 SCF Done:  E(RB3LYP) =  -461.255285044     A.U. after    1 cycles

  Exact polarizability: 123.863   1.407  93.501   7.514   4.388  49.236
 Approx polarizability: 178.193  -1.748 157.040  13.685  11.074  71.717

                      1                      2                      3
                      A                      A                      A
 Frequencies --     34.2458                51.9057               132.4592
 Red. masses --      2.5572                 6.1423                 3.4724
 Frc consts  --      0.0018                 0.0098                 0.0359
 IR Inten    --      0.0305                 6.1849                 0.5490

                      4                      5                      6
                      A                      A                      A
 Frequencies --    198.3252               205.0093               238.0424
 Red. masses --      1.3432                 1.7257                 2.1689
 Frc consts  --      0.0311                 0.0427                 0.0724
 IR Inten    --     77.9722                11.2740                43.3878

                      7                      8                      9
                      A                      A                      A
 Frequencies --    258.2736               311.0503               350.6267
 Red. masses --      2.0897                 3.5575                 2.8207
 Frc consts  --      0.0821                 0.2028                 0.2043
 IR Inten    --      6.3870                 1.9236                 2.0138

                     10                     11                     12
                      A                      A                      A
 Frequencies --    452.7237               467.2761               525.7213
 Red. masses --      4.3007                 3.4048                 4.3129
 Frc consts  --      0.5193                 0.4380                 0.7023
 IR Inten    --      1.4828                 2.7153                 0.4552

                     13                     14                     15
                      A                      A                      A
 Frequencies --    618.7624               626.1056               711.2536
 Red. masses --      5.6903                 5.0686                 2.4085
 Frc consts  --      1.2836                 1.1707                 0.7179
 IR Inten    --      0.6978                 0.6088                 8.7686

                     16                     17                     18
                      A                      A                      A
 Frequencies --    748.6400               797.6013               803.8577
 Red. masses --      5.3240                 1.3235                 1.2366
 Frc consts  --      1.7581                 0.4961                 0.4708
 IR Inten    --      3.6779                21.9030                12.2083

                     19                     20                     21
                      A                      A                      A
 Frequencies --    880.7761               891.3789               894.9400
 Red. masses --      1.4594                 3.6559                 1.4334
 Frc consts  --      0.6670                 1.7115                 0.6764
 IR Inten    --     12.4008                29.7714                 6.7578

                     22                     23                     24
                      A                      A                      A
 Frequencies --    969.0447               972.3004              1010.7027
 Red. masses --      1.3724                 3.0286                 2.8246
 Frc consts  --      0.7593                 1.6869                 1.7000
 IR Inten    --      0.4324                 0.8517                 1.8837

                     25                     26                     27
                      A                      A                      A
 Frequencies --   1017.9043              1084.7306              1096.0827
 Red. masses --      6.0154                 1.7059                 1.7230
 Frc consts  --      3.6722                 1.1826                 1.2196
 IR Inten    --      0.0439                 6.5283                 5.3609

                     28                     29                     30
                      A                      A                      A
 Frequencies --   1128.0437              1174.2482              1200.4314
 Red. masses --      1.4099                 1.6425                 1.1874
 Frc consts  --      1.0570                 1.3343                 1.0082
 IR Inten    --      0.5704                25.5115                 0.5629

                     31                     32                     33
                      A                      A                      A
 Frequencies --   1274.7108              1288.9818              1341.0443
 Red. masses --      2.8314                 1.5085                 1.2869
 Frc consts  --      2.7107                 1.4767                 1.3635
 IR Inten    --     25.0960                11.4889                 1.1427

                     34                     35                     36
                      A                      A                      A
 Frequencies --   1370.8376              1373.6660              1413.0190
 Red. masses --      2.4247                 2.1623                 1.1870
 Frc consts  --      2.6846                 2.4039                 1.3963
 IR Inten    --      1.2117                 5.0672                75.1515

                     37                     38                     39
                      A                      A                      A
 Frequencies --   1435.4107              1489.3567              1518.3269
 Red. masses --      1.2206                 2.8381                 1.0776
 Frc consts  --      1.4818                 3.7091                 1.4636
 IR Inten    --      2.1094                21.5771                 1.1755

                     40                     41                     42
                      A                      A                      A
 Frequencies --   1525.7918              1537.5188              1542.5730
 Red. masses --      1.0409                 1.2939                 1.7929
 Frc consts  --      1.4277                 1.8021                 2.5136
 IR Inten    --      7.8294                13.2400                29.6895

                     43                     44                     45
                      A                      A                      A
 Frequencies --   1648.0590              1669.0478              3048.2358
 Red. masses --      6.1896                 6.2915                 1.0571
 Frc consts  --      9.9051                10.3263                 5.7874
 IR Inten    --     72.3067                29.4644                27.2350

                     46                     47                     48
                      A                      A                      A
 Frequencies --   3049.3523              3083.2279              3119.7081
 Red. masses --      1.0371                 1.1039                 1.1028
 Frc consts  --      5.6818                 6.1830                 6.3237
 IR Inten    --     36.1677                 9.1094                47.2308

                     49                     50                     51
                      A                      A                      A
 Frequencies --   3124.1026              3182.2428              3197.8359
 Red. masses --      1.1036                 1.0868                 1.0905
 Frc consts  --      6.3460                 6.4846                 6.5703
 IR Inten    --     35.2927                 8.2216                16.3712

                     52                     53                     54
                      A                      A                      A
 Frequencies --   3200.7785              3258.2586              3685.1734
 Red. masses --      1.0938                 1.0915                 1.0688
 Frc consts  --      6.6024                 6.8273                 8.5518
 IR Inten    --     12.8857                 1.1667                38.0645

 - Thermochemistry -
 -------------------
 Temperature   298.150 Kelvin.  Pressure   1.00000 Atm.
 Atom     1 has atomic number  6 and mass  12.00000

 Molecular mass:   138.06808 amu.
 Principal axes and moments of inertia in atomic units:
                           1         2         3
     Eigenvalues --   651.674922312.880512801.87042
           X            0.99975   0.02218   0.00056
           Y           -0.02217   0.99975  -0.00293
           Z           -0.00063   0.00292   1.00000
 This molecule is an asymmetric top.
 Rotational symmetry number  1.
 Warning -- assumption of classical behavior for rotation
           may cause significant error
 Rotational temperatures (Kelvin)      0.13291     0.03745     0.03091
 Rotational constants (GHZ):           2.76939     0.78030     0.64412
 Zero-point vibrational energy     432029.7 (Joules/Mol)
                                  103.25757 (Kcal/Mol)
 Warning -- explicit consideration of  13 degrees of freedom as
           vibrations may cause significant error
 Vibrational temperatures:     49.27    74.68   190.58   285.35   294.96
          (Kelvin)            342.49   371.60   447.53   504.47   651.37
                              672.31   756.40   890.26   900.83  1023.34
                             1077.13  1147.57  1156.57  1267.24  1282.50
                             1287.62  1394.24  1398.92  1454.18  1464.54
                             1560.69  1577.02  1623.00  1689.48  1727.15
                             1834.02  1854.56  1929.46  1972.33  1976.40
                             2033.02  2065.24  2142.85  2184.53  2195.27
                             2212.15  2219.42  2371.19  2401.39  4385.73
                             4387.34  4436.08  4488.56  4494.89  4578.54
                             4600.97  4605.21  4687.91  5302.14

 Zero-point correction=                           0.164551 (Hartree/Particle)
 Thermal correction to Energy=                    0.174513
 Thermal correction to Enthalpy=                  0.175457
 Thermal correction to Gibbs Free Energy=         0.128322
 Sum of electronic and zero-point Energies=           -461.090734
 Sum of electronic and thermal Energies=              -461.080772
 Sum of electronic and thermal Enthalpies=            -461.079828
 Sum of electronic and thermal Free Energies=         -461.126963

                     E (Thermal)             CV                S
                      KCal/Mol        Cal/Mol-Kelvin    Cal/Mol-Kelvin
 Total                  109.509             36.615             99.205
 Electronic               0.000              0.000              0.000
 Translational            0.889              2.981             40.680
 Rotational               0.889              2.981             29.825
 Vibrational            107.731             30.654             28.700
 Vibration     1          0.594              1.983              5.567
 Vibration     2          0.596              1.977              4.743
 Vibration     3          0.613              1.921              2.910
 Vibration     4          0.637              1.842              2.149
 Vibration     5          0.640              1.833              2.088
 Vibration     6          0.656              1.782              1.817
 Vibration     7          0.667              1.749              1.673
 Vibration     8          0.700              1.653              1.357
 Vibration     9          0.728              1.574              1.163
 Vibration    10          0.811              1.355              0.788
 Vibration    11          0.825              1.323              0.745
 Vibration    12          0.881              1.193              0.597
 Vibration    13          0.979              0.992              0.418

                           ! Non-Optimized Parameters !

 1\1\GINC-NODE200\Freq\RB3LYP\6-31G(d)\C8H10O2\VSC10255\08-Dec-2020\0\\
 #N Geom=AllCheck Guess=TCheck SCRF=Check GenChk RB3LYP/6-31G(d) Freq\\
 CID_88654665_JID_193_neutraal\\0,1\C,1.0228922149,0.2060842273,0.02430
 05108\C,0.2756138738,0.1193497497,-1.3166163646\C,0.7884200372,-1.0092
 201182,-2.1819930397\C,0.2158831331,-2.278805306,-2.0946196283\C,0.727
 2082631,-3.3329176382,-2.8569052693\C,1.803690777,-3.1458714084,-3.719
 8475333\C,2.3698908836,-1.8717651885,-3.8032841491\C,1.8751210577,-0.8
 135186595,-3.0461122008\O,0.0733587807,-4.5363126024,-2.6635375209\O,0

 Normal termination of Gaussian 16 at Tue Dec  8 10:22:37 2020.

 ----------------------------------------------------------------------
 # B3LYP/6-311++G(d,p) empiricaldispersion=gd3bj scf=xqc pop=npa geom=c
 heck
 ----------------------------------------------------------------------

 -------------------------------------
 CID_88654665_JID_193_Energie_neutraal
 -------------------------------------
 Structure from the checkpoint file:  "JID_193.chk"
 Charge =  0 Multiplicity = 1

 SCF Done:  E(RB3LYP) =  -461.390270407     A.U. after   15 cycles
 Normal termination of Gaussian 16 at Tue Dec  8 10:23:42 2020.

 ----------------------------------------------------------------------
 # B3LYP/6-311++G(d,p) empiricaldispersion=gd3bj scf=xqc pop=npa geom=c
 heck
 ----------------------------------------------------------------------

 -----------------------------------
 CID_88654665_JID_193_Energie_kation
 -----------------------------------
 Structure from the checkpoint file:  "JID_193.chk"
 Charge =  1 Multiplicity = 2

 SCF Done:  E(UB3LYP) =  -461.083206890     A.U. after   22 cycles
 Normal termination of Gaussian 16 at Tue Dec  8 10:26:19 2020.
 Gaussian 16:  ES64L-G16RevA.03 25-Dec-2016

 ----------------------------------
 CID_88654665_JID_193_Energie_anion
 ----------------------------------
 Structure from the checkpoint file:  "JID_193.chk"
 Charge = -1 Multiplicity = 2

                         Standard orientation:
 ---------------------------------------------------------------------
 Center     Atomic      Atomic             Coordinates (Angstroms)
 Number     Number       Type             X           Y           Z
 ---------------------------------------------------------------------
      1          6           0       -3.288364   -0.852765    0.776507
      2          6           0       -2.607483   -0.488564   -0.553066
      3          6           0       -1.223762    0.084028   -0.345772
      4          6           0       -0.110529   -0.757075   -0.322571
      5          6           0        1.161087   -0.231143   -0.077473
      6          6           0        1.350980    1.130915    0.139799
      7          6           0        0.232081    1.966518    0.112893
      8          6           0       -1.041325    1.456475   -0.124352
      9          8           0        2.169911   -1.177347   -0.071014
     10          8           0        3.463878   -0.560491    0.110988
     11          1           0       -2.700476   -1.599356    1.321690
     12          1           0       -4.290584   -1.262182    0.606948
     13          1           0       -3.382591    0.029365    1.419312
     14          1           0       -2.546946   -1.381246   -1.187196
     15          1           0       -3.227819    0.238638   -1.091121
     16          1           0       -0.216015   -1.824281   -0.495458
     17          1           0        2.345402    1.520538    0.309010
     18          1           0        0.366605    3.032595    0.274273
     19          1           0       -1.900636    2.121527   -0.145407
     20          1           0        3.646634   -0.823232    1.032367
 ---------------------------------------------------------------------

 SCF Done:  E(UB3LYP) =  -461.377491901     A.U. after   33 cycles
 SCF Done:  E(UB3LYP) =  -461.377491901     a.u. after    1 cycles

 The electronic state is 2-A.
 Alpha  occ. eigenvalues --  -19.08670 -19.06851 -10.12745 -10.07790 -10.07189
 Alpha  occ. eigenvalues --  -10.07053 -10.06533 -10.06176 -10.06164 -10.05928
 Alpha  occ. eigenvalues --   -1.02852  -0.82693  -0.74807  -0.68292  -0.63226
 Alpha  occ. eigenvalues --   -0.61842  -0.53498  -0.50126  -0.48428  -0.42341
 Alpha  occ. eigenvalues --   -0.40562  -0.37906  -0.36996  -0.34461  -0.33362
 Alpha  occ. eigenvalues --   -0.32079  -0.30606  -0.29613  -0.27354  -0.26771
 Alpha  occ. eigenvalues --   -0.25982  -0.24074  -0.23212  -0.21889  -0.19359
 Alpha  occ. eigenvalues --   -0.14545  -0.12089   0.04670
 Alpha virt. eigenvalues --    0.06201   0.07777   0.08727   0.09137   0.09322
 Alpha virt. eigenvalues --    0.09827   0.10511   0.11465   0.11782   0.12677
 Alpha virt. eigenvalues --    0.13301   0.13744   0.14856   0.15739   0.17429

  Beta  occ. eigenvalues --  -19.08553 -19.06697 -10.12748 -10.07774 -10.07178
  Beta  occ. eigenvalues --  -10.07037 -10.06518 -10.06154 -10.06143 -10.05892
  Beta  occ. eigenvalues --   -1.02501  -0.82412  -0.74746  -0.68241  -0.63167
  Beta  occ. eigenvalues --   -0.61785  -0.53420  -0.50088  -0.48315  -0.42231
  Beta  occ. eigenvalues --   -0.40464  -0.37856  -0.36879  -0.34373  -0.33273
  Beta  occ. eigenvalues --   -0.32041  -0.30488  -0.29531  -0.27271  -0.26675
  Beta  occ. eigenvalues --   -0.25928  -0.24038  -0.23162  -0.21780  -0.19192
  Beta  occ. eigenvalues --   -0.14452  -0.11998
  Beta virt. eigenvalues --    0.06997   0.08008   0.08550   0.08939   0.09402
  Beta virt. eigenvalues --    0.09741   0.10341   0.10691   0.12093   0.12358
  Beta virt. eigenvalues --    0.12920   0.13474   0.14283   0.14907   0.15867

 Mulliken charges and spin densities:
               1          2
     1  C    1.172532  -1.790604
     2  C    0.866532  -1.124975
     3  C   -0.585916   1.574961
     4  C   -0.246021  -0.146876
     5  C   -0.174398  -0.288918
     6  C    1.310858  -1.151718
     7  C    0.448537  -0.771178
     8  C   -1.436452   0.950276
     9  O   -0.191347   0.067765
    10  O   -0.030249  -0.108550
    11  H   -0.118722   0.252958
    12  H   -0.387076   0.516233
    13  H   -0.120291   0.255624
    14  H   -0.243790   0.385343
    15  H   -0.295378   0.439373
    16  H    0.056931   0.123763
    17  H   -0.290423   0.490195
    18  H   -0.164006   0.326253
    19  H   -0.159900   0.299969
    20  H   -0.411419   0.700108
 Sum of Mulliken charges =  -1.00000   1.00000

 Dipole moment (field-independent basis, Debye):
    X=             -1.6052    Y=              1.1381    Z=             -1.7397  Tot=              2.6265
 Quadrupole moment (field-independent basis, Debye-Ang):
   XX=           -143.9805   YY=            -86.6579   ZZ=            -84.3549
   XY=             -2.2213   XZ=             -6.4964   YZ=              1.0379

 Summary of Natural Population Analysis:

                                       Natural Population
                Natural  -----------------------------------------------
    Atom  No    Charge         Core      Valence    Rydberg      Total
 -----------------------------------------------------------------------
      C    1   -0.27978      0.99966     2.27508    0.00504     3.27978
      C    2   -0.19779      0.99961     2.18801    0.01017     3.19779
      C    3   -0.00371      0.99951     1.99405    0.01015     3.00371
      C    4   -0.12436      0.99945     2.11624    0.00867     3.12436
      C    5    0.15558      0.99937     1.82967    0.01537     2.84442
      C    6   -0.13870      0.99951     2.12957    0.00963     3.13870
      C    7   -0.08886      0.99957     2.07975    0.00953     3.08886
      C    8   -0.12030      0.99950     2.11157    0.00922     3.12030
      O    9   -0.13747      0.99986     3.12654    0.01107     4.13747
      O   10   -0.21078      0.99991     3.20414    0.00673     4.21078
      H   11    0.09704      0.00000     0.40183    0.00112     0.40296
      H   12    0.09903      0.00000     0.39889    0.00208     0.40097
      H   13    0.09725      0.00000     0.40162    0.00113     0.40275
      H   14    0.09879      0.00000     0.39993    0.00128     0.40121
      H   15    0.09945      0.00000     0.39912    0.00143     0.40055
      H   16    0.10473      0.00000     0.39394    0.00132     0.39527
      H   17    0.11672      0.00000     0.38158    0.00169     0.38328
      H   18    0.09804      0.00000     0.40108    0.00088     0.40196
      H   19    0.09905      0.00000     0.39987    0.00108     0.40095
      H   20    0.23607      0.00000     0.23366    0.03028     0.26393
 =======================================================================
   * Total *   -0.00000      9.99595    26.86616    0.13789    37.00000

 Normal termination of Gaussian 16 at Tue Dec  8 10:30:16 2020.
