 Gaussian 16, Revision A.03,

 -----------------------------------------------------------
 # opt freq B3LYP/6-31G(d) empiricaldispersion=gd3bj scf=xqc
 -----------------------------------------------------------

 -------------------------------
 CID_134011118_JID_6725_neutraal
 -------------------------------
 Symbolic Z-matrix:
 Charge =  0 Multiplicity = 1

 SCF Done:  E(RB3LYP) =  -730.519177244     A.U. after   14 cycles
 SCF Done:  E(RB3LYP) =  -730.525956911     A.U. after   12 cycles
 SCF Done:  E(RB3LYP) =  -730.526462572     A.U. after   13 cycles
 SCF Done:  E(RB3LYP) =  -730.527756838     A.U. after   12 cycles
 SCF Done:  E(RB3LYP) =  -730.528033648     A.U. after   11 cycles
 SCF Done:  E(RB3LYP) =  -730.528201406     A.U. after   11 cycles
 SCF Done:  E(RB3LYP) =  -730.528331110     A.U. after   10 cycles
 SCF Done:  E(RB3LYP) =  -730.528553815     A.U. after   11 cycles
 SCF Done:  E(RB3LYP) =  -730.529427931     A.U. after   14 cycles
 SCF Done:  E(RB3LYP) =  -730.529682012     A.U. after   11 cycles
 SCF Done:  E(RB3LYP) =  -730.529967833     A.U. after    9 cycles
 SCF Done:  E(RB3LYP) =  -730.529971849     A.U. after    9 cycles
 SCF Done:  E(RB3LYP) =  -730.529972743     A.U. after    8 cycles
 SCF Done:  E(RB3LYP) =  -730.529973006     A.U. after    7 cycles
 SCF Done:  E(RB3LYP) =  -730.529972951     A.U. after    6 cycles
 Optimization completed.
    -- Stationary point found.
 Normal termination of Gaussian 16 at Fri Dec 11 00:29:27 2020.

 --------------------------------------------------------------------
 #N Geom=AllCheck Guess=TCheck SCRF=Check GenChk RB3LYP/6-31G(d) Freq
 --------------------------------------------------------------------

 Structure from the checkpoint file:  "JID_6725.chk"
 -------------------------------
 CID_134011118_JID_6725_neutraal
 -------------------------------
 Charge =  0 Multiplicity = 1

 SCF Done:  E(RB3LYP) =  -730.529972951     A.U. after    1 cycles

  Exact polarizability: 180.686  -4.330 120.672   1.953   0.124 120.190
 Approx polarizability: 212.588  -6.045 186.341   2.874  -1.038 186.210

                      1                      2                      3
                      A                      A                      A
 Frequencies --     24.7533                42.6184                60.7978
 Red. masses --      3.1172                 3.6924                 3.7529
 Frc consts  --      0.0011                 0.0040                 0.0082
 IR Inten    --      0.8134                 0.4577                 0.0172

                      4                      5                      6
                      A                      A                      A
 Frequencies --     69.2377                93.4287               126.8832
 Red. masses --      4.4534                 3.0935                 4.4125
 Frc consts  --      0.0126                 0.0159                 0.0419
 IR Inten    --      2.0680                 0.7569                 1.8447

                      7                      8                      9
                      A                      A                      A
 Frequencies --    173.6109               196.2802               196.6101
 Red. masses --      3.0539                 3.0946                 4.2841
 Frc consts  --      0.0542                 0.0702                 0.0976
 IR Inten    --      0.8209                 0.4601                 6.9486

                     10                     11                     12
                      A                      A                      A
 Frequencies --    213.7617               225.0977               252.9995
 Red. masses --      1.9692                 1.0756                 1.1899
 Frc consts  --      0.0530                 0.0321                 0.0449
 IR Inten    --      2.8247                 0.1687                 0.3201

                     13                     14                     15
                      A                      A                      A
 Frequencies --    297.3548               320.6009               359.4421
 Red. masses --      2.2919                 2.5913                 2.5711
 Frc consts  --      0.1194                 0.1569                 0.1957
 IR Inten    --      0.8198                 0.7606                 3.2338

                     16                     17                     18
                      A                      A                      A
 Frequencies --    391.2685               406.3258               431.1280
 Red. masses --      2.6312                 1.9646                 2.1961
 Frc consts  --      0.2373                 0.1911                 0.2405
 IR Inten    --      2.9821                 0.3347                 2.6754

                     19                     20                     21
                      A                      A                      A
 Frequencies --    454.2305               467.6677               482.4215
 Red. masses --      2.9135                 2.6216                 2.1893
 Frc consts  --      0.3542                 0.3378                 0.3002
 IR Inten    --      3.4021                 0.1516                 2.8874

                     22                     23                     24
                      A                      A                      A
 Frequencies --    508.8256               529.4983               566.1166
 Red. masses --      3.7740                 4.7688                 4.0760
 Frc consts  --      0.5757                 0.7877                 0.7697
 IR Inten    --      2.4691                 2.2831                12.1476

                     25                     26                     27
                      A                      A                      A
 Frequencies --    618.1453               656.2576               703.2967
 Red. masses --      1.8571                 3.3339                 7.1305
 Frc consts  --      0.4181                 0.8460                 2.0780
 IR Inten    --     23.3798                 2.6322                 5.8427

                     28                     29                     30
                      A                      A                      A
 Frequencies --    799.7287               808.2766               826.7601
 Red. masses --      3.2170                 3.4674                 2.5586
 Frc consts  --      1.2122                 1.3347                 1.0304
 IR Inten    --      5.7713                 4.4007                10.6228

                     31                     32                     33
                      A                      A                      A
 Frequencies --    837.5380               841.6615               893.9006
 Red. masses --      2.3543                 1.8262                 2.3292
 Frc consts  --      0.9730                 0.7622                 1.0966
 IR Inten    --      1.1307                 0.2985                 0.4675

                     34                     35                     36
                      A                      A                      A
 Frequencies --    907.4344               932.6891               942.4697
 Red. masses --      1.8134                 1.5781                 1.2666
 Frc consts  --      0.8798                 0.8088                 0.6629
 IR Inten    --      0.7167                 3.1870                 5.6748

                     37                     38                     39
                      A                      A                      A
 Frequencies --    957.1841               966.2273               980.6403
 Red. masses --      1.9442                 2.1564                 1.6522
 Frc consts  --      1.0495                 1.1861                 0.9361
 IR Inten    --     14.1243                 2.5323                 2.3608

                     40                     41                     42
                      A                      A                      A
 Frequencies --    986.5403              1017.2417              1043.7556
 Red. masses --      2.3451                 2.1908                 2.4001
 Frc consts  --      1.3448                 1.3357                 1.5405
 IR Inten    --      5.2387                22.4005                62.3063

                     43                     44                     45
                      A                      A                      A
 Frequencies --   1058.0812              1072.9066              1077.5719
 Red. masses --      5.4758                 2.3829                 1.8502
 Frc consts  --      3.6119                 1.6161                 1.2658
 IR Inten    --     56.4120                13.7700                10.8310

                     46                     47                     48
                      A                      A                      A
 Frequencies --   1111.8999              1121.1432              1149.0980
 Red. masses --      2.4967                 2.3179                 2.3013
 Frc consts  --      1.8186                 1.7166                 1.7904
 IR Inten    --     31.6669                12.8972               138.3198

                     49                     50                     51
                      A                      A                      A
 Frequencies --   1158.5066              1171.7241              1200.0724
 Red. masses --      2.2578                 2.9942                 2.7926
 Frc consts  --      1.7854                 2.4221                 2.3696
 IR Inten    --     42.4143                98.5597                72.9144

                     52                     53                     54
                      A                      A                      A
 Frequencies --   1211.6832              1214.6780              1219.2350
 Red. masses --      1.7484                 2.0853                 1.7940
 Frc consts  --      1.5124                 1.8128                 1.5712
 IR Inten    --      1.8710                 8.8392                 0.5385

                     55                     56                     57
                      A                      A                      A
 Frequencies --   1221.2845              1250.6442              1268.2934
 Red. masses --      1.6470                 1.1981                 1.2353
 Frc consts  --      1.4474                 1.1041                 1.1708
 IR Inten    --      7.0752                23.3977                 2.7976

                     58                     59                     60
                      A                      A                      A
 Frequencies --   1286.6784              1302.6949              1335.5459
 Red. masses --      1.2366                 1.3321                 1.2524
 Frc consts  --      1.2062                 1.3319                 1.3161
 IR Inten    --     11.3492                 6.6323                10.4167

                     61                     62                     63
                      A                      A                      A
 Frequencies --   1344.9096              1352.7795              1379.7874
 Red. masses --      1.3624                 1.3872                 1.2957
 Frc consts  --      1.4519                 1.4957                 1.4534
 IR Inten    --      2.2489                 6.7523                 0.0390

                     64                     65                     66
                      A                      A                      A
 Frequencies --   1385.9296              1388.0441              1395.2318
 Red. masses --      1.4588                 1.4103                 1.4469
 Frc consts  --      1.6509                 1.6009                 1.6595
 IR Inten    --      0.9862                 7.4199                 2.1649

                     67                     68                     69
                      A                      A                      A
 Frequencies --   1410.0461              1414.3065              1419.9178
 Red. masses --      1.3485                 1.3171                 1.3388
 Frc consts  --      1.5797                 1.5523                 1.5904
 IR Inten    --     19.2864                20.9661                21.2987

                     70                     71                     72
                      A                      A                      A
 Frequencies --   1424.6753              1431.9004              1433.8951
 Red. masses --      1.3359                 1.8037                 1.3474
 Frc consts  --      1.5976                 2.1789                 1.6322
 IR Inten    --     34.5502                23.1249                14.4151

                     73                     74                     75
                      A                      A                      A
 Frequencies --   1436.6539              1449.2903              1501.5561
 Red. masses --      1.2238                 1.2658                 1.0846
 Frc consts  --      1.4882                 1.5665                 1.4407
 IR Inten    --      1.1583                 6.1306                 0.2501

                     76                     77                     78
                      A                      A                      A
 Frequencies --   1507.8676              1513.1251              1514.0699
 Red. masses --      1.0795                 1.1018                 1.0872
 Frc consts  --      1.4461                 1.4863                 1.4684
 IR Inten    --     10.5449                 5.5319                 5.7550

                     79                     80                     81
                      A                      A                      A
 Frequencies --   1519.0213              1521.7786              1523.2997
 Red. masses --      1.0584                 1.0619                 1.0964
 Frc consts  --      1.4389                 1.4489                 1.4990
 IR Inten    --      3.4737                 1.7793                 8.0242

                     82                     83                     84
                      A                      A                      A
 Frequencies --   1532.6429              1535.0847              1543.8980
 Red. masses --      1.0473                 1.0851                 1.0570
 Frc consts  --      1.4494                 1.5065                 1.4844
 IR Inten    --      4.9006                 0.3182                 9.1244

                     85                     86                     87
                      A                      A                      A
 Frequencies --   1553.4800              1865.8694              2946.3393
 Red. masses --      1.0951                12.6882                 1.0712
 Frc consts  --      1.5571                26.0262                 5.4788
 IR Inten    --      0.6018               289.2149                43.8055

                     88                     89                     90
                      A                      A                      A
 Frequencies --   3015.1492              3018.2767              3021.2801
 Red. masses --      1.0683                 1.0803                 1.0689
 Frc consts  --      5.7222                 5.7984                 5.7488
 IR Inten    --     30.4417                 9.5774                73.5487

                     91                     92                     93
                      A                      A                      A
 Frequencies --   3031.6726              3034.9507              3039.6167
 Red. masses --      1.0828                 1.0373                 1.0415
 Frc consts  --      5.8634                 5.6292                 5.6697
 IR Inten    --      7.8249                29.8456                32.7689

                     94                     95                     96
                      A                      A                      A
 Frequencies --   3052.6229              3062.1976              3062.9478
 Red. masses --      1.0816                 1.0707                 1.0680
 Frc consts  --      5.9383                 5.9157                 5.9033
 IR Inten    --      4.8020                95.7820                36.1952

                     97                     98                     99
                      A                      A                      A
 Frequencies --   3066.5521              3084.3971              3086.5524
 Red. masses --      1.0630                 1.0800                 1.0914
 Frc consts  --      5.8898                 6.0534                 6.1261
 IR Inten    --     25.2389                26.1757                47.0438

                    100                    101                    102
                      A                      A                      A
 Frequencies --   3093.3033              3096.3683              3101.9258
 Red. masses --      1.0780                 1.1002                 1.1001
 Frc consts  --      6.0774                 6.2149                 6.2363
 IR Inten    --     31.8875                17.0511                68.5250

                    103                    104                    105
                      A                      A                      A
 Frequencies --   3111.2979              3118.4599              3128.8330
 Red. masses --      1.1014                 1.1059                 1.0999
 Frc consts  --      6.2818                 6.3366                 6.3440
 IR Inten    --     49.8282                24.2188                23.5384

                    106                    107                    108
                      A                      A                      A
 Frequencies --   3135.1182              3141.4003              3145.7568
 Red. masses --      1.0993                 1.0994                 1.1057
 Frc consts  --      6.3660                 6.3922                 6.4470
 IR Inten    --     22.3946                18.4714                28.4692

 - Thermochemistry -
 -------------------
 Temperature   298.150 Kelvin.  Pressure   1.00000 Atm.
 Atom     1 has atomic number  6 and mass  12.00000

 Molecular mass:   226.16813 amu.
 Principal axes and moments of inertia in atomic units:
                           1         2         3
     Eigenvalues --  1216.947627500.982667889.99005
           X            0.99995  -0.00995   0.00037
           Y            0.00995   0.99991   0.00852
           Z           -0.00045  -0.00852   0.99996
 This molecule is an asymmetric top.
 Rotational symmetry number  1.
 Warning -- assumption of classical behavior for rotation
           may cause significant error
 Rotational temperatures (Kelvin)      0.07117     0.01155     0.01098
 Rotational constants (GHZ):           1.48301     0.24060     0.22874
 Zero-point vibrational energy     896819.6 (Joules/Mol)
                                  214.34503 (Kcal/Mol)
 Warning -- explicit consideration of  25 degrees of freedom as
           vibrations may cause significant error
 Vibrational temperatures:     35.61    61.32    87.47    99.62   134.42
          (Kelvin)            182.56   249.79   282.40   282.88   307.56
                              323.87   364.01   427.83   461.27   517.16
                              562.95   584.61   620.30   653.54   672.87
                              694.10   732.09   761.83   814.52   889.37
                              944.21  1011.89  1150.63  1162.93  1189.52
                             1205.03  1210.96  1286.12  1305.60  1341.93
                             1356.00  1377.17  1390.19  1410.92  1419.41
                             1463.58  1501.73  1522.34  1543.67  1550.39
                             1599.78  1613.08  1653.30  1666.83  1685.85
                             1726.64  1743.34  1747.65  1754.21  1757.16
                             1799.40  1824.79  1851.24  1874.29  1921.55
                             1935.02  1946.35  1985.21  1994.04  1997.09
                             2007.43  2028.74  2034.87  2042.95  2049.79
                             2060.19  2063.06  2067.02  2085.21  2160.40
                             2169.49  2177.05  2178.41  2185.53  2189.50
                             2191.69  2205.13  2208.64  2221.32  2235.11
                             2684.57  4239.13  4338.13  4342.63  4346.95
                             4361.90  4366.62  4373.33  4392.04  4405.82
                             4406.90  4412.08  4437.76  4440.86  4450.57
                             4454.98  4462.98  4476.46  4486.77  4501.69
                             4510.74  4519.77  4526.04

 Zero-point correction=                           0.341581 (Hartree/Particle)
 Thermal correction to Energy=                    0.357557
 Thermal correction to Enthalpy=                  0.358501
 Thermal correction to Gibbs Free Energy=         0.297384
 Sum of electronic and zero-point Energies=           -730.188392
 Sum of electronic and thermal Energies=              -730.172416
 Sum of electronic and thermal Enthalpies=            -730.171472
 Sum of electronic and thermal Free Energies=         -730.232589

                     E (Thermal)             CV                S
                      KCal/Mol        Cal/Mol-Kelvin    Cal/Mol-Kelvin
 Total                  224.370             61.570            128.631
 Electronic               0.000              0.000              0.000
 Translational            0.889              2.981             42.151
 Rotational               0.889              2.981             32.643
 Vibrational            222.593             55.608             53.837
 Vibration     1          0.593              1.985              6.211
 Vibration     2          0.595              1.980              5.134
 Vibration     3          0.597              1.973              4.431
 Vibration     4          0.598              1.969              4.175
 Vibration     5          0.602              1.954              3.587
 Vibration     6          0.611              1.926              2.993
 Vibration     7          0.627              1.875              2.396
 Vibration     8          0.636              1.845              2.168
 Vibration     9          0.636              1.845              2.165
 Vibration    10          0.644              1.820              2.011
 Vibration    11          0.650              1.803              1.918
 Vibration    12          0.664              1.758              1.710
 Vibration    13          0.691              1.679              1.432
 Vibration    14          0.706              1.634              1.307
 Vibration    15          0.734              1.556              1.125
 Vibration    16          0.759              1.489              0.995
 Vibration    17          0.771              1.456              0.940
 Vibration    18          0.792              1.402              0.855
 Vibration    19          0.813              1.352              0.783
 Vibration    20          0.825              1.322              0.744
 Vibration    21          0.839              1.289              0.704
 Vibration    22          0.864              1.230              0.636
 Vibration    23          0.884              1.185              0.588
 Vibration    24          0.922              1.105              0.512
 Vibration    25          0.978              0.994              0.419

 Optimization completed.
    -- Stationary point found.
 Normal termination of Gaussian 16 at Fri Dec 11 00:42:51 2020.

 ----------------------------------------------------------------------
 # B3LYP/6-311++G(d,p) empiricaldispersion=gd3bj scf=xqc pop=npa geom=c
 heck
 ----------------------------------------------------------------------

 ---------------------------------------
 CID_134011118_JID_6725_Energie_neutraal
 ---------------------------------------
 Structure from the checkpoint file:  "JID_6725.chk"
 Charge =  0 Multiplicity = 1

 SCF Done:  E(RB3LYP) =  -730.732306533     A.U. after   15 cycles
 Normal termination of Gaussian 16 at Fri Dec 11 00:49:20 2020.

 ----------------------------------------------------------------------
 # B3LYP/6-311++G(d,p) empiricaldispersion=gd3bj scf=xqc pop=npa geom=c
 heck
 ----------------------------------------------------------------------

 -------------------------------------
 CID_134011118_JID_6725_Energie_kation
 -------------------------------------
 Structure from the checkpoint file:  "JID_6725.chk"
 Charge =  1 Multiplicity = 2

 SCF Done:  E(UB3LYP) =  -730.479603547     A.U. after   18 cycles
 Normal termination of Gaussian 16 at Fri Dec 11 00:59:55 2020.
 Gaussian 16:  ES64L-G16RevA.03 25-Dec-2016

 ----------------------------------------------------------------------
 # B3LYP/6-311++G(d,p) empiricaldispersion=gd3bj scf=xqc pop=npa geom=c
 heck
 ----------------------------------------------------------------------

 ------------------------------------
 CID_134011118_JID_6725_Energie_anion
 ------------------------------------
 Structure from the checkpoint file:  "JID_6725.chk"
 Charge = -1 Multiplicity = 2

                         Standard orientation:
 ---------------------------------------------------------------------
 Center     Atomic      Atomic             Coordinates (Angstroms)
 Number     Number       Type             X           Y           Z
 ---------------------------------------------------------------------
      1          6           0        4.343930   -1.428123   -0.185866
      2          6           0        3.933418   -0.026147    0.271823
      3          6           0        5.045342    0.998468    0.020985
      4          6           0        2.637426    0.426018   -0.423220
      5          7           0        1.511923   -0.472903   -0.167304
      6          6           0        0.888766   -0.309449    1.152205
      7          6           0        0.018045    0.954838    1.234857
      8          7           0       -0.993480    1.034116    0.177751
      9          6           0       -0.431433    0.773953   -1.152737
     10          6           0        0.475259   -0.470344   -1.202369
     11          6           0       -2.320372    0.559712    0.473998
     12          6           0       -3.452836    1.272279   -0.285296
     13          6           0       -4.593499    0.258214   -0.199850
     14          8           0       -3.956602   -1.041223   -0.169636
     15          6           0       -2.662173   -0.932169    0.231280
     16          8           0       -1.954937   -1.898900    0.370040
     17          1           0        4.599949   -1.424137   -1.254033
     18          1           0        3.521349   -2.133322   -0.040774
     19          1           0        5.221156   -1.785096    0.366080
     20          1           0        3.748458   -0.060268    1.355290
     21          1           0        5.268482    1.076507   -1.051190
     22          1           0        4.762092    1.996653    0.376460
     23          1           0        5.971122    0.709307    0.530904
     24          1           0        2.433438    1.476693   -0.146261
     25          1           0        2.815389    0.427102   -1.506722
     26          1           0        0.263485   -1.188707    1.337640
     27          1           0        1.669728   -0.278835    1.919778
     28          1           0        0.657615    1.845685    1.152156
     29          1           0       -0.482401    1.013570    2.207856
     30          1           0        0.147464    1.660269   -1.452085
     31          1           0       -1.246680    0.672319   -1.877255
     32          1           0        0.958318   -0.536615   -2.184535
     33          1           0       -0.133968   -1.367251   -1.062757
     34          1           0       -2.481535    0.710977    1.550757
     35          1           0       -3.707278    2.241123    0.149953
     36          1           0       -3.161353    1.433722   -1.327723
     37          1           0       -5.179892    0.372361    0.719611
     38          1           0       -5.272958    0.266944   -1.054368
 ---------------------------------------------------------------------

 SCF Done:  E(UB3LYP) =  -730.722139940     A.U. after   33 cycles
 SCF Done:  E(UB3LYP) =  -730.722139940     a.u. after    1 cycles

 The electronic state is 2-A.
 Alpha  occ. eigenvalues --  -19.07211 -19.01669 -14.21313 -14.20390 -10.20132
 Alpha  occ. eigenvalues --  -10.13613 -10.12508 -10.09916 -10.09683 -10.09637
 Alpha  occ. eigenvalues --  -10.09063 -10.08910 -10.08385 -10.08261 -10.07278
 Alpha  occ. eigenvalues --  -10.06607  -1.01160  -0.93393  -0.85109  -0.81169
 Alpha  occ. eigenvalues --   -0.71374  -0.69777  -0.66618  -0.63835  -0.60451
 Alpha  occ. eigenvalues --   -0.59670  -0.55954  -0.54853  -0.52232  -0.48909
 Alpha  occ. eigenvalues --   -0.46890  -0.44512  -0.43034  -0.41662  -0.38564
 Alpha  occ. eigenvalues --   -0.38403  -0.37127  -0.36926  -0.36392  -0.35510
 Alpha  occ. eigenvalues --   -0.34750  -0.33703  -0.33022  -0.32591  -0.31040
 Alpha  occ. eigenvalues --   -0.30822  -0.29995  -0.29314  -0.28656  -0.28213
 Alpha  occ. eigenvalues --   -0.26587  -0.26550  -0.25902  -0.25322  -0.24442
 Alpha  occ. eigenvalues --   -0.24167  -0.23909  -0.22883  -0.20777  -0.19100
 Alpha  occ. eigenvalues --   -0.14157  -0.09250   0.04009
 Alpha virt. eigenvalues --    0.05501   0.06751   0.07257   0.07676   0.07964
 Alpha virt. eigenvalues --    0.08633   0.08929   0.09438   0.09899   0.10138
 Alpha virt. eigenvalues --    0.10351   0.10814   0.11743   0.12178   0.12355

  Beta  occ. eigenvalues --  -19.07199 -19.01662 -14.21315 -14.20390 -10.20119
  Beta  occ. eigenvalues --  -10.13572 -10.12492 -10.09897 -10.09670 -10.09616
  Beta  occ. eigenvalues --  -10.09059 -10.08905 -10.08380 -10.08224 -10.07255
  Beta  occ. eigenvalues --  -10.06598  -1.01136  -0.93376  -0.85099  -0.81159
  Beta  occ. eigenvalues --   -0.71354  -0.69735  -0.66595  -0.63777  -0.60420
  Beta  occ. eigenvalues --   -0.59639  -0.55913  -0.54818  -0.52167  -0.48866
  Beta  occ. eigenvalues --   -0.46854  -0.44470  -0.42971  -0.41619  -0.38533
  Beta  occ. eigenvalues --   -0.38375  -0.37099  -0.36892  -0.36357  -0.35486
  Beta  occ. eigenvalues --   -0.34729  -0.33673  -0.32974  -0.32565  -0.30985
  Beta  occ. eigenvalues --   -0.30791  -0.29974  -0.29291  -0.28625  -0.28189
  Beta  occ. eigenvalues --   -0.26545  -0.26512  -0.25880  -0.25300  -0.24420
  Beta  occ. eigenvalues --   -0.24143  -0.23879  -0.22865  -0.20715  -0.19085
  Beta  occ. eigenvalues --   -0.14146  -0.09239
  Beta virt. eigenvalues --    0.05800   0.06811   0.07318   0.07697   0.08049
  Beta virt. eigenvalues --    0.08331   0.08968   0.09351   0.09877   0.10323
  Beta virt. eigenvalues --    0.10371   0.10582   0.10898   0.12107   0.12326

 Mulliken charges and spin densities:
               1          2
     1  C   -0.198541  -0.244882
     2  C   -0.239479   0.738134
     3  C   -0.005876  -0.746929
     4  C   -0.274227  -0.652878
     5  N    0.249250   0.034139
     6  C   -0.597807   0.212652
     7  C    0.433574  -0.616720
     8  N    0.182445   0.106373
     9  C    0.725631  -0.881411
    10  C   -0.593007   0.317926
    11  C   -1.505325   0.712000
    12  C    0.951788  -0.875091
    13  C    1.082079  -1.486492
    14  O   -0.140552   0.065983
    15  C    0.453363  -0.353943
    16  O   -0.310272   0.017130
    17  H    0.061978   0.053539
    18  H    0.165382  -0.005105
    19  H   -0.029933   0.166496
    20  H    0.099697   0.020737
    21  H   -0.025271   0.149335
    22  H   -0.199776   0.336494
    23  H   -0.086097   0.233255
    24  H    0.283630  -0.197724
    25  H    0.153927  -0.011425
    26  H    0.194466   0.017192
    27  H   -0.001793   0.136655
    28  H   -0.142890   0.334160
    29  H   -0.325119   0.472278
    30  H   -0.136448   0.354482
    31  H    0.093834   0.038450
    32  H    0.030468   0.112051
    33  H    0.204163   0.010944
    34  H   -0.187223   0.368668
    35  H   -0.541396   0.743649
    36  H   -0.086591   0.201897
    37  H   -0.329676   0.513825
    38  H   -0.408377   0.604157
 Sum of Mulliken charges =  -1.00000   1.00000

 Dipole moment (field-independent basis, Debye):
    X=              4.8984    Y=             -2.6242    Z=             -1.7071  Tot=              5.8133
 Quadrupole moment (field-independent basis, Debye-Ang):
   XX=           -205.3582   YY=           -146.1590   ZZ=           -130.9277
   XY=              5.1724   XZ=              1.5694   YZ=             -3.1504

 Summary of Natural Population Analysis:

                                       Natural Population
                Natural  -----------------------------------------------
    Atom  No    Charge         Core      Valence    Rydberg      Total
 -----------------------------------------------------------------------
      C    1   -0.28592      0.99965     2.28118    0.00510     3.28592
      C    2   -0.12102      0.99962     2.11133    0.01007     3.12102
      C    3   -0.28241      0.99965     2.27797    0.00479     3.28241
      C    4   -0.08410      0.99958     2.07240    0.01211     3.08410
      N    5   -0.28321      0.99973     2.77185    0.01162     3.78321
      C    6   -0.09689      0.99960     2.08680    0.01049     3.09689
      C    7   -0.08820      0.99960     2.07775    0.01085     3.08820
      N    8   -0.28196      0.99971     2.76621    0.01605     3.78196
      C    9   -0.09323      0.99960     2.08321    0.01042     3.09323
      C   10   -0.09345      0.99961     2.08314    0.01071     3.09345
      C   11   -0.04996      0.99952     2.03529    0.01514     3.04996
      C   12   -0.20442      0.99963     2.19498    0.00981     3.20442
      C   13   -0.00982      0.99959     1.99842    0.01181     3.00982
      O   14   -0.27400      0.99987     3.26630    0.00783     4.27400
      C   15    0.40215      0.99967     1.57076    0.02742     2.59785
      O   16   -0.30070      0.99986     3.29462    0.00622     4.30070
      H   17    0.09284      0.00000     0.40633    0.00083     0.40716
      H   18    0.10884      0.00000     0.39004    0.00112     0.39116
      H   19    0.09492      0.00000     0.40431    0.00077     0.40508
      H   20    0.09163      0.00000     0.40633    0.00204     0.40837
      H   21    0.09463      0.00000     0.40437    0.00100     0.40537
      H   22    0.10018      0.00000     0.39870    0.00112     0.39982
      H   23    0.09847      0.00000     0.40063    0.00090     0.40153
      H   24    0.08523      0.00000     0.41315    0.00161     0.41477
      H   25    0.09240      0.00000     0.40639    0.00120     0.40760
      H   26    0.10606      0.00000     0.39270    0.00124     0.39394
      H   27    0.09294      0.00000     0.40588    0.00118     0.40706
      H   28    0.09121      0.00000     0.40745    0.00134     0.40879
      H   29    0.09904      0.00000     0.39968    0.00128     0.40096
      H   30    0.09255      0.00000     0.40625    0.00120     0.40745
      H   31    0.09722      0.00000     0.40150    0.00128     0.40278
      H   32    0.09176      0.00000     0.40736    0.00088     0.40824
      H   33    0.10540      0.00000     0.39327    0.00133     0.39460
      H   34    0.11496      0.00000     0.38243    0.00260     0.38504
      H   35    0.11266      0.00000     0.38340    0.00394     0.38734
      H   36    0.10093      0.00000     0.39718    0.00189     0.39907
      H   37    0.08897      0.00000     0.40860    0.00243     0.41103
      H   38    0.09427      0.00000     0.40395    0.00178     0.40573
 =======================================================================
   * Total *   -0.00000     15.99448    45.79214    0.21338    62.00000

 Normal termination of Gaussian 16 at Fri Dec 11 01:18:34 2020.
