 Gaussian 16, Revision A.03,

 -----------------------------------------------------------
 # opt freq B3LYP/6-31G(d) empiricaldispersion=gd3bj scf=xqc
 -----------------------------------------------------------

 ------------------------------
 CID_43302901_JID_9086_neutraal
 ------------------------------
 Symbolic Z-matrix:
 Charge =  0 Multiplicity = 1

 SCF Done:  E(RB3LYP) =  -1182.65422578     A.U. after   15 cycles
 SCF Done:  E(RB3LYP) =  -1182.50325581     A.U. after   15 cycles
 SCF Done:  E(RB3LYP) =  -1182.65803282     A.U. after   13 cycles
 SCF Done:  E(RB3LYP) =  -1182.66071596     A.U. after   13 cycles
 SCF Done:  E(RB3LYP) =  -1182.65987664     A.U. after   13 cycles
 SCF Done:  E(RB3LYP) =  -1182.66101972     A.U. after   11 cycles
 SCF Done:  E(RB3LYP) =  -1182.66130757     A.U. after   12 cycles
 SCF Done:  E(RB3LYP) =  -1182.66134047     A.U. after   11 cycles
 SCF Done:  E(RB3LYP) =  -1182.66137366     A.U. after   11 cycles
 SCF Done:  E(RB3LYP) =  -1182.66139064     A.U. after   10 cycles
 SCF Done:  E(RB3LYP) =  -1182.66140178     A.U. after    8 cycles
 SCF Done:  E(RB3LYP) =  -1182.66140000     A.U. after    9 cycles
 SCF Done:  E(RB3LYP) =  -1182.66139995     A.U. after    7 cycles
 SCF Done:  E(RB3LYP) =  -1182.66139957     A.U. after    8 cycles
 SCF Done:  E(RB3LYP) =  -1182.66139953     A.U. after    7 cycles
 Optimization completed.
    -- Stationary point found.
 Normal termination of Gaussian 16 at Mon Dec 14 13:38:44 2020.

 --------------------------------------------------------------------
 #N Geom=AllCheck Guess=TCheck SCRF=Check GenChk RB3LYP/6-31G(d) Freq
 --------------------------------------------------------------------

 Structure from the checkpoint file:  "JID_9086.chk"
 ------------------------------
 CID_43302901_JID_9086_neutraal
 ------------------------------
 Charge =  0 Multiplicity = 1

 SCF Done:  E(RB3LYP) =  -1182.66139953     A.U. after    1 cycles

  Exact polarizability: 169.022  26.268 202.075  -8.503   6.460 158.911
 Approx polarizability: 244.264  54.273 319.970 -21.137   7.603 278.746

                      1                      2                      3
                      A                      A                      A
 Frequencies --     17.3774                28.2144                52.0118
 Red. masses --      3.8610                 4.0611                 4.9251
 Frc consts  --      0.0007                 0.0019                 0.0078
 IR Inten    --      0.0947                 0.4266                 0.8943

                      4                      5                      6
                      A                      A                      A
 Frequencies --     57.4164                75.1543                84.4559
 Red. masses --      4.4543                 4.2865                 3.6692
 Frc consts  --      0.0087                 0.0143                 0.0154
 IR Inten    --      0.3694                 0.1315                 0.3898

                      7                      8                      9
                      A                      A                      A
 Frequencies --     92.2016               113.0177               135.6699
 Red. masses --      5.2604                 3.2175                 1.0413
 Frc consts  --      0.0263                 0.0242                 0.0113
 IR Inten    --      0.1103                 1.3693                 0.5258

                     10                     11                     12
                      A                      A                      A
 Frequencies --    159.4535               173.4262               218.4686
 Red. masses --      2.2767                 4.9027                 2.5075
 Frc consts  --      0.0341                 0.0869                 0.0705
 IR Inten    --      0.3292                 0.6453                 4.6339

                     13                     14                     15
                      A                      A                      A
 Frequencies --    227.9673               252.9186               267.6172
 Red. masses --      1.8020                 5.6488                 3.1969
 Frc consts  --      0.0552                 0.2129                 0.1349
 IR Inten    --      1.7746                 1.1404                 1.4182

                     16                     17                     18
                      A                      A                      A
 Frequencies --    290.4512               303.2323               314.1218
 Red. masses --      1.8650                 2.5216                 2.7009
 Frc consts  --      0.0927                 0.1366                 0.1570
 IR Inten    --      2.4687                 2.1057                 1.6066

                     19                     20                     21
                      A                      A                      A
 Frequencies --    324.7376               357.8017               386.7023
 Red. masses --      1.1878                 4.4586                 5.0500
 Frc consts  --      0.0738                 0.3363                 0.4449
 IR Inten    --     12.3122                 2.3348                 0.4420

                     22                     23                     24
                      A                      A                      A
 Frequencies --    400.9512               423.6683               459.7776
 Red. masses --      2.8691                 3.3360                 3.0066
 Frc consts  --      0.2718                 0.3528                 0.3745
 IR Inten    --      0.2989                 0.3928                 9.0628

                     25                     26                     27
                      A                      A                      A
 Frequencies --    478.1745               490.6819               555.3613
 Red. masses --      2.9944                 3.0176                 2.3406
 Frc consts  --      0.4034                 0.4281                 0.4253
 IR Inten    --      1.8204                 0.3227               147.1869

                     28                     29                     30
                      A                      A                      A
 Frequencies --    565.1307               608.8700               618.5392
 Red. masses --      2.5266                 2.9126                 3.9194
 Frc consts  --      0.4754                 0.6362                 0.8835
 IR Inten    --     95.1689                71.0755                20.7383

                     31                     32                     33
                      A                      A                      A
 Frequencies --    650.5505               657.7086               720.8707
 Red. masses --      4.4502                 5.7967                 3.3960
 Frc consts  --      1.1097                 1.4774                 1.0398
 IR Inten    --      9.7816                 0.9434                 3.7492

                     34                     35                     36
                      A                      A                      A
 Frequencies --    738.5813               747.9857               750.9369
 Red. masses --      4.5530                 1.8332                 5.3227
 Frc consts  --      1.4634                 0.6043                 1.7684
 IR Inten    --      2.9732                 2.5129                 0.9597

                     37                     38                     39
                      A                      A                      A
 Frequencies --    778.1452               790.5396               818.1271
 Red. masses --      3.6423                 2.2434                 1.4352
 Frc consts  --      1.2994                 0.8260                 0.5660
 IR Inten    --      7.4243                14.2682                25.3088

                     40                     41                     42
                      A                      A                      A
 Frequencies --    824.7233               862.9054               890.8700
 Red. masses --      2.8661                 1.4704                 3.0329
 Frc consts  --      1.1486                 0.6451                 1.4182
 IR Inten    --      0.2131                21.6010                 5.5011

                     43                     44                     45
                      A                      A                      A
 Frequencies --    903.2067               925.9605               946.3459
 Red. masses --      1.5606                 3.2843                 1.3094
 Frc consts  --      0.7501                 1.6591                 0.6909
 IR Inten    --      1.9717                12.6488                 0.1272

                     46                     47                     48
                      A                      A                      A
 Frequencies --    957.4703               973.2722               983.5989
 Red. masses --      2.2825                 3.0705                 1.6232
 Frc consts  --      1.2328                 1.7137                 0.9253
 IR Inten    --      0.1931                 1.0013                 3.3860

                     49                     50                     51
                      A                      A                      A
 Frequencies --   1023.2985              1038.6112              1058.9166
 Red. masses --      6.4148                 1.5480                 5.1195
 Frc consts  --      3.9576                 0.9838                 3.3822
 IR Inten    --      0.8972                 3.6148                 8.0057

                     52                     53                     54
                      A                      A                      A
 Frequencies --   1068.9323              1077.3677              1095.0335
 Red. masses --      4.2432                 1.5392                 1.8748
 Frc consts  --      2.8566                 1.0526                 1.3245
 IR Inten    --      0.0177                 5.2116                 0.8673

                     55                     56                     57
                      A                      A                      A
 Frequencies --   1112.5288              1126.0202              1144.6128
 Red. masses --      1.7504                 1.4736                 1.8506
 Frc consts  --      1.2765                 1.1009                 1.4285
 IR Inten    --      1.1452                 0.2001                 3.2408

                     58                     59                     60
                      A                      A                      A
 Frequencies --   1166.8394              1176.8482              1215.3311
 Red. masses --      1.3407                 1.4829                 1.6396
 Frc consts  --      1.0755                 1.2101                 1.4269
 IR Inten    --     18.7519                 2.2686                 2.0802

                     61                     62                     63
                      A                      A                      A
 Frequencies --   1220.0987              1275.8150              1283.1780
 Red. masses --      1.4149                 1.3530                 1.2656
 Frc consts  --      1.2409                 1.2975                 1.2278
 IR Inten    --     12.1554                 2.6052                 7.2983

                     64                     65                     66
                      A                      A                      A
 Frequencies --   1294.9573              1326.3801              1339.8169
 Red. masses --      1.6182                 1.7928                 1.4701
 Frc consts  --      1.5988                 1.8583                 1.5548
 IR Inten    --     39.3379                15.9310                 5.5193

                     67                     68                     69
                      A                      A                      A
 Frequencies --   1353.5508              1358.7021              1361.6554
 Red. masses --      3.3841                 3.2081                 2.0612
 Frc consts  --      3.6529                 3.4894                 2.2517
 IR Inten    --     38.8851                 9.6892                21.3026

                     70                     71                     72
                      A                      A                      A
 Frequencies --   1395.0232              1404.7422              1422.7924
 Red. masses --      1.3536                 1.7779                 2.0266
 Frc consts  --      1.5521                 2.0670                 2.4171
 IR Inten    --      7.5962                27.0236                24.5487

                     73                     74                     75
                      A                      A                      A
 Frequencies --   1441.0542              1450.9735              1478.8864
 Red. masses --      1.2881                 1.2347                 1.7535
 Frc consts  --      1.5760                 1.5316                 2.2596
 IR Inten    --     14.1012                 2.8271                 0.8034

                     76                     77                     78
                      A                      A                      A
 Frequencies --   1481.0545              1506.6863              1512.2541
 Red. masses --      1.3238                 1.0951                 1.0489
 Frc consts  --      1.7109                 1.4647                 1.4132
 IR Inten    --     10.8356                 4.0676                 5.6141

                     79                     80                     81
                      A                      A                      A
 Frequencies --   1517.1395              1517.8651              1521.6134
 Red. masses --      1.6161                 1.1483                 1.0566
 Frc consts  --      2.1916                 1.5587                 1.4413
 IR Inten    --      6.1881                10.2641                 2.7264

                     82                     83                     84
                      A                      A                      A
 Frequencies --   1531.9829              1540.4094              1545.2029
 Red. masses --      1.0777                 1.6552                 1.1030
 Frc consts  --      1.4903                 2.3140                 1.5516
 IR Inten    --      2.8426                35.7753                 9.6556

                     85                     86                     87
                      A                      A                      A
 Frequencies --   1562.0635              1624.7902              1627.5212
 Red. masses --      7.0586                 6.0555                 8.8510
 Frc consts  --     10.1477                 9.4188                13.8133
 IR Inten    --      4.1710                12.3177                77.6527

                     88                     89                     90
                      A                      A                      A
 Frequencies --   1662.6796              1694.2520              3034.7491
 Red. masses --      3.9265                 1.2610                 1.0610
 Frc consts  --      6.3954                 2.1326                 5.7574
 IR Inten    --     75.0112               145.3671                31.4418

                     91                     92                     93
                      A                      A                      A
 Frequencies --   3041.6182              3052.4656              3062.2351
 Red. masses --      1.0420                 1.0693                 1.0364
 Frc consts  --      5.6798                 5.8705                 5.7261
 IR Inten    --     33.9906                27.2897                18.1425

                     94                     95                     96
                      A                      A                      A
 Frequencies --   3072.3534              3082.3081              3096.9781
 Red. masses --      1.0888                 1.0726                 1.0592
 Frc consts  --      6.0555                 6.0040                 5.9857
 IR Inten    --      8.9139                35.1453                 6.5891

                     97                     98                     99
                      A                      A                      A
 Frequencies --   3103.3475              3121.0769              3123.9974
 Red. masses --      1.0930                 1.0965                 1.1005
 Frc consts  --      6.2022                 6.2934                 6.3278
 IR Inten    --      7.3949                40.6066                 9.8413

                    100                    101                    102
                      A                      A                      A
 Frequencies --   3124.9827              3133.1147              3138.0337
 Red. masses --      1.1034                 1.1019                 1.1026
 Frc consts  --      6.3487                 6.3732                 6.3968
 IR Inten    --     21.0666                26.0760                11.3106

                    103                    104                    105
                      A                      A                      A
 Frequencies --   3160.6398              3172.0386              3181.2423
 Red. masses --      1.1066                 1.0896                 1.0879
 Frc consts  --      6.5133                 6.4595                 6.4870
 IR Inten    --      1.1777                20.0227                13.2862

                    106                    107                    108
                      A                      A                      A
 Frequencies --   3204.0873              3558.8506              3659.5668
 Red. masses --      1.0940                 1.0476                 1.0989
 Frc consts  --      6.6171                 7.8171                 8.6710
 IR Inten    --      9.9969                24.8064                11.2135

 - Thermochemistry -
 -------------------
 Temperature   298.150 Kelvin.  Pressure   1.00000 Atm.
 Atom     1 has atomic number  6 and mass  12.00000

 Molecular mass:   277.12488 amu.
 Principal axes and moments of inertia in atomic units:
                           1         2         3
     Eigenvalues --  4660.163814914.452807580.92006
           X            0.99999  -0.00337   0.00409
           Y            0.00340   0.99997  -0.00749
           Z           -0.00407   0.00750   0.99996
 This molecule is an asymmetric top.
 Rotational symmetry number  1.
 Warning -- assumption of classical behavior for rotation
           may cause significant error
 Rotational temperatures (Kelvin)      0.01859     0.01762     0.01143
 Rotational constants (GHZ):           0.38727     0.36723     0.23806
 Zero-point vibrational energy     832221.3 (Joules/Mol)
                                  198.90567 (Kcal/Mol)
 Warning -- explicit consideration of  30 degrees of freedom as
           vibrations may cause significant error
 Vibrational temperatures:     25.00    40.59    74.83    82.61   108.13
          (Kelvin)            121.51   132.66   162.61   195.20   229.42
                              249.52   314.33   327.99   363.89   385.04
                              417.89   436.28   451.95   467.23   514.80
                              556.38   576.88   609.56   661.52   687.99
                              705.98   799.04   813.10   876.03   889.94
                              936.00   946.30  1037.17  1062.65  1076.18
                             1080.43  1119.58  1137.41  1177.10  1186.59
                             1241.53  1281.76  1299.51  1332.25  1361.58
                             1377.59  1400.32  1415.18  1472.30  1494.33
                             1523.54  1537.96  1550.09  1575.51  1600.68
                             1620.09  1646.84  1678.82  1693.22  1748.59
                             1755.45  1835.61  1846.21  1863.15  1908.37
                             1927.70  1947.46  1954.87  1959.12  2007.13
                             2021.11  2047.08  2073.36  2087.63  2127.79
                             2130.91  2167.79  2175.80  2182.83  2183.87
                             2189.26  2204.18  2216.31  2223.20  2247.46
                             2337.71  2341.64  2392.23  2437.65  4366.33
                             4376.21  4391.82  4405.87  4420.43  4434.75
                             4455.86  4465.02  4490.53  4494.74  4496.15
                             4507.85  4514.93  4547.46  4563.86  4577.10
                             4609.97  5120.39  5265.30

 Zero-point correction=                           0.316976 (Hartree/Particle)
 Thermal correction to Energy=                    0.336303
 Thermal correction to Enthalpy=                  0.337247
 Thermal correction to Gibbs Free Energy=         0.267683
 Sum of electronic and zero-point Energies=          -1182.344423
 Sum of electronic and thermal Energies=             -1182.325097
 Sum of electronic and thermal Enthalpies=           -1182.324153
 Sum of electronic and thermal Free Energies=        -1182.393717

                     E (Thermal)             CV                S
                      KCal/Mol        Cal/Mol-Kelvin    Cal/Mol-Kelvin
 Total                  211.033             72.400            146.410
 Electronic               0.000              0.000              0.000
 Translational            0.889              2.981             42.756
 Rotational               0.889              2.981             33.517
 Vibrational            209.256             66.439             70.136
 Vibration     1          0.593              1.986              6.913
 Vibration     2          0.593              1.984              5.951
 Vibration     3          0.596              1.977              4.739
 Vibration     4          0.596              1.975              4.544
 Vibration     5          0.599              1.966              4.014
 Vibration     6          0.601              1.960              3.785
 Vibration     7          0.602              1.955              3.613
 Vibration     8          0.607              1.939              3.216
 Vibration     9          0.613              1.918              2.864
 Vibration    10          0.621              1.892              2.556
 Vibration    11          0.627              1.875              2.398
 Vibration    12          0.646              1.813              1.972
 Vibration    13          0.651              1.798              1.895
 Vibration    14          0.664              1.758              1.710
 Vibration    15          0.673              1.733              1.612
 Vibration    16          0.686              1.691              1.471
 Vibration    17          0.695              1.668              1.399
 Vibration    18          0.702              1.647              1.341
 Vibration    19          0.709              1.626              1.286
 Vibration    20          0.733              1.559              1.132
 Vibration    21          0.755              1.499              1.013
 Vibration    22          0.767              1.468              0.959
 Vibration    23          0.786              1.419              0.880
 Vibration    24          0.818              1.339              0.767
 Vibration    25          0.835              1.298              0.715
 Vibration    26          0.846              1.271              0.682
 Vibration    27          0.911              1.128              0.533
 Vibration    28          0.921              1.107              0.514
 Vibration    29          0.968              1.013              0.435
 Vibration    30          0.978              0.993              0.419

 Optimization completed.
    -- Stationary point found.
 Normal termination of Gaussian 16 at Mon Dec 14 14:00:56 2020.

 ----------------------------------------------------------------------
 # B3LYP/6-311++G(d,p) empiricaldispersion=gd3bj scf=xqc pop=npa geom=c
 heck
 ----------------------------------------------------------------------

 --------------------------------------
 CID_43302901_JID_9086_Energie_neutraal
 --------------------------------------
 Structure from the checkpoint file:  "JID_9086.chk"
 Charge =  0 Multiplicity = 1

 SCF Done:  E(RB3LYP) =  -1182.90102151     A.U. after   16 cycles
 Normal termination of Gaussian 16 at Mon Dec 14 14:11:31 2020.

 ----------------------------------------------------------------------
 # B3LYP/6-311++G(d,p) empiricaldispersion=gd3bj scf=xqc pop=npa geom=c
 heck
 ----------------------------------------------------------------------

 ------------------------------------
 CID_43302901_JID_9086_Energie_kation
 ------------------------------------
 Structure from the checkpoint file:  "JID_9086.chk"
 Charge =  1 Multiplicity = 2

 SCF Done:  E(UB3LYP) =  -1182.62208545     A.U. after   25 cycles
 Normal termination of Gaussian 16 at Mon Dec 14 14:35:16 2020.
 Gaussian 16:  ES64L-G16RevA.03 25-Dec-2016

 ----------------------------------------------------------------------
 # B3LYP/6-311++G(d,p) empiricaldispersion=gd3bj scf=xqc pop=npa geom=c
 heck
 ----------------------------------------------------------------------

 -----------------------------------
 CID_43302901_JID_9086_Energie_anion
 -----------------------------------
 Structure from the checkpoint file:  "JID_9086.chk"
 Charge = -1 Multiplicity = 2

                         Standard orientation:
 ---------------------------------------------------------------------
 Center     Atomic      Atomic             Coordinates (Angstroms)
 Number     Number       Type             X           Y           Z
 ---------------------------------------------------------------------
      1          6           0        0.021954    3.011518   -1.371407
      2          6           0       -0.152799    2.681723    0.112143
      3          6           0       -1.554992    2.957103    0.668093
      4          6           0       -2.695589    2.176625   -0.022053
      5          6           0       -2.480485    0.696892   -0.009806
      6          7           0       -2.913708   -0.073967    0.958330
      7          8           0       -2.465238   -1.360508    0.578200
      8          6           0       -1.808866   -1.207170   -0.585195
      9          7           0       -1.781200    0.027254   -0.999382
     10          6           0       -1.185491   -2.386665   -1.232694
     11         16           0        0.296763   -3.030230   -0.322954
     12          6           0        1.258686   -1.534181   -0.136474
     13          6           0        1.379207   -0.903276    1.119846
     14          6           0        2.168105    0.243612    1.212576
     15          6           0        2.809871    0.801511    0.095882
     16          6           0        2.675212    0.163651   -1.146856
     17          6           0        1.918182   -0.994967   -1.247398
     18          7           0        3.506719    2.001731    0.208335
     19          6           0        0.678443   -1.423961    2.350508
     20          1           0       -0.571638    2.339205   -1.998623
     21          1           0        1.071088    2.894073   -1.662190
     22          1           0       -0.276270    4.045150   -1.591234
     23          1           0        0.101766    1.629908    0.271943
     24          1           0        0.571726    3.259691    0.700027
     25          1           0       -1.572932    2.713008    1.737781
     26          1           0       -1.786398    4.027553    0.583407
     27          1           0       -3.640986    2.397991    0.482910
     28          1           0       -2.792848    2.491052   -1.065636
     29          1           0       -1.883694   -3.227841   -1.267342
     30          1           0       -0.907923   -2.105418   -2.249550
     31          1           0        2.261608    0.741408    2.175206
     32          1           0        3.163359    0.577591   -2.025405
     33          1           0        1.831092   -1.495413   -2.207193
     34          1           0        3.846662    2.221668    1.135696
     35          1           0        4.208431    2.165353   -0.502171
     36          1           0        0.999709   -2.441667    2.596187
     37          1           0        0.884664   -0.782113    3.211988
     38          1           0       -0.405023   -1.463064    2.201896
 ---------------------------------------------------------------------

 SCF Done:  E(UB3LYP) =  -1182.89744292     A.U. after   33 cycles
 SCF Done:  E(UB3LYP) =  -1182.89744292     a.u. after    1 cycles

 The electronic state is 2-A.
 Alpha  occ. eigenvalues --  -88.73170 -19.08795 -14.23797 -14.21125 -14.19539
 Alpha  occ. eigenvalues --  -10.14630 -10.11864 -10.10743 -10.10499 -10.08295
 Alpha  occ. eigenvalues --  -10.08238 -10.07846 -10.07187 -10.06886 -10.06313
 Alpha  occ. eigenvalues --  -10.06107 -10.06066 -10.05178 -10.04666  -7.81798
 Alpha  occ. eigenvalues --   -5.78213  -5.77838  -5.77146  -1.03774  -0.81733
 Alpha  occ. eigenvalues --   -0.81600  -0.76287  -0.74664  -0.69614  -0.68182
 Alpha  occ. eigenvalues --   -0.66687  -0.63083  -0.62579  -0.58795  -0.55815
 Alpha  occ. eigenvalues --   -0.55443  -0.50468  -0.49965  -0.48727  -0.47090
 Alpha  occ. eigenvalues --   -0.44974  -0.41206  -0.40372  -0.39429  -0.37663
 Alpha  occ. eigenvalues --   -0.36239  -0.35297  -0.34929  -0.34432  -0.33698
 Alpha  occ. eigenvalues --   -0.32239  -0.31778  -0.31391  -0.30730  -0.30577
 Alpha  occ. eigenvalues --   -0.29056  -0.28435  -0.28251  -0.27173  -0.26979
 Alpha  occ. eigenvalues --   -0.26410  -0.24227  -0.23033  -0.22806  -0.22259
 Alpha  occ. eigenvalues --   -0.22145  -0.22009  -0.20338  -0.20017  -0.17874
 Alpha  occ. eigenvalues --   -0.16739  -0.14513  -0.12913  -0.10197   0.04199
 Alpha virt. eigenvalues --    0.05840   0.07292   0.07734   0.08025   0.08907
 Alpha virt. eigenvalues --    0.09023   0.09551   0.09820   0.09957   0.10188
 Alpha virt. eigenvalues --    0.10886   0.11961   0.12158   0.12702   0.12861

  Beta  occ. eigenvalues --  -88.73121 -19.08611 -14.23597 -14.21046 -14.19522
  Beta  occ. eigenvalues --  -10.14400 -10.11841 -10.10665 -10.10437 -10.08280
  Beta  occ. eigenvalues --  -10.08219 -10.07849 -10.07153 -10.06879 -10.06323
  Beta  occ. eigenvalues --  -10.06114 -10.06067 -10.05173 -10.04662  -7.81745
  Beta  occ. eigenvalues --   -5.78127  -5.77773  -5.77110  -1.03466  -0.81554
  Beta  occ. eigenvalues --   -0.81483  -0.75974  -0.74565  -0.69567  -0.67971
  Beta  occ. eigenvalues --   -0.66642  -0.63016  -0.62441  -0.58741  -0.55763
  Beta  occ. eigenvalues --   -0.55198  -0.50372  -0.49880  -0.48563  -0.46983
  Beta  occ. eigenvalues --   -0.44869  -0.41123  -0.40294  -0.39174  -0.37142
  Beta  occ. eigenvalues --   -0.36178  -0.35194  -0.34755  -0.34364  -0.33625
  Beta  occ. eigenvalues --   -0.32116  -0.31668  -0.31299  -0.30651  -0.30525
  Beta  occ. eigenvalues --   -0.28978  -0.28341  -0.28118  -0.27049  -0.26782
  Beta  occ. eigenvalues --   -0.26330  -0.24192  -0.22914  -0.22723  -0.22198
  Beta  occ. eigenvalues --   -0.22007  -0.21856  -0.19866  -0.19763  -0.17742
  Beta  occ. eigenvalues --   -0.15765  -0.14434  -0.12753  -0.10006
  Beta virt. eigenvalues --    0.06927   0.07593   0.07766   0.07993   0.08373
  Beta virt. eigenvalues --    0.08939   0.09384   0.09712   0.09934   0.10123
  Beta virt. eigenvalues --    0.10456   0.11022   0.12116   0.12343   0.12691

 Mulliken charges and spin densities:
               1          2
     1  C   -0.661067  -0.176019
     2  C    0.227766   0.065432
     3  C   -0.191060  -0.083979
     4  C   -0.679201   0.320902
     5  C    0.615014  -0.138547
     6  N   -0.256260   0.098722
     7  O    0.215813   0.034792
     8  C   -0.402364   0.153547
     9  N    0.077996   0.010189
    10  C   -1.011882  -0.088385
    11  S   -0.468224   0.148071
    12  C    1.030981  -0.249972
    13  C   -0.071825   0.274549
    14  C   -0.195640  -0.018734
    15  C    1.301992  -1.570908
    16  C   -0.302312   0.059853
    17  C   -0.527264   0.030726
    18  N   -0.477846   0.228205
    19  C   -0.527602  -0.014357
    20  H    0.155462  -0.003477
    21  H    0.119454   0.009348
    22  H    0.027316   0.083883
    23  H    0.219692  -0.032507
    24  H    0.130761   0.028176
    25  H    0.120159   0.019883
    26  H    0.044691   0.101426
    27  H    0.109943   0.070743
    28  H    0.154586  -0.001382
    29  H    0.212457  -0.006076
    30  H    0.208782   0.005757
    31  H   -0.039072   0.194092
    32  H   -0.089299   0.238104
    33  H    0.168986  -0.002837
    34  H   -0.327527   0.582588
    35  H   -0.355602   0.609752
    36  H    0.145890   0.011962
    37  H    0.112479   0.005202
    38  H    0.183825   0.001274
 Sum of Mulliken charges =  -1.00000   1.00000

 Dipole moment (field-independent basis, Debye):
    X=             -4.7648    Y=             -2.5656    Z=             -1.4226  Tot=              5.5955
 Quadrupole moment (field-independent basis, Debye-Ang):
   XX=           -190.4036   YY=           -165.5716   ZZ=           -140.9255
   XY=            -17.6857   XZ=              3.1205   YZ=              1.4702

 Summary of Natural Population Analysis:

                                       Natural Population
                Natural  -----------------------------------------------
    Atom  No    Charge         Core      Valence    Rydberg      Total
 -----------------------------------------------------------------------
      C    1   -0.28969      0.99966     2.28419    0.00584     3.28969
      C    2   -0.20014      0.99963     2.19197    0.00853     3.20014
      C    3   -0.18010      0.99963     2.17275    0.00773     3.18010
      C    4   -0.20994      0.99958     2.20211    0.00825     3.20994
      C    5    0.17192      0.99964     1.80912    0.01932     2.82808
      N    6   -0.07778      0.99966     2.56523    0.01290     3.57778
      O    7   -0.16299      0.99985     3.15407    0.00907     4.16299
      C    8    0.30896      0.99960     1.67250    0.01894     2.69104
      N    9   -0.27598      0.99967     2.76626    0.01005     3.77598
      C   10   -0.26244      0.99952     2.25447    0.00845     3.26244
      S   11    0.11298      4.99958     2.86795    0.01949     7.88702
      C   12   -0.11486      0.99932     2.10214    0.01340     3.11486
      C   13   -0.00304      0.99945     1.99338    0.01020     3.00304
      C   14   -0.13071      0.99947     2.12158    0.00966     3.13071
      C   15    0.10249      0.99949     1.88504    0.01299     2.89751
      C   16   -0.13340      0.99951     2.12396    0.00993     3.13340
      C   17   -0.07751      0.99950     2.06715    0.01085     3.07751
      N   18   -0.39116      0.99971     2.88022    0.01122     3.89116
      C   19   -0.29561      0.99963     2.29114    0.00484     3.29561
      H   20    0.10249      0.00000     0.39646    0.00104     0.39751
      H   21    0.10346      0.00000     0.39567    0.00087     0.39654
      H   22    0.08720      0.00000     0.41202    0.00078     0.41280
      H   23    0.10670      0.00000     0.39076    0.00254     0.39330
      H   24    0.09664      0.00000     0.40218    0.00119     0.40336
      H   25    0.09764      0.00000     0.40129    0.00107     0.40236
      H   26    0.09065      0.00000     0.40835    0.00100     0.40935
      H   27    0.10623      0.00000     0.39243    0.00134     0.39377
      H   28    0.10534      0.00000     0.39354    0.00113     0.39466
      H   29    0.11125      0.00000     0.38770    0.00105     0.38875
      H   30    0.11003      0.00000     0.38875    0.00122     0.38997
      H   31    0.09778      0.00000     0.40086    0.00136     0.40222
      H   32    0.09891      0.00000     0.39978    0.00131     0.40109
      H   33    0.09954      0.00000     0.39951    0.00095     0.40046
      H   34    0.18877      0.00000     0.30522    0.00601     0.31123
      H   35    0.18888      0.00000     0.30456    0.00656     0.31112
      H   36    0.10479      0.00000     0.39435    0.00086     0.39521
      H   37    0.09639      0.00000     0.40284    0.00077     0.40361
      H   38    0.11631      0.00000     0.38264    0.00106     0.38369
 =======================================================================
   * Total *    0.00000     22.99211    50.76414    0.24375    74.00000

 Normal termination of Gaussian 16 at Mon Dec 14 15:04:42 2020.
