 Gaussian 16, Revision A.03,

 -----------------------------------------------------------
 # opt freq B3LYP/6-31G(d) empiricaldispersion=gd3bj scf=xqc
 -----------------------------------------------------------

 -------------------------------
 CID_114663183_JID_4104_neutraal
 -------------------------------
 Symbolic Z-matrix:
 Charge =  0 Multiplicity = 1

 SCF Done:  E(RB3LYP) =  -630.782499799     A.U. after   14 cycles
 SCF Done:  E(RB3LYP) =  -630.786665792     A.U. after   12 cycles
 SCF Done:  E(RB3LYP) =  -630.787170650     A.U. after   11 cycles
 SCF Done:  E(RB3LYP) =  -630.787524779     A.U. after   12 cycles
 SCF Done:  E(RB3LYP) =  -630.787652406     A.U. after   12 cycles
 SCF Done:  E(RB3LYP) =  -630.787825409     A.U. after   10 cycles
 SCF Done:  E(RB3LYP) =  -630.788254647     A.U. after   12 cycles
 SCF Done:  E(RB3LYP) =  -630.788433940     A.U. after   12 cycles
 SCF Done:  E(RB3LYP) =  -630.788263839     A.U. after   11 cycles
 SCF Done:  E(RB3LYP) =  -630.788630349     A.U. after   12 cycles
 SCF Done:  E(RB3LYP) =  -630.789571219     A.U. after   11 cycles
 SCF Done:  E(RB3LYP) =  -630.789573146     A.U. after   10 cycles
 SCF Done:  E(RB3LYP) =  -630.789574883     A.U. after   10 cycles
 SCF Done:  E(RB3LYP) =  -630.789575289     A.U. after    8 cycles
 SCF Done:  E(RB3LYP) =  -630.789575379     A.U. after    8 cycles
 SCF Done:  E(RB3LYP) =  -630.789575403     A.U. after    7 cycles
 Optimization completed.
    -- Stationary point found.
 Normal termination of Gaussian 16 at Thu Dec 10 09:39:20 2020.

 --------------------------------------------------------------------
 #N Geom=AllCheck Guess=TCheck SCRF=Check GenChk RB3LYP/6-31G(d) Freq
 --------------------------------------------------------------------

 Structure from the checkpoint file:  "JID_4104.chk"
 -------------------------------
 CID_114663183_JID_4104_neutraal
 -------------------------------
 Charge =  0 Multiplicity = 1

 SCF Done:  E(RB3LYP) =  -630.789575403     A.U. after    1 cycles

  Exact polarizability: 139.803   1.275 140.619  -0.470  -5.899  91.109
 Approx polarizability: 197.399  -1.240 197.968  -1.409 -14.993 137.306

                      1                      2                      3
                      A                      A                      A
 Frequencies --     45.4038                50.6343                60.6102
 Red. masses --      3.3663                 2.8646                 3.0203
 Frc consts  --      0.0041                 0.0043                 0.0065
 IR Inten    --      0.3173                 0.7915                 3.2451

                      4                      5                      6
                      A                      A                      A
 Frequencies --     78.9552               107.6328               135.4183
 Red. masses --      3.0898                 3.3464                 4.0880
 Frc consts  --      0.0113                 0.0228                 0.0442
 IR Inten    --      1.3582                 0.5655                 1.2320

                      7                      8                      9
                      A                      A                      A
 Frequencies --    160.3426               214.0814               223.3340
 Red. masses --      3.1805                 1.2446                 1.6904
 Frc consts  --      0.0482                 0.0336                 0.0497
 IR Inten    --      0.5609                 0.0810                 2.1326

                     10                     11                     12
                      A                      A                      A
 Frequencies --    268.4133               270.9200               291.3419
 Red. masses --      1.8514                 1.6428                 2.1703
 Frc consts  --      0.0786                 0.0710                 0.1085
 IR Inten    --      0.4714                 0.4158                 2.5246

                     13                     14                     15
                      A                      A                      A
 Frequencies --    307.5003               379.1493               413.7121
 Red. masses --      2.8621                 3.3756                 6.1674
 Frc consts  --      0.1594                 0.2859                 0.6219
 IR Inten    --      1.5108                 2.1523                 3.7618

                     16                     17                     18
                      A                      A                      A
 Frequencies --    459.2693               528.0390               576.7394
 Red. masses --      3.8759                 3.4230                 2.0331
 Frc consts  --      0.4817                 0.5623                 0.3984
 IR Inten    --      3.2821                 3.5284                 2.8792

                     19                     20                     21
                      A                      A                      A
 Frequencies --    606.8327               666.4847               683.2783
 Red. masses --      3.0631                 6.6256                 3.8033
 Frc consts  --      0.6646                 1.7340                 1.0462
 IR Inten    --      6.3803                 2.1449                 4.1596

                     22                     23                     24
                      A                      A                      A
 Frequencies --    711.7518               729.7042               770.7460
 Red. masses --      5.5631                 4.1027                 2.8525
 Frc consts  --      1.6605                 1.2871                 0.9984
 IR Inten    --      1.1026                 1.1384                 5.7442

                     25                     26                     27
                      A                      A                      A
 Frequencies --    815.8139               818.5306               834.0242
 Red. masses --      1.3218                 1.2259                 1.5043
 Frc consts  --      0.5183                 0.4839                 0.6165
 IR Inten    --     14.2726                 0.8994                69.5732

                     28                     29                     30
                      A                      A                      A
 Frequencies --    892.8691               912.3888               922.9039
 Red. masses --      2.1119                 2.3283                 2.8291
 Frc consts  --      0.9920                 1.1420                 1.4198
 IR Inten    --     10.3538                21.2752                 2.5400

                     31                     32                     33
                      A                      A                      A
 Frequencies --    958.0387               975.8492               993.1743
 Red. masses --      2.4973                 2.4065                 1.6312
 Frc consts  --      1.3505                 1.3502                 0.9480
 IR Inten    --     22.1578                21.2257                 4.0191

                     34                     35                     36
                      A                      A                      A
 Frequencies --   1026.0398              1043.7797              1085.8386
 Red. masses --      3.2263                 2.1235                 3.3533
 Frc consts  --      2.0012                 1.3631                 2.3295
 IR Inten    --     31.6856                 5.9168                44.6874

                     37                     38                     39
                      A                      A                      A
 Frequencies --   1090.2060              1110.0689              1121.4372
 Red. masses --      3.3533                 1.8180                 1.8765
 Frc consts  --      2.3482                 1.3199                 1.3904
 IR Inten    --     54.3489                 6.8505                13.3913

                     40                     41                     42
                      A                      A                      A
 Frequencies --   1156.5154              1189.8540              1200.2208
 Red. masses --      2.6186                 1.2672                 1.6380
 Frc consts  --      2.0636                 1.0570                 1.3902
 IR Inten    --     33.9327                 1.0126                 1.3468

                     43                     44                     45
                      A                      A                      A
 Frequencies --   1206.9287              1224.8483              1238.9226
 Red. masses --      1.3911                 1.6109                 1.8005
 Frc consts  --      1.1939                 1.4239                 1.6283
 IR Inten    --      4.9650                 8.0736                 2.6660

                     46                     47                     48
                      A                      A                      A
 Frequencies --   1245.1694              1280.8812              1300.3071
 Red. masses --      1.9742                 1.2735                 1.6379
 Frc consts  --      1.8034                 1.2311                 1.6317
 IR Inten    --     19.4600                 0.0724                33.3727

                     49                     50                     51
                      A                      A                      A
 Frequencies --   1326.7171              1334.3865              1355.0766
 Red. masses --      1.2193                 1.3355                 1.3755
 Frc consts  --      1.2645                 1.4010                 1.4882
 IR Inten    --      1.7554                 0.3597                 0.7051

                     52                     53                     54
                      A                      A                      A
 Frequencies --   1368.2110              1379.3218              1395.2014
 Red. masses --      2.4990                 1.3318                 1.5906
 Frc consts  --      2.7563                 1.4929                 1.8243
 IR Inten    --     26.3509                 6.3345                 2.4417

                     55                     56                     57
                      A                      A                      A
 Frequencies --   1398.9706              1405.6642              1442.4820
 Red. masses --      2.6940                 1.7478                 1.5161
 Frc consts  --      3.1065                 2.0347                 1.8587
 IR Inten    --     32.5152                73.7994                54.1152

                     58                     59                     60
                      A                      A                      A
 Frequencies --   1449.6940              1487.3804              1500.5646
 Red. masses --      2.3320                 1.1927                 1.2373
 Frc consts  --      2.8876                 1.5546                 1.6415
 IR Inten    --     64.9126                21.2363                 2.4508

                     61                     62                     63
                      A                      A                      A
 Frequencies --   1515.3806              1515.9232              1517.8972
 Red. masses --      1.0942                 1.0485                 1.0911
 Frc consts  --      1.4805                 1.4196                 1.4812
 IR Inten    --     10.2005                 5.4240                 4.2131

                     64                     65                     66
                      A                      A                      A
 Frequencies --   1524.2362              1524.8767              1536.6421
 Red. masses --      1.0512                 1.0856                 1.1248
 Frc consts  --      1.4389                 1.4872                 1.5649
 IR Inten    --      2.1825                 2.6302                16.4680

                     67                     68                     69
                      A                      A                      A
 Frequencies --   1538.8561              1545.7388              1549.0408
 Red. masses --      1.1148                 1.1604                 2.8160
 Frc consts  --      1.5554                 1.6335                 3.9811
 IR Inten    --      3.0228                 0.8187                14.6213

                     70                     71                     72
                      A                      A                      A
 Frequencies --   1634.7269              3022.8812              3037.0867
 Red. masses --      6.4901                 1.0346                 1.0693
 Frc consts  --     10.2185                 5.5699                 5.8112
 IR Inten    --     61.7264                69.6001                49.0779

                     73                     74                     75
                      A                      A                      A
 Frequencies --   3049.1782              3054.2266              3061.3208
 Red. masses --      1.0828                 1.0353                 1.0606
 Frc consts  --      5.9316                 5.6900                 5.8562
 IR Inten    --     14.1686                35.6922                24.9270

                     76                     77                     78
                      A                      A                      A
 Frequencies --   3073.3991              3078.2185              3079.3404
 Red. masses --      1.0714                 1.0679                 1.1063
 Frc consts  --      5.9627                 5.9621                 6.1805
 IR Inten    --     15.1747                46.2965                49.1926

                     79                     80                     81
                      A                      A                      A
 Frequencies --   3107.5599              3114.7462              3128.2134
 Red. masses --      1.0973                 1.1029                 1.1029
 Frc consts  --      6.2435                 6.3041                 6.3588
 IR Inten    --     41.1521                47.7646                26.5958

                     82                     83                     84
                      A                      A                      A
 Frequencies --   3130.4593              3151.5075              3152.0671
 Red. masses --      1.1009                 1.1014                 1.0989
 Frc consts  --      6.3562                 6.4450                 6.4329
 IR Inten    --      7.8652                 7.7058                19.4934

                     85                     86                     87
                      A                      A                      A
 Frequencies --   3158.5612              3269.8640              3476.9723
 Red. masses --      1.0999                 1.0957                 1.0746
 Frc consts  --      6.4655                 6.9025                 7.6542
 IR Inten    --     23.1610                 6.8356                 0.0110

 - Thermochemistry -
 -------------------
 Temperature   298.150 Kelvin.  Pressure   1.00000 Atm.
 Atom     1 has atomic number  6 and mass  12.00000

 Molecular mass:   195.13716 amu.
 Principal axes and moments of inertia in atomic units:
                           1         2         3
     Eigenvalues --  2284.355782674.715514415.50649
           X            0.99474   0.10228   0.00569
           Y           -0.10225   0.99475  -0.00431
           Z           -0.00610   0.00370   0.99997
 This molecule is an asymmetric top.
 Rotational symmetry number  1.
 Warning -- assumption of classical behavior for rotation
           may cause significant error
 Rotational temperatures (Kelvin)      0.03792     0.03238     0.01962
 Rotational constants (GHZ):           0.79004     0.67474     0.40873
 Zero-point vibrational energy     716428.5 (Joules/Mol)
                                  171.23053 (Kcal/Mol)
 Warning -- explicit consideration of  19 degrees of freedom as
           vibrations may cause significant error
 Vibrational temperatures:     65.33    72.85    87.20   113.60   154.86
          (Kelvin)            194.84   230.70   308.02   321.33   386.19
                              389.79   419.18   442.42   545.51   595.24
                              660.79   759.73   829.80   873.10   958.92
                              983.09  1024.05  1049.88  1108.93  1173.77
                             1177.68  1199.97  1284.64  1312.72  1327.85
                             1378.40  1404.03  1428.96  1476.24  1501.77
                             1562.28  1568.56  1597.14  1613.50  1663.97
                             1711.93  1726.85  1736.50  1762.28  1782.53
                             1791.52  1842.90  1870.85  1908.85  1919.88
                             1949.65  1968.55  1984.54  2007.38  2012.81
                             2022.44  2075.41  2085.79  2140.01  2158.98
                             2180.29  2181.08  2183.92  2193.04  2193.96
                             2210.89  2214.07  2223.97  2228.72  2352.01
                             4349.25  4369.69  4387.09  4394.35  4404.56
                             4421.94  4428.87  4430.48  4471.09  4481.43
                             4500.80  4504.03  4534.32  4535.12  4544.47
                             4704.61  5002.59

 Zero-point correction=                           0.272873 (Hartree/Particle)
 Thermal correction to Energy=                    0.286698
 Thermal correction to Enthalpy=                  0.287642
 Thermal correction to Gibbs Free Energy=         0.231433
 Sum of electronic and zero-point Energies=           -630.516702
 Sum of electronic and thermal Energies=              -630.502877
 Sum of electronic and thermal Enthalpies=            -630.501933
 Sum of electronic and thermal Free Energies=         -630.558143

                     E (Thermal)             CV                S
                      KCal/Mol        Cal/Mol-Kelvin    Cal/Mol-Kelvin
 Total                  179.906             51.607            118.303
 Electronic               0.000              0.000              0.000
 Translational            0.889              2.981             41.711
 Rotational               0.889              2.981             31.668
 Vibrational            178.128             45.646             44.925
 Vibration     1          0.595              1.979              5.008
 Vibration     2          0.595              1.977              4.792
 Vibration     3          0.597              1.973              4.437
 Vibration     4          0.600              1.963              3.917
 Vibration     5          0.606              1.943              3.311
 Vibration     6          0.613              1.918              2.868
 Vibration     7          0.622              1.891              2.546
 Vibration     8          0.644              1.820              2.009
 Vibration     9          0.649              1.806              1.932
 Vibration    10          0.673              1.731              1.606
 Vibration    11          0.675              1.727              1.590
 Vibration    12          0.687              1.690              1.466
 Vibration    13          0.697              1.659              1.376
 Vibration    14          0.749              1.515              1.043
 Vibration    15          0.777              1.440              0.914
 Vibration    16          0.817              1.340              0.768
 Vibration    17          0.883              1.188              0.592
 Vibration    18          0.933              1.082              0.491
 Vibration    19          0.966              1.017              0.438

 Optimization completed.
    -- Stationary point found.
 Normal termination of Gaussian 16 at Thu Dec 10 09:48:16 2020.

 ----------------------------------------------------------------------
 # B3LYP/6-311++G(d,p) empiricaldispersion=gd3bj scf=xqc pop=npa geom=c
 heck
 ----------------------------------------------------------------------

 ---------------------------------------
 CID_114663183_JID_4104_Energie_neutraal
 ---------------------------------------
 Structure from the checkpoint file:  "JID_4104.chk"
 Charge =  0 Multiplicity = 1

 SCF Done:  E(RB3LYP) =  -630.962913089     A.U. after   14 cycles
 Normal termination of Gaussian 16 at Thu Dec 10 09:51:42 2020.

 ----------------------------------------------------------------------
 # B3LYP/6-311++G(d,p) empiricaldispersion=gd3bj scf=xqc pop=npa geom=c
 heck
 ----------------------------------------------------------------------

 -------------------------------------
 CID_114663183_JID_4104_Energie_kation
 -------------------------------------
 Structure from the checkpoint file:  "JID_4104.chk"
 Charge =  1 Multiplicity = 2

 SCF Done:  E(UB3LYP) =  -630.681732198     A.U. after   24 cycles
 Normal termination of Gaussian 16 at Thu Dec 10 09:59:59 2020.
 Gaussian 16:  ES64L-G16RevA.03 25-Dec-2016

 ----------------------------------------------------------------------
 # B3LYP/6-311++G(d,p) empiricaldispersion=gd3bj scf=xqc pop=npa geom=c
 heck
 ----------------------------------------------------------------------

 ------------------------------------
 CID_114663183_JID_4104_Energie_anion
 ------------------------------------
 Structure from the checkpoint file:  "JID_4104.chk"
 Charge = -1 Multiplicity = 2

                         Standard orientation:
 ---------------------------------------------------------------------
 Center     Atomic      Atomic             Coordinates (Angstroms)
 Number     Number       Type             X           Y           Z
 ---------------------------------------------------------------------
      1          6           0       -2.456979   -2.238896   -0.744504
      2          6           0       -2.485889   -1.397860    0.532256
      3          7           0       -1.779679   -0.132721    0.376030
      4          6           0       -0.425245    0.067315    0.319351
      5          6           0       -0.273092    1.413566   -0.001402
      6          6           0       -1.579030    1.935956   -0.107721
      7          7           0       -2.490083    0.981247    0.117518
      8          8           0        0.941677    2.018336   -0.162157
      9          6           0        0.886659    3.410125   -0.432768
     10          6           0        0.596898   -1.007997    0.494767
     11          6           0        1.902907   -0.551048    1.236219
     12          6           0        3.022761   -0.759186    0.202718
     13          6           0        2.448052   -1.868483   -0.692807
     14          7           0        1.014276   -1.566425   -0.826212
     15          1           0       -2.934668   -1.691146   -1.563254
     16          1           0       -3.002030   -3.176831   -0.589803
     17          1           0       -1.426839   -2.470742   -1.033333
     18          1           0       -3.506325   -1.126674    0.809816
     19          1           0       -2.041319   -1.944141    1.370697
     20          1           0       -1.899075    2.944956   -0.325148
     21          1           0        0.354062    3.611262   -1.372163
     22          1           0        0.390575    3.953867    0.382397
     23          1           0        1.920572    3.748198   -0.521061
     24          1           0        0.146770   -1.827738    1.065725
     25          1           0        1.840854    0.483381    1.576319
     26          1           0        2.062185   -1.185530    2.114742
     27          1           0        3.157737    0.155299   -0.386688
     28          1           0        3.984639   -1.017958    0.657888
     29          1           0        2.913420   -1.934747   -1.680970
     30          1           0        2.559228   -2.847338   -0.206342
     31          1           0        0.912947   -0.816470   -1.509577
 ---------------------------------------------------------------------

 SCF Done:  E(UB3LYP) =  -630.947307214     A.U. after   31 cycles

 The electronic state is 2-A.
 Alpha  occ. eigenvalues --  -19.05520 -14.29012 -14.23011 -14.20079 -10.12364
 Alpha  occ. eigenvalues --  -10.12149 -10.12029 -10.11165 -10.10547 -10.09092
 Alpha  occ. eigenvalues --  -10.08914 -10.07034 -10.06488 -10.06287  -0.97239
 Alpha  occ. eigenvalues --   -0.94957  -0.82327  -0.75073  -0.70270  -0.66004
 Alpha  occ. eigenvalues --   -0.64792  -0.62463  -0.60243  -0.55139  -0.51446
 Alpha  occ. eigenvalues --   -0.49405  -0.48419  -0.46275  -0.43629  -0.40306
 Alpha  occ. eigenvalues --   -0.39213  -0.37947  -0.36843  -0.36068  -0.35583
 Alpha  occ. eigenvalues --   -0.34297  -0.33352  -0.32702  -0.31013  -0.29556
 Alpha  occ. eigenvalues --   -0.29083  -0.28108  -0.26851  -0.26319  -0.25276
 Alpha  occ. eigenvalues --   -0.24779  -0.24497  -0.23765  -0.22392  -0.19335
 Alpha  occ. eigenvalues --   -0.15419  -0.14071  -0.11716   0.04412
 Alpha virt. eigenvalues --    0.05951   0.06830   0.07620   0.08600   0.09057
 Alpha virt. eigenvalues --    0.09254   0.09551   0.09634   0.10192   0.10840
 Alpha virt. eigenvalues --    0.11585   0.11836   0.12107   0.12845   0.13401

  Beta  occ. eigenvalues --  -19.05511 -14.29013 -14.23004 -14.20073 -10.12364
  Beta  occ. eigenvalues --  -10.12096 -10.12014 -10.11155 -10.10544 -10.09071
  Beta  occ. eigenvalues --  -10.08905 -10.07019 -10.06472 -10.06269  -0.97226
  Beta  occ. eigenvalues --   -0.94949  -0.82309  -0.75058  -0.70254  -0.65973
  Beta  occ. eigenvalues --   -0.64767  -0.62423  -0.60180  -0.55103  -0.51406
  Beta  occ. eigenvalues --   -0.49358  -0.48378  -0.46246  -0.43596  -0.40272
  Beta  occ. eigenvalues --   -0.39178  -0.37913  -0.36809  -0.36048  -0.35547
  Beta  occ. eigenvalues --   -0.34260  -0.33329  -0.32670  -0.30982  -0.29528
  Beta  occ. eigenvalues --   -0.29054  -0.28081  -0.26824  -0.26293  -0.25246
  Beta  occ. eigenvalues --   -0.24743  -0.24466  -0.23735  -0.22363  -0.19312
  Beta  occ. eigenvalues --   -0.15403  -0.14053  -0.11699
  Beta virt. eigenvalues --    0.06556   0.07094   0.07515   0.08100   0.09207
  Beta virt. eigenvalues --    0.09492   0.09564   0.09782   0.10019   0.10538
  Beta virt. eigenvalues --    0.11171   0.12074   0.12133   0.12453   0.13230

 Mulliken charges and spin densities:
               1          2
     1  C    0.082985  -0.493810
     2  C   -0.152620  -0.105185
     3  N    0.474278   0.011577
     4  C   -0.670953   0.139947
     5  C   -0.397994   0.277127
     6  C    0.811697  -1.006683
     7  N   -0.366606   0.075620
     8  O   -0.237798   0.105889
     9  C    1.153016  -1.453037
    10  C   -0.172609   0.255248
    11  C    0.027322  -0.525676
    12  C   -0.067909  -0.275712
    13  C    0.656260  -1.014253
    14  N    0.033676  -0.031592
    15  H    0.099666   0.040376
    16  H   -0.165498   0.286197
    17  H    0.152951   0.057831
    18  H    0.053833   0.133974
    19  H   -0.218620   0.347913
    20  H   -0.089914   0.270608
    21  H   -0.381853   0.534084
    22  H   -0.301910   0.453400
    23  H   -0.592786   0.743854
    24  H   -0.047037   0.275737
    25  H    0.056902   0.141087
    26  H   -0.398723   0.566494
    27  H    0.127490   0.018817
    28  H   -0.280399   0.435660
    29  H   -0.283035   0.449297
    30  H   -0.087338   0.230753
    31  H    0.183524   0.054460
 Sum of Mulliken charges =  -1.00000   1.00000

 Dipole moment (field-independent basis, Debye):
    X=             -3.0528    Y=             -1.9096    Z=             -0.2673  Tot=              3.6107
 Quadrupole moment (field-independent basis, Debye-Ang):
   XX=           -142.4643   YY=           -154.7163   ZZ=           -119.1652
   XY=             -1.6517   XZ=             -0.3375   YZ=              6.6449

 Summary of Natural Population Analysis:

                                       Natural Population
                Natural  -----------------------------------------------
    Atom  No    Charge         Core      Valence    Rydberg      Total
 -----------------------------------------------------------------------
      C    1   -0.29519      0.99965     2.29129    0.00425     3.29519
      C    2   -0.08322      0.99962     2.07285    0.01075     3.08322
      N    3   -0.10054      0.99962     2.58725    0.01367     3.60054
      C    4    0.05698      0.99947     1.93131    0.01225     2.94302
      C    5    0.10986      0.99929     1.87700    0.01385     2.89014
      C    6   -0.05005      0.99958     2.03764    0.01284     3.05005
      N    7   -0.15362      0.99974     2.64219    0.01169     3.65362
      O    8   -0.27567      0.99986     3.26531    0.01050     4.27567
      C    9   -0.09727      0.99960     2.08826    0.00941     3.09727
      C   10   -0.02913      0.99958     2.01619    0.01336     3.02913
      C   11   -0.19462      0.99963     2.18630    0.00869     3.19462
      C   12   -0.20141      0.99963     2.19436    0.00742     3.20141
      C   13   -0.08916      0.99964     2.07906    0.01046     3.08916
      N   14   -0.33629      0.99976     2.82512    0.01141     3.83629
      H   15    0.09925      0.00000     0.39969    0.00105     0.40075
      H   16    0.09794      0.00000     0.40089    0.00117     0.40206
      H   17    0.11322      0.00000     0.38491    0.00188     0.38678
      H   18    0.10504      0.00000     0.39341    0.00155     0.39496
      H   19    0.09812      0.00000     0.40045    0.00142     0.40188
      H   20    0.10130      0.00000     0.39743    0.00127     0.39870
      H   21    0.08385      0.00000     0.41384    0.00231     0.41615
      H   22    0.08296      0.00000     0.41514    0.00190     0.41704
      H   23    0.09568      0.00000     0.40252    0.00180     0.40432
      H   24    0.09882      0.00000     0.39920    0.00198     0.40118
      H   25    0.10940      0.00000     0.38893    0.00167     0.39060
      H   26    0.09770      0.00000     0.40083    0.00146     0.40230
      H   27    0.09916      0.00000     0.39887    0.00197     0.40084
      H   28    0.09993      0.00000     0.39875    0.00132     0.40007
      H   29    0.09620      0.00000     0.40284    0.00096     0.40380
      H   30    0.08782      0.00000     0.41078    0.00139     0.41218
      H   31    0.17294      0.00000     0.32409    0.00297     0.32706
 =======================================================================
   * Total *   -0.00000     13.99468    38.82670    0.17863    53.00000

 Normal termination of Gaussian 16 at Thu Dec 10 10:12:49 2020.
