 Gaussian 16, Revision A.03,

 -----------------------------------------------------------
 # opt freq B3LYP/6-31G(d) empiricaldispersion=gd3bj scf=xqc
 -----------------------------------------------------------

 ------------------------------
 CID_67882792_JID_2933_neutraal
 ------------------------------
 Symbolic Z-matrix:
 Charge =  0 Multiplicity = 1

 SCF Done:  E(RB3LYP) =  -880.123220160     A.U. after   15 cycles
 SCF Done:  E(RB3LYP) =  -880.129951207     A.U. after   13 cycles
 SCF Done:  E(RB3LYP) =  -880.131309070     A.U. after   12 cycles
 SCF Done:  E(RB3LYP) =  -880.131749774     A.U. after   12 cycles
 SCF Done:  E(RB3LYP) =  -880.132045914     A.U. after   13 cycles
 SCF Done:  E(RB3LYP) =  -880.132146801     A.U. after   12 cycles
 SCF Done:  E(RB3LYP) =  -880.132169320     A.U. after   11 cycles
 SCF Done:  E(RB3LYP) =  -880.132172906     A.U. after    9 cycles
 SCF Done:  E(RB3LYP) =  -880.132173376     A.U. after    8 cycles
 Optimization completed.
    -- Stationary point found.
 Normal termination of Gaussian 16 at Wed Dec  9 18:15:54 2020.

 --------------------------------------------------------------------
 #N Geom=AllCheck Guess=TCheck SCRF=Check GenChk RB3LYP/6-31G(d) Freq
 --------------------------------------------------------------------

 Structure from the checkpoint file:  "JID_2933.chk"
 ------------------------------
 CID_67882792_JID_2933_neutraal
 ------------------------------
 Charge =  0 Multiplicity = 1

 SCF Done:  E(RB3LYP) =  -880.132173376     A.U. after    1 cycles

  Exact polarizability: 135.504   2.350 114.591   5.474   2.911  95.256
 Approx polarizability: 172.095  17.151 197.629   9.230   4.309 144.987

                      1                      2                      3
                      A                      A                      A
 Frequencies --     41.1003                52.9577                92.2831
 Red. masses --      4.4231                 4.0297                 3.5159
 Frc consts  --      0.0044                 0.0067                 0.0176
 IR Inten    --      2.0505                 2.1548                 1.0163

                      4                      5                      6
                      A                      A                      A
 Frequencies --    143.7677               210.8988               229.8531
 Red. masses --      3.3334                 3.7929                 1.8253
 Frc consts  --      0.0406                 0.0994                 0.0568
 IR Inten    --      2.9795                 0.8847                 0.0566

                      7                      8                      9
                      A                      A                      A
 Frequencies --    242.3815               292.8114               311.2322
 Red. masses --      3.6139                 3.5577                 3.5360
 Frc consts  --      0.1251                 0.1797                 0.2018
 IR Inten    --      1.2922                 2.8185                 1.3157

                     10                     11                     12
                      A                      A                      A
 Frequencies --    354.8814               384.7051               441.5017
 Red. masses --      2.0429                 4.2472                 3.2123
 Frc consts  --      0.1516                 0.3703                 0.3689
 IR Inten    --      1.1687                14.5774                 0.8875

                     13                     14                     15
                      A                      A                      A
 Frequencies --    456.6384               469.5179               504.5637
 Red. masses --      3.3161                 3.0879                 1.6387
 Frc consts  --      0.4074                 0.4011                 0.2458
 IR Inten    --      1.4399                 6.1877                 2.1761

                     16                     17                     18
                      A                      A                      A
 Frequencies --    598.7282               640.2447               722.5411
 Red. masses --      4.7678                 5.8122                 1.6263
 Frc consts  --      1.0070                 1.4037                 0.5002
 IR Inten    --     32.4495                24.2654                33.4924

                     19                     20                     21
                      A                      A                      A
 Frequencies --    739.3954               786.2553               802.4247
 Red. masses --      2.7373                 3.6527                 1.4705
 Frc consts  --      0.8817                 1.3304                 0.5578
 IR Inten    --     17.9181                 7.3677                 0.5378

                     22                     23                     24
                      A                      A                      A
 Frequencies --    814.9089               862.3995               905.9041
 Red. masses --      2.8808                 2.1507                 1.7160
 Frc consts  --      1.1272                 0.9424                 0.8297
 IR Inten    --      1.8247                 1.8817                 1.0190

                     25                     26                     27
                      A                      A                      A
 Frequencies --    911.6626               939.0547               942.0921
 Red. masses --      1.8209                 1.5357                 1.2167
 Frc consts  --      0.8917                 0.7979                 0.6363
 IR Inten    --      4.8420                 0.4523                 2.9452

                     28                     29                     30
                      A                      A                      A
 Frequencies --    966.3105              1000.1891              1028.3379
 Red. masses --      2.1537                 2.2404                 2.0730
 Frc consts  --      1.1849                 1.3205                 1.2916
 IR Inten    --      2.4515                10.4280                 9.4540

                     31                     32                     33
                      A                      A                      A
 Frequencies --   1046.6391              1050.5362              1074.9407
 Red. masses --      1.9821                 2.0449                 1.3914
 Frc consts  --      1.2793                 1.3297                 0.9473
 IR Inten    --     11.1518                27.5701                 3.0771

                     34                     35                     36
                      A                      A                      A
 Frequencies --   1098.6179              1109.2722              1120.9632
 Red. masses --      1.1133                 2.8676                 5.9592
 Frc consts  --      0.7917                 2.0790                 4.4119
 IR Inten    --      0.8694                 2.6722               171.1457

                     37                     38                     39
                      A                      A                      A
 Frequencies --   1134.5807              1180.8640              1204.9281
 Red. masses --      1.3772                 2.0801                 2.0587
 Frc consts  --      1.0445                 1.7090                 1.7611
 IR Inten    --     16.9280                29.9301                31.7777

                     40                     41                     42
                      A                      A                      A
 Frequencies --   1222.9724              1240.2414              1295.5122
 Red. masses --      1.4462                 1.7862                 1.3623
 Frc consts  --      1.2745                 1.6188                 1.3471
 IR Inten    --      2.6846                34.2357                 4.6362

                     43                     44                     45
                      A                      A                      A
 Frequencies --   1302.7648              1306.2484              1327.9380
 Red. masses --      1.2764                 1.3188                 1.4137
 Frc consts  --      1.2763                 1.3258                 1.4688
 IR Inten    --      3.3983                 9.0016                 6.5549

                     46                     47                     48
                      A                      A                      A
 Frequencies --   1348.8568              1374.0130              1385.1304
 Red. masses --      1.2945                 1.4646                 1.4218
 Frc consts  --      1.3876                 1.6291                 1.6072
 IR Inten    --      0.3435                 0.5795                 0.4875

                     49                     50                     51
                      A                      A                      A
 Frequencies --   1386.7001              1393.6398              1400.5137
 Red. masses --      1.4344                 1.3660                 1.4764
 Frc consts  --      1.6251                 1.5632                 1.7062
 IR Inten    --      3.3723                 3.1852                 0.6495

                     52                     53                     54
                      A                      A                      A
 Frequencies --   1403.3892              1436.7115              1511.4585
 Red. masses --      1.4709                 1.3749                 1.0889
 Frc consts  --      1.7068                 1.6721                 1.4657
 IR Inten    --      7.4333                17.3689                 0.1830

                     55                     56                     57
                      A                      A                      A
 Frequencies --   1515.8839              1518.8312              1523.0064
 Red. masses --      1.0947                 1.0970                 1.0837
 Frc consts  --      1.4822                 1.4910                 1.4811
 IR Inten    --      0.8027                 3.1470                 7.3515

                     58                     59                     60
                      A                      A                      A
 Frequencies --   1524.3477              1537.5136              1684.3386
 Red. masses --      1.0875                 1.1012                 6.5550
 Frc consts  --      1.4888                 1.5337                10.9567
 IR Inten    --      3.0944                 2.0576                11.0170

                     61                     62                     63
                      A                      A                      A
 Frequencies --   3002.9515              3022.3886              3025.1633
 Red. masses --      1.0647                 1.0702                 1.0686
 Frc consts  --      5.6570                 5.7597                 5.7618
 IR Inten    --     35.1463                20.1981                19.5064

                     64                     65                     66
                      A                      A                      A
 Frequencies --   3026.6579              3030.6749              3032.6537
 Red. masses --      1.0772                 1.0631                 1.0640
 Frc consts  --      5.8140                 5.7529                 5.7655
 IR Inten    --      9.1787                 9.3693                23.2579

                     67                     68                     69
                      A                      A                      A
 Frequencies --   3038.5959              3044.9367              3077.5418
 Red. masses --      1.0892                 1.0748                 1.0962
 Frc consts  --      5.9253                 5.8715                 6.1173
 IR Inten    --     13.5039                50.8099                62.1469

                     70                     71                     72
                      A                      A                      A
 Frequencies --   3078.2078              3081.1514              3084.9180
 Red. masses --      1.0940                 1.0993                 1.1025
 Frc consts  --      6.1076                 6.1486                 6.1818
 IR Inten    --     66.2795                 4.2558                71.5555

                     73                     74                     75
                      A                      A                      A
 Frequencies --   3095.8222              3196.7546              3252.5078
 Red. masses --      1.0985                 1.0900                 1.0996
 Frc consts  --      6.2027                 6.5631                 6.8537
 IR Inten    --     41.7524                12.0754                 3.5919

 - Thermochemistry -
 -------------------
 Temperature   298.150 Kelvin.  Pressure   1.00000 Atm.
 Atom     1 has atomic number  6 and mass  12.00000

 Molecular mass:   185.08744 amu.
 Principal axes and moments of inertia in atomic units:
                           1         2         3
     Eigenvalues --  1062.207343780.522003931.90697
           X            0.99985  -0.01723   0.00070
           Y            0.01718   0.99859   0.05016
           Z           -0.00156  -0.05014   0.99874
 This molecule is an asymmetric top.
 Rotational symmetry number  1.
 Warning -- assumption of classical behavior for rotation
           may cause significant error
 Rotational temperatures (Kelvin)      0.08154     0.02291     0.02203
 Rotational constants (GHZ):           1.69905     0.47738     0.45900
 Zero-point vibrational energy     613934.4 (Joules/Mol)
                                  146.73385 (Kcal/Mol)
 Warning -- explicit consideration of  16 degrees of freedom as
           vibrations may cause significant error
 Vibrational temperatures:     59.13    76.19   132.77   206.85   303.44
          (Kelvin)            330.71   348.73   421.29   447.79   510.60
                              553.50   635.22   657.00   675.53   725.95
                              861.44   921.17  1039.58  1063.83  1131.25
                             1154.51  1172.47  1240.80  1303.39  1311.68
                             1351.09  1355.46  1390.31  1439.05  1479.55
                             1505.88  1511.49  1546.60  1580.67  1596.00
                             1612.82  1632.41  1699.00  1733.62  1759.58
                             1784.43  1863.95  1874.39  1879.40  1910.61
                             1940.70  1976.90  1992.89  1995.15  2005.14
                             2015.03  2019.16  2067.11  2174.65  2181.02
                             2185.26  2191.27  2193.20  2212.14  2423.39
                             4320.58  4348.54  4352.54  4354.69  4360.47
                             4363.31  4371.86  4380.98  4427.90  4428.85
                             4433.09  4438.51  4454.20  4599.42  4679.63

 Zero-point correction=                           0.233835 (Hartree/Particle)
 Thermal correction to Energy=                    0.245312
 Thermal correction to Enthalpy=                  0.246256
 Thermal correction to Gibbs Free Energy=         0.195646
 Sum of electronic and zero-point Energies=           -879.898338
 Sum of electronic and thermal Energies=              -879.886861
 Sum of electronic and thermal Enthalpies=            -879.885917
 Sum of electronic and thermal Free Energies=         -879.936528

                     E (Thermal)             CV                S
                      KCal/Mol        Cal/Mol-Kelvin    Cal/Mol-Kelvin
 Total                  153.936             44.627            106.519
 Electronic               0.000              0.000              0.000
 Translational            0.889              2.981             41.553
 Rotational               0.889              2.981             31.135
 Vibrational            152.158             38.665             33.830
 Vibration     1          0.594              1.981              5.205
 Vibration     2          0.596              1.976              4.704
 Vibration     3          0.602              1.955              3.611
 Vibration     4          0.616              1.909              2.753
 Vibration     5          0.643              1.824              2.036
 Vibration     6          0.652              1.795              1.880
 Vibration     7          0.659              1.775              1.785
 Vibration     8          0.688              1.687              1.458
 Vibration     9          0.700              1.652              1.356
 Vibration    10          0.731              1.565              1.144
 Vibration    11          0.754              1.503              1.021
 Vibration    12          0.801              1.380              0.822
 Vibration    13          0.815              1.346              0.776
 Vibration    14          0.827              1.318              0.739
 Vibration    15          0.860              1.240              0.647
 Vibration    16          0.957              1.034              0.452

                           ! Non-Optimized Parameters !
 Normal termination of Gaussian 16 at Wed Dec  9 18:22:26 2020.

 ----------------------------------------------------------------------
 # B3LYP/6-311++G(d,p) empiricaldispersion=gd3bj scf=xqc pop=npa geom=c
 heck
 ----------------------------------------------------------------------

 --------------------------------------
 CID_67882792_JID_2933_Energie_neutraal
 --------------------------------------
 Structure from the checkpoint file:  "JID_2933.chk"
 Charge =  0 Multiplicity = 1

 SCF Done:  E(RB3LYP) =  -880.294585320     A.U. after   16 cycles
 Normal termination of Gaussian 16 at Wed Dec  9 18:26:24 2020.

 ----------------------------------------------------------------------
 # B3LYP/6-311++G(d,p) empiricaldispersion=gd3bj scf=xqc pop=npa geom=c
 heck
 ----------------------------------------------------------------------

 ------------------------------------
 CID_67882792_JID_2933_Energie_kation
 ------------------------------------
 Structure from the checkpoint file:  "JID_2933.chk"
 Charge =  1 Multiplicity = 2

 SCF Done:  E(UB3LYP) =  -879.991368612     A.U. after   24 cycles
 Normal termination of Gaussian 16 at Wed Dec  9 18:33:25 2020.
 Gaussian 16:  ES64L-G16RevA.03 25-Dec-2016

 ----------------------------------------------------------------------
 # B3LYP/6-311++G(d,p) empiricaldispersion=gd3bj scf=xqc pop=npa geom=c
 heck
 ----------------------------------------------------------------------

 -----------------------------------
 CID_67882792_JID_2933_Energie_anion
 -----------------------------------
 Structure from the checkpoint file:  "JID_2933.chk"
 Charge = -1 Multiplicity = 2

                         Standard orientation:
 ---------------------------------------------------------------------
 Center     Atomic      Atomic             Coordinates (Angstroms)
 Number     Number       Type             X           Y           Z
 ---------------------------------------------------------------------
      1          6           0        3.591312    0.176501   -0.235771
      2          6           0        3.030657   -0.324116    1.101941
      3          6           0        1.582530    0.138889    1.312755
      4          6           0        0.685594   -0.286257    0.141999
      5          6           0        1.248601    0.210189   -1.202115
      6          6           0        2.697308   -0.255084   -1.405438
      7          7           0       -0.705426    0.110076    0.385093
      8          6           0       -1.051447    1.512900    0.574378
      9          6           0       -2.401951    1.701150   -0.046357
     10          6           0       -2.920347    0.603989   -0.591116
     11         16           0       -1.916074   -0.877752   -0.347978
     12          8           0       -2.630322   -1.740641    0.649238
     13          1           0        4.613473   -0.193139   -0.381712
     14          1           0        3.653281    1.274483   -0.213891
     15          1           0        3.063509   -1.422909    1.118852
     16          1           0        3.657094    0.020115    1.933531
     17          1           0        1.566483    1.234671    1.402528
     18          1           0        1.169782   -0.264718    2.243838
     19          1           0        0.683359   -1.384137    0.118315
     20          1           0        1.215927    1.308532   -1.230040
     21          1           0        0.607618   -0.149290   -2.016027
     22          1           0        3.088506    0.134390   -2.352983
     23          1           0        2.714846   -1.351546   -1.486777
     24          1           0       -1.066560    1.802207    1.637093
     25          1           0       -0.313086    2.160978    0.080865
     26          1           0       -2.899888    2.666899   -0.015877
     27          1           0       -3.890138    0.493125   -1.061288
 ---------------------------------------------------------------------

 SCF Done:  E(UB3LYP) =  -880.284837287     A.U. after   33 cycles
 SCF Done:  E(UB3LYP) =  -880.284837287     a.u. after    1 cycles

 The electronic state is 2-A.
 Alpha  occ. eigenvalues --  -88.85544 -18.97530 -14.22087 -10.10846 -10.10778
 Alpha  occ. eigenvalues --  -10.08686 -10.08580 -10.07034 -10.06848 -10.06708
 Alpha  occ. eigenvalues --  -10.06590 -10.06269  -7.92850  -5.89167  -5.89023
 Alpha  occ. eigenvalues --   -5.88438  -0.91821  -0.83140  -0.73755  -0.69546
 Alpha  occ. eigenvalues --   -0.64728  -0.63093  -0.62834  -0.53310  -0.51630
 Alpha  occ. eigenvalues --   -0.48143  -0.47471  -0.45145  -0.41422  -0.37516
 Alpha  occ. eigenvalues --   -0.37114  -0.35054  -0.34556  -0.33926  -0.32490
 Alpha  occ. eigenvalues --   -0.31851  -0.30042  -0.29148  -0.28528  -0.28033
 Alpha  occ. eigenvalues --   -0.27929  -0.24916  -0.24749  -0.22681  -0.22153
 Alpha  occ. eigenvalues --   -0.21416  -0.18478  -0.17009  -0.14166  -0.12304
 Alpha  occ. eigenvalues --    0.04379
 Alpha virt. eigenvalues --    0.06442   0.07321   0.07758   0.08103   0.08993
 Alpha virt. eigenvalues --    0.09054   0.10356   0.10523   0.11253   0.11343
 Alpha virt. eigenvalues --    0.11928   0.12453   0.13200   0.13596   0.14048

  Beta  occ. eigenvalues --  -88.85534 -18.97500 -14.22073 -10.10848 -10.10754
  Beta  occ. eigenvalues --  -10.08648 -10.08448 -10.07023 -10.06837 -10.06696
  Beta  occ. eigenvalues --  -10.06565 -10.06244  -7.92837  -5.89155  -5.89009
  Beta  occ. eigenvalues --   -5.88430  -0.91738  -0.83090  -0.73701  -0.69424
  Beta  occ. eigenvalues --   -0.64693  -0.62978  -0.62767  -0.53237  -0.51584
  Beta  occ. eigenvalues --   -0.48012  -0.47374  -0.45055  -0.41329  -0.37455
  Beta  occ. eigenvalues --   -0.37031  -0.35005  -0.34525  -0.33862  -0.32374
  Beta  occ. eigenvalues --   -0.31782  -0.29996  -0.29077  -0.28494  -0.27916
  Beta  occ. eigenvalues --   -0.27857  -0.24874  -0.24710  -0.22642  -0.22115
  Beta  occ. eigenvalues --   -0.21370  -0.18305  -0.16710  -0.14107  -0.12254
  Beta virt. eigenvalues --    0.06771   0.07480   0.07988   0.08239   0.08730
  Beta virt. eigenvalues --    0.09311   0.09636   0.10756   0.11121   0.11466
  Beta virt. eigenvalues --    0.11644   0.12145   0.12813   0.13405   0.13934

 Mulliken charges and spin densities:
               1          2
     1  C    0.810490  -1.165858
     2  C   -0.788515   0.344922
     3  C    0.628645  -0.570002
     4  C   -1.734607   0.601088
     5  C    0.642898  -0.558161
     6  C   -0.215704  -0.167636
     7  N    0.181445   0.072856
     8  C    1.005213  -1.245879
     9  C    0.047263   0.030331
    10  C    0.202288  -0.633566
    11  S    0.690299  -0.145076
    12  O   -0.401375   0.000570
    13  H   -0.317708   0.477040
    14  H   -0.133555   0.271547
    15  H    0.148920  -0.029767
    16  H   -0.203855   0.377593
    17  H   -0.114496   0.252039
    18  H    0.177114   0.019150
    19  H    0.032061   0.050234
    20  H   -0.063464   0.197386
    21  H   -0.117521   0.282489
    22  H   -0.271130   0.446227
    23  H    0.162909  -0.048365
    24  H   -0.140199   0.305088
    25  H   -0.386805   0.568102
    26  H   -0.912669   1.110007
    27  H    0.072060   0.157642
 Sum of Mulliken charges =  -1.00000   1.00000

 Dipole moment (field-independent basis, Debye):
    X=              0.4849    Y=             -4.2318    Z=             -0.7585  Tot=              4.3265
 Quadrupole moment (field-independent basis, Debye-Ang):
   XX=           -148.2014   YY=           -127.0769   ZZ=           -111.9741
   XY=             -7.2330   XZ=              7.7661   YZ=              1.9644

 Summary of Natural Population Analysis:

                                       Natural Population
                Natural  -----------------------------------------------
    Atom  No    Charge         Core      Valence    Rydberg      Total
 -----------------------------------------------------------------------
      C    1   -0.19022      0.99963     2.18218    0.00842     3.19022
      C    2   -0.18840      0.99963     2.18003    0.00874     3.18840
      C    3   -0.19443      0.99960     2.18537    0.00946     3.19443
      C    4   -0.00108      0.99956     1.98761    0.01390     3.00108
      C    5   -0.20004      0.99960     2.19050    0.00994     3.20004
      C    6   -0.18929      0.99963     2.18080    0.00886     3.18929
      N    7   -0.36478      0.99970     2.84860    0.01648     3.86478
      C    8   -0.10356      0.99959     2.09079    0.01319     3.10356
      C    9   -0.05143      0.99948     2.04119    0.01076     3.05143
      C   10   -0.20704      0.99943     2.19439    0.01322     3.20704
      S   11    0.66164      4.99935     2.27228    0.06673     7.33836
      O   12   -0.47201      0.99993     3.46662    0.00547     4.47201
      H   13    0.09732      0.00000     0.40162    0.00106     0.40268
      H   14    0.09752      0.00000     0.40054    0.00195     0.40248
      H   15    0.08981      0.00000     0.40909    0.00109     0.41019
      H   16    0.10017      0.00000     0.39891    0.00092     0.39983
      H   17    0.09947      0.00000     0.39890    0.00163     0.40053
      H   18    0.10243      0.00000     0.39646    0.00111     0.39757
      H   19    0.09641      0.00000     0.40189    0.00170     0.40359
      H   20    0.09942      0.00000     0.39859    0.00200     0.40058
      H   21    0.10104      0.00000     0.39724    0.00172     0.39896
      H   22    0.10108      0.00000     0.39789    0.00104     0.39892
      H   23    0.08922      0.00000     0.40956    0.00123     0.41078
      H   24    0.10205      0.00000     0.39650    0.00145     0.39795
      H   25    0.11175      0.00000     0.38400    0.00425     0.38825
      H   26    0.10591      0.00000     0.39210    0.00199     0.39409
      H   27    0.10706      0.00000     0.39159    0.00135     0.39294
 =======================================================================
   * Total *    0.00000     15.99514    33.79522    0.20964    50.00000

 Normal termination of Gaussian 16 at Wed Dec  9 18:42:50 2020.
