 Gaussian 16, Revision A.03,

 -----------------------------------------------------------
 # opt freq B3LYP/6-31G(d) empiricaldispersion=gd3bj scf=xqc
 -----------------------------------------------------------

 -------------------------------
 CID_102040005_JID_3049_neutraal
 -------------------------------
 Symbolic Z-matrix:
 Charge =  0 Multiplicity = 1

 SCF Done:  E(RB3LYP) =  -951.758816973     A.U. after   15 cycles
 SCF Done:  E(RB3LYP) =  -951.761881862     A.U. after   13 cycles
 SCF Done:  E(RB3LYP) =  -951.762467616     A.U. after   13 cycles
 SCF Done:  E(RB3LYP) =  -951.761563235     A.U. after   14 cycles
 SCF Done:  E(RB3LYP) =  -951.759895561     A.U. after   13 cycles
 SCF Done:  E(RB3LYP) =  -951.760098918     A.U. after   13 cycles
 SCF Done:  E(RB3LYP) =  -951.763112734     A.U. after   11 cycles
 SCF Done:  E(RB3LYP) =  -951.763858343     A.U. after   13 cycles
 SCF Done:  E(RB3LYP) =  -951.764835524     A.U. after   15 cycles
 SCF Done:  E(RB3LYP) =  -951.765630158     A.U. after   12 cycles
 SCF Done:  E(RB3LYP) =  -951.767085387     A.U. after   10 cycles
 SCF Done:  E(RB3LYP) =  -951.767087245     A.U. after    9 cycles
 SCF Done:  E(RB3LYP) =  -951.767088632     A.U. after   10 cycles
 SCF Done:  E(RB3LYP) =  -951.767088943     A.U. after    9 cycles
 SCF Done:  E(RB3LYP) =  -951.767089107     A.U. after    9 cycles
 SCF Done:  E(RB3LYP) =  -951.767089129     A.U. after    7 cycles
 Optimization completed.
    -- Stationary point found.
 Normal termination of Gaussian 16 at Wed Dec  9 22:25:42 2020.

 --------------------------------------------------------------------
 #N Geom=AllCheck Guess=TCheck SCRF=Check GenChk RB3LYP/6-31G(d) Freq
 --------------------------------------------------------------------

 Structure from the checkpoint file:  "JID_3049.chk"
 -------------------------------
 CID_102040005_JID_3049_neutraal
 -------------------------------
 Charge =  0 Multiplicity = 1

 SCF Done:  E(RB3LYP) =  -951.767089129     A.U. after    1 cycles

  Exact polarizability: 170.670   5.223 137.324   0.261   5.240  62.456
 Approx polarizability: 288.883   5.119 212.179  -0.655  17.294  99.948

                      1                      2                      3
                      A                      A                      A
 Frequencies --     35.4084                65.5743                96.2420
 Red. masses --      2.9577                 4.4733                 3.1265
 Frc consts  --      0.0022                 0.0113                 0.0171
 IR Inten    --      2.5097                 2.5505                 4.2174

                      4                      5                      6
                      A                      A                      A
 Frequencies --    114.5428               131.0655               151.0691
 Red. masses --      5.1527                 2.5287                 3.1913
 Frc consts  --      0.0398                 0.0256                 0.0429
 IR Inten    --      1.8528                 3.4681                 2.0061

                      7                      8                      9
                      A                      A                      A
 Frequencies --    158.8028               201.6386               222.8776
 Red. masses --      1.1434                 2.8146                 3.0552
 Frc consts  --      0.0170                 0.0674                 0.0894
 IR Inten    --      0.2682                 3.2913                 4.1783

                     10                     11                     12
                      A                      A                      A
 Frequencies --    253.8602               281.5143               326.9538
 Red. masses --      5.2737                 3.9931                 6.2188
 Frc consts  --      0.2002                 0.1864                 0.3917
 IR Inten    --      5.9105                 1.7664                 2.0916

                     13                     14                     15
                      A                      A                      A
 Frequencies --    370.2804               390.0419               398.0724
 Red. masses --      1.8316                 2.4476                 4.1434
 Frc consts  --      0.1480                 0.2194                 0.3868
 IR Inten    --     64.9209                34.0407                11.9904

                     16                     17                     18
                      A                      A                      A
 Frequencies --    430.2773               463.6899               500.5291
 Red. masses --     10.8134                 6.1964                 7.9698
 Frc consts  --      1.1795                 0.7850                 1.1764
 IR Inten    --      2.1801                 3.1543                 2.9004

                     19                     20                     21
                      A                      A                      A
 Frequencies --    567.8075               609.5628               634.8912
 Red. masses --      4.9575                 6.5365                 5.0540
 Frc consts  --      0.9417                 1.4310                 1.2003
 IR Inten    --      2.4460                 5.3828                 4.2023

                     22                     23                     24
                      A                      A                      A
 Frequencies --    650.6738               704.9962               726.3398
 Red. masses --      5.1422                 6.4147                 8.1930
 Frc consts  --      1.2827                 1.8785                 2.5467
 IR Inten    --     10.8665                 0.3208                 5.6665

                     25                     26                     27
                      A                      A                      A
 Frequencies --    762.4841               802.4593               882.5476
 Red. masses --      7.6788                 1.4945                 7.8955
 Frc consts  --      2.6303                 0.5670                 3.6233
 IR Inten    --      2.6429                33.3430                34.4225

                     28                     29                     30
                      A                      A                      A
 Frequencies --    929.4056               975.5569               994.5155
 Red. masses --      1.2839                 5.2928                 1.2244
 Frc consts  --      0.6534                 2.9678                 0.7135
 IR Inten    --      0.9698                58.8865                 1.3814

                     31                     32                     33
                      A                      A                      A
 Frequencies --   1014.6465              1074.3781              1167.4635
 Red. masses --      1.2954                 5.9001                 2.0823
 Frc consts  --      0.7858                 4.0126                 1.6722
 IR Inten    --     17.1060                81.3203                41.7892

                     34                     35                     36
                      A                      A                      A
 Frequencies --   1183.2959              1197.3365              1223.8842
 Red. masses --      1.2625                 1.3452                 1.3837
 Frc consts  --      1.0415                 1.1362                 1.2211
 IR Inten    --      6.1245                 5.7229                24.2700

                     37                     38                     39
                      A                      A                      A
 Frequencies --   1259.1220              1293.5241              1341.8679
 Red. masses --      2.4986                 3.2674                 4.0028
 Frc consts  --      2.3339                 3.2210                 4.2465
 IR Inten    --     28.5968                84.2652               156.1454

                     40                     41                     42
                      A                      A                      A
 Frequencies --   1364.8639              1391.8024              1441.1297
 Red. masses --      3.8554                 1.1571                 3.8893
 Frc consts  --      4.2315                 1.3206                 4.7591
 IR Inten    --    152.0390                 8.3582                71.9742

                     43                     44                     45
                      A                      A                      A
 Frequencies --   1494.5312              1495.9313              1519.2200
 Red. masses --      1.2717                 1.0796                 1.0733
 Frc consts  --      1.6736                 1.4234                 1.4595
 IR Inten    --      5.3666                 8.3678                14.6746

                     46                     47                     48
                      A                      A                      A
 Frequencies --   1520.5881              1527.8682              1534.9130
 Red. masses --      1.0750                 1.0967                 2.4107
 Frc consts  --      1.4644                 1.5084                 3.3462
 IR Inten    --     15.0603                 0.7186                75.4682

                     49                     50                     51
                      A                      A                      A
 Frequencies --   1617.2452              1647.7969              2341.8467
 Red. masses --      6.1652                 5.9109                12.6716
 Frc consts  --      9.5005                 9.4560                40.9449
 IR Inten    --     20.3932                86.9594                52.3595

                     52                     53                     54
                      A                      A                      A
 Frequencies --   3049.0241              3079.2771              3120.3460
 Red. masses --      1.0318                 1.0320                 1.1067
 Frc consts  --      5.6517                 5.7654                 6.3485
 IR Inten    --     47.0224                18.2049                26.7973

                     55                     56                     57
                      A                      A                      A
 Frequencies --   3159.9157              3166.1947              3183.8184
 Red. masses --      1.1050                 1.1036                 1.0898
 Frc consts  --      6.5009                 6.5186                 6.5088
 IR Inten    --      5.3616                24.6166                11.3662

                     58                     59                     60
                      A                      A                      A
 Frequencies --   3197.5824              3223.3676              3749.7336
 Red. masses --      1.1052                 1.0935                 1.0660
 Frc consts  --      6.6578                 6.6940                 8.8313
 IR Inten    --      1.3642                 3.0575                69.8985

 - Thermochemistry -
 -------------------
 Temperature   298.150 Kelvin.  Pressure   1.00000 Atm.
 Atom     1 has atomic number  6 and mass  12.00000

 Molecular mass:   195.03540 amu.
 Principal axes and moments of inertia in atomic units:
                           1         2         3
     Eigenvalues --  1753.769322890.918494414.34631
           X            0.99972   0.02346  -0.00165
           Y           -0.02349   0.99958  -0.01712
           Z            0.00125   0.01716   0.99985
 This molecule is an asymmetric top.
 Rotational symmetry number  1.
 Warning -- assumption of classical behavior for rotation
           may cause significant error
 Rotational temperatures (Kelvin)      0.04939     0.02996     0.01962
 Rotational constants (GHZ):           1.02906     0.62428     0.40884
 Zero-point vibrational energy     433145.0 (Joules/Mol)
                                  103.52415 (Kcal/Mol)
 Warning -- explicit consideration of  20 degrees of freedom as
           vibrations may cause significant error
 Vibrational temperatures:     50.94    94.35   138.47   164.80   188.57
          (Kelvin)            217.35   228.48   290.11   320.67   365.25
                              405.04   470.41   532.75   561.18   572.74
                              619.07   667.15   720.15   816.95   877.02
                              913.47   936.17  1014.33  1045.04  1097.04
                             1154.56  1269.79  1337.21  1403.61  1430.89
                             1459.85  1545.79  1679.72  1702.50  1722.70
                             1760.90  1811.60  1861.09  1930.65  1963.73
                             2002.49  2073.46  2150.30  2152.31  2185.82
                             2187.79  2198.26  2208.40  2326.86  2370.81
                             3369.40  4386.87  4430.39  4489.48  4546.41
                             4555.45  4580.80  4600.61  4637.71  5395.03

 Zero-point correction=                           0.164976 (Hartree/Particle)
 Thermal correction to Energy=                    0.178392
 Thermal correction to Enthalpy=                  0.179336
 Thermal correction to Gibbs Free Energy=         0.124474
 Sum of electronic and zero-point Energies=           -951.602113
 Sum of electronic and thermal Energies=              -951.588697
 Sum of electronic and thermal Enthalpies=            -951.587753
 Sum of electronic and thermal Free Energies=         -951.642616

                     E (Thermal)             CV                S
                      KCal/Mol        Cal/Mol-Kelvin    Cal/Mol-Kelvin
 Total                  111.943             48.261            115.468
 Electronic               0.000              0.000              0.000
 Translational            0.889              2.981             41.709
 Rotational               0.889              2.981             31.482
 Vibrational            110.165             42.300             42.277
 Vibration     1          0.594              1.982              5.501
 Vibration     2          0.597              1.971              4.282
 Vibration     3          0.603              1.952              3.529
 Vibration     4          0.607              1.937              3.190
 Vibration     5          0.612              1.922              2.930
 Vibration     6          0.618              1.901              2.659
 Vibration     7          0.621              1.893              2.564
 Vibration     8          0.639              1.838              2.118
 Vibration     9          0.649              1.806              1.936
 Vibration    10          0.665              1.756              1.704
 Vibration    11          0.681              1.708              1.524
 Vibration    12          0.711              1.622              1.275
 Vibration    13          0.742              1.533              1.079
 Vibration    14          0.758              1.491              1.000
 Vibration    15          0.764              1.474              0.970
 Vibration    16          0.791              1.404              0.858
 Vibration    17          0.821              1.331              0.755
 Vibration    18          0.856              1.249              0.657
 Vibration    19          0.924              1.101              0.508
 Vibration    20          0.969              1.012              0.433

 Optimization completed.
    -- Stationary point found.
 Normal termination of Gaussian 16 at Wed Dec  9 22:30:38 2020.

 ----------------------------------------------------------------------
 # B3LYP/6-311++G(d,p) empiricaldispersion=gd3bj scf=xqc pop=npa geom=c
 heck
 ----------------------------------------------------------------------

 ---------------------------------------
 CID_102040005_JID_3049_Energie_neutraal
 ---------------------------------------
 Structure from the checkpoint file:  "JID_3049.chk"
 Charge =  0 Multiplicity = 1

 SCF Done:  E(RB3LYP) =  -951.953282657     A.U. after   16 cycles
 Normal termination of Gaussian 16 at Wed Dec  9 22:32:28 2020.

 ----------------------------------------------------------------------
 # B3LYP/6-311++G(d,p) empiricaldispersion=gd3bj scf=xqc pop=npa geom=c
 heck
 ----------------------------------------------------------------------

 -------------------------------------
 CID_102040005_JID_3049_Energie_kation
 -------------------------------------
 Structure from the checkpoint file:  "JID_3049.chk"
 Charge =  1 Multiplicity = 2

 SCF Done:  E(UB3LYP) =  -951.649857693     A.U. after   30 cycles
 Normal termination of Gaussian 16 at Wed Dec  9 22:36:59 2020.
 Gaussian 16:  ES64L-G16RevA.03 25-Dec-2016

 ----------------------------------------------------------------------
 # B3LYP/6-311++G(d,p) empiricaldispersion=gd3bj scf=xqc pop=npa geom=c
 heck
 ----------------------------------------------------------------------

 ------------------------------------
 CID_102040005_JID_3049_Energie_anion
 ------------------------------------
 Structure from the checkpoint file:  "JID_3049.chk"
 Charge = -1 Multiplicity = 2

                         Standard orientation:
 ---------------------------------------------------------------------
 Center     Atomic      Atomic             Coordinates (Angstroms)
 Number     Number       Type             X           Y           Z
 ---------------------------------------------------------------------
      1          6           0        2.238447   -2.062567    0.576707
      2          8           0        1.694966   -1.364579   -0.550682
      3          6           0        1.080080   -0.181859   -0.247228
      4          6           0        1.857101    0.970157   -0.030024
      5          6           0        1.238943    2.199056    0.217520
      6          6           0       -0.145281    2.282863    0.223094
      7          6           0       -0.935425    1.144940   -0.005100
      8          6           0       -0.319840   -0.116075   -0.203065
      9         16           0       -1.183808   -1.650317   -0.466707
     10          6           0       -2.553474   -1.589784    0.751008
     11          6           0       -2.349145    1.324946   -0.090198
     12          7           0       -3.495669    1.510573   -0.167075
     13          8           0        3.208054    0.814435   -0.064132
     14          1           0        2.678451   -2.978483    0.178979
     15          1           0        1.444243   -2.316150    1.288238
     16          1           0        3.011987   -1.464682    1.069646
     17          1           0        1.843446    3.087254    0.384397
     18          1           0       -0.633671    3.237940    0.382618
     19          1           0       -2.189712   -1.224876    1.714372
     20          1           0       -3.391470   -0.982387    0.412930
     21          1           0       -2.872983   -2.629164    0.863701
     22          1           0        3.627724    1.672698    0.104182
 ---------------------------------------------------------------------

 SCF Done:  E(UB3LYP) =  -951.956576098     A.U. after   32 cycles

 The electronic state is 2-A.
 Alpha  occ. eigenvalues --  -88.73196 -19.03789 -19.02759 -14.16914 -10.11036
 Alpha  occ. eigenvalues --  -10.10947 -10.10644 -10.08523 -10.07982 -10.07236
 Alpha  occ. eigenvalues --  -10.07054 -10.06482 -10.05592  -7.81744  -5.78155
 Alpha  occ. eigenvalues --   -5.77757  -5.77130  -0.95864  -0.93678  -0.77523
 Alpha  occ. eigenvalues --   -0.74243  -0.68189  -0.64537  -0.62768  -0.58217
 Alpha  occ. eigenvalues --   -0.55285  -0.50717  -0.48840  -0.43327  -0.41465
 Alpha  occ. eigenvalues --   -0.38717  -0.36643  -0.35639  -0.33293  -0.33160
 Alpha  occ. eigenvalues --   -0.31795  -0.31297  -0.29861  -0.29243  -0.26992
 Alpha  occ. eigenvalues --   -0.25885  -0.25842  -0.24109  -0.23406  -0.21442
 Alpha  occ. eigenvalues --   -0.20138  -0.19461  -0.17081  -0.15699  -0.11224
 Alpha  occ. eigenvalues --   -0.10286   0.04254
 Alpha virt. eigenvalues --    0.06425   0.07952   0.08545   0.09493   0.10285
 Alpha virt. eigenvalues --    0.10864   0.11854   0.12219   0.12312   0.13225
 Alpha virt. eigenvalues --    0.13882   0.14829   0.15368   0.15952   0.16507

  Beta  occ. eigenvalues --  -88.73189 -19.03682 -19.02764 -14.16711 -10.11050
  Beta  occ. eigenvalues --  -10.11035 -10.10314 -10.08297 -10.07931 -10.07220
  Beta  occ. eigenvalues --  -10.06884 -10.06419 -10.05605  -7.81737  -5.78147
  Beta  occ. eigenvalues --   -5.77758  -5.77103  -0.95706  -0.93582  -0.77204
  Beta  occ. eigenvalues --   -0.73945  -0.67980  -0.64287  -0.62514  -0.58090
  Beta  occ. eigenvalues --   -0.54987  -0.50449  -0.48704  -0.43207  -0.41241
  Beta  occ. eigenvalues --   -0.38591  -0.36542  -0.35571  -0.33218  -0.33069
  Beta  occ. eigenvalues --   -0.31712  -0.31165  -0.29501  -0.28781  -0.26755
  Beta  occ. eigenvalues --   -0.25811  -0.25103  -0.23878  -0.23093  -0.21244
  Beta  occ. eigenvalues --   -0.19737  -0.19073  -0.16934  -0.15260  -0.10349
  Beta  occ. eigenvalues --   -0.09754
  Beta virt. eigenvalues --    0.07386   0.07879   0.08482   0.09361   0.09793
  Beta virt. eigenvalues --    0.10464   0.10873   0.11911   0.12221   0.12422
  Beta virt. eigenvalues --    0.13306   0.13961   0.14853   0.15440   0.16016

 Mulliken charges and spin densities:
               1          2
     1  C   -0.149839  -0.152808
     2  O   -0.097252   0.006815
     3  C   -0.546849  -0.290050
     4  C    1.122769  -0.733260
     5  C   -0.040810  -0.041777
     6  C   -0.522484   0.124199
     7  C    1.540249   0.609464
     8  C    0.026356   0.307493
     9  S   -0.410632   0.004916
    10  C   -0.377171  -0.196272
    11  C   -0.778781  -0.409386
    12  N   -0.302857   0.109613
    13  O   -0.314103   0.067821
    14  H    0.114336   0.017984
    15  H    0.096685   0.018788
    16  H   -0.004770   0.164167
    17  H   -0.567604   0.701877
    18  H    0.157367  -0.007162
    19  H    0.063104   0.093019
    20  H    0.155221   0.033271
    21  H    0.072401   0.059185
    22  H   -0.235336   0.512101
 Sum of Mulliken charges =  -1.00000   1.00000

 Dipole moment (field-independent basis, Debye):
    X=              0.4743    Y=             -4.1662    Z=              0.9384  Tot=              4.2968
 Quadrupole moment (field-independent basis, Debye-Ang):
   XX=           -144.0604   YY=           -108.6693   ZZ=            -98.9232
   XY=             -1.7016   XZ=             -3.4807   YZ=             -5.1755

 Summary of Natural Population Analysis:

                                       Natural Population
                Natural  -----------------------------------------------
    Atom  No    Charge         Core      Valence    Rydberg      Total
 -----------------------------------------------------------------------
      C    1   -0.09773      0.99959     2.09037    0.00776     3.09773
      O    2   -0.28683      0.99986     3.27755    0.00943     4.28683
      C    3    0.09932      0.99929     1.88516    0.01624     2.90068
      C    4    0.20448      0.99935     1.78292    0.01325     2.79552
      C    5   -0.15292      0.99953     2.14315    0.01023     3.15292
      C    6   -0.05666      0.99955     2.04777    0.00934     3.05666
      C    7   -0.09484      0.99937     2.08647    0.00900     3.09484
      C    8   -0.03610      0.99936     2.02520    0.01154     3.03610
      S    9    0.12192      4.99956     2.85863    0.01989     7.87808
      C   10   -0.34717      0.99961     2.34189    0.00567     3.34717
      C   11    0.15371      0.99963     1.82695    0.01971     2.84629
      N   12   -0.17995      0.99979     2.66944    0.01073     3.67995
      O   13   -0.33333      0.99987     3.32583    0.00762     4.33333
      H   14    0.08430      0.00000     0.41464    0.00106     0.41570
      H   15    0.08242      0.00000     0.41597    0.00161     0.41758
      H   16    0.08842      0.00000     0.40985    0.00173     0.41158
      H   17    0.10073      0.00000     0.39776    0.00150     0.39927
      H   18    0.10084      0.00000     0.39820    0.00096     0.39916
      H   19    0.10304      0.00000     0.39538    0.00158     0.39696
      H   20    0.11053      0.00000     0.38709    0.00238     0.38947
      H   21    0.09934      0.00000     0.39930    0.00136     0.40066
      H   22    0.23648      0.00000     0.25456    0.00896     0.26352
 =======================================================================
   * Total *    0.00000     16.99437    33.83406    0.17156    51.00000

 Normal termination of Gaussian 16 at Wed Dec  9 22:41:50 2020.
