 Gaussian 16, Revision A.03,

 -----------------------------------------------------------
 # opt freq B3LYP/6-31G(d) empiricaldispersion=gd3bj scf=xqc
 -----------------------------------------------------------

 -------------------------------
 CID_131175450_JID_3415_neutraal
 -------------------------------
 Symbolic Z-matrix:
 Charge =  0 Multiplicity = 1

 SCF Done:  E(RB3LYP) =  -540.718722925     A.U. after   13 cycles
 SCF Done:  E(RB3LYP) =  -540.723973468     A.U. after   11 cycles
 SCF Done:  E(RB3LYP) =  -540.724320109     A.U. after   10 cycles
 SCF Done:  E(RB3LYP) =  -540.724536422     A.U. after   11 cycles
 SCF Done:  E(RB3LYP) =  -540.724593463     A.U. after   10 cycles
 SCF Done:  E(RB3LYP) =  -540.724659742     A.U. after   10 cycles
 SCF Done:  E(RB3LYP) =  -540.724677542     A.U. after    9 cycles
 SCF Done:  E(RB3LYP) =  -540.724684548     A.U. after    8 cycles
 SCF Done:  E(RB3LYP) =  -540.724686689     A.U. after    8 cycles
 SCF Done:  E(RB3LYP) =  -540.724688654     A.U. after    8 cycles
 SCF Done:  E(RB3LYP) =  -540.724693079     A.U. after    9 cycles
 SCF Done:  E(RB3LYP) =  -540.724695125     A.U. after    9 cycles
 SCF Done:  E(RB3LYP) =  -540.724696826     A.U. after    8 cycles
 SCF Done:  E(RB3LYP) =  -540.724697710     A.U. after    8 cycles
 SCF Done:  E(RB3LYP) =  -540.724697955     A.U. after    7 cycles
 SCF Done:  E(RB3LYP) =  -540.724698047     A.U. after    7 cycles
 Optimization completed.
    -- Stationary point found.
 Normal termination of Gaussian 16 at Wed Dec  9 23:12:49 2020.

 --------------------------------------------------------------------
 #N Geom=AllCheck Guess=TCheck SCRF=Check GenChk RB3LYP/6-31G(d) Freq
 --------------------------------------------------------------------

 Structure from the checkpoint file:  "JID_3415.chk"
 -------------------------------
 CID_131175450_JID_3415_neutraal
 -------------------------------
 Charge =  0 Multiplicity = 1

 SCF Done:  E(RB3LYP) =  -540.724698047     A.U. after    1 cycles

  Exact polarizability: 144.222  -0.278 123.813   2.751   8.566 104.709
 Approx polarizability: 167.943   0.383 192.791   3.955  21.018 161.276

                      1                      2                      3
                      A                      A                      A
 Frequencies --     29.5987                42.8513                83.7912
 Red. masses --      3.4610                 2.9599                 2.6888
 Frc consts  --      0.0018                 0.0032                 0.0111
 IR Inten    --      0.0771                 0.1607                 1.1984

                      4                      5                      6
                      A                      A                      A
 Frequencies --     85.6167               115.6777               175.9530
 Red. masses --      1.9044                 2.0935                 2.7519
 Frc consts  --      0.0082                 0.0165                 0.0502
 IR Inten    --      9.4505                 0.0570                 0.2495

                      7                      8                      9
                      A                      A                      A
 Frequencies --    183.9560               214.4871               231.6494
 Red. masses --      3.1867                 1.6953                 1.4788
 Frc consts  --      0.0635                 0.0460                 0.0468
 IR Inten    --      0.7208                 0.3729                 1.1496

                     10                     11                     12
                      A                      A                      A
 Frequencies --    236.8783               248.9390               295.9137
 Red. masses --      2.1725                 1.3457                 1.5895
 Frc consts  --      0.0718                 0.0491                 0.0820
 IR Inten    --      0.0236                 0.8036                 0.7099

                     13                     14                     15
                      A                      A                      A
 Frequencies --    315.3014               383.1843               407.7251
 Red. masses --      2.7860                 2.4138                 2.9631
 Frc consts  --      0.1632                 0.2088                 0.2902
 IR Inten    --      1.2692                 3.8983                 0.3272

                     16                     17                     18
                      A                      A                      A
 Frequencies --    455.4231               480.7198               498.5493
 Red. masses --      2.9857                 2.4094                 2.9078
 Frc consts  --      0.3649                 0.3280                 0.4258
 IR Inten    --      7.4331                 0.0395                 1.3282

                     19                     20                     21
                      A                      A                      A
 Frequencies --    572.1249               690.6230               711.2572
 Red. masses --      3.3827                 5.1147                 2.6643
 Frc consts  --      0.6524                 1.4373                 0.7941
 IR Inten    --      1.1509                 0.8313                 6.6324

                     22                     23                     24
                      A                      A                      A
 Frequencies --    754.5214               761.8558               819.5236
 Red. masses --      1.6124                 1.4767                 3.1216
 Frc consts  --      0.5408                 0.5050                 1.2352
 IR Inten    --     54.1784                59.2596                 4.5535

                     25                     26                     27
                      A                      A                      A
 Frequencies --    860.5557               870.4699               871.4791
 Red. masses --      1.7982                 2.3310                 2.0266
 Frc consts  --      0.7846                 1.0407                 0.9068
 IR Inten    --      2.2069                 3.7991                 1.9062

                     28                     29                     30
                      A                      A                      A
 Frequencies --    911.7315               914.3288               976.5501
 Red. masses --      2.6010                 1.7390                 1.4716
 Frc consts  --      1.2739                 0.8565                 0.8269
 IR Inten    --      0.4733                 0.6993                 3.7490

                     31                     32                     33
                      A                      A                      A
 Frequencies --   1001.2887              1002.9039              1021.3212
 Red. masses --      1.5902                 1.4988                 1.3847
 Frc consts  --      0.9393                 0.8882                 0.8510
 IR Inten    --      1.6606                 0.7738                 0.8517

                     34                     35                     36
                      A                      A                      A
 Frequencies --   1035.6482              1060.3097              1072.1980
 Red. masses --      6.5165                 2.5544                 2.2089
 Frc consts  --      4.1180                 1.6920                 1.4961
 IR Inten    --     15.8218                 1.0517                 3.1481

                     37                     38                     39
                      A                      A                      A
 Frequencies --   1078.6786              1080.4088              1101.3214
 Red. masses --      2.0882                 1.7332                 2.5067
 Frc consts  --      1.4315                 1.1920                 1.7914
 IR Inten    --      0.2817                 3.5039                 4.8433

                     40                     41                     42
                      A                      A                      A
 Frequencies --   1140.9926              1153.6370              1185.4794
 Red. masses --      2.6808                 2.0578                 1.1813
 Frc consts  --      2.0563                 1.6136                 0.9781
 IR Inten    --     18.1466                 6.9492                 3.0832

                     43                     44                     45
                      A                      A                      A
 Frequencies --   1192.7907              1202.0516              1208.9869
 Red. masses --      1.1950                 1.6387                 1.9930
 Frc consts  --      1.0018                 1.3950                 1.7163
 IR Inten    --      0.6319                 4.4355                38.1107

                     46                     47                     48
                      A                      A                      A
 Frequencies --   1227.0161              1241.9543              1254.5063
 Red. masses --      1.2799                 1.5704                 1.6224
 Frc consts  --      1.1353                 1.4272                 1.5044
 IR Inten    --      5.6912                 8.3999                 7.1749

                     49                     50                     51
                      A                      A                      A
 Frequencies --   1260.2798              1286.6495              1310.5851
 Red. masses --      2.1988                 1.3291                 1.2743
 Frc consts  --      2.0577                 1.2963                 1.2896
 IR Inten    --     23.5321                 0.7478                 2.8589

                     52                     53                     54
                      A                      A                      A
 Frequencies --   1326.4558              1371.6303              1382.6779
 Red. masses --      1.2979                 1.2445                 1.4953
 Frc consts  --      1.3455                 1.3795                 1.6843
 IR Inten    --      4.6486                 3.1529                 4.8743

                     55                     56                     57
                      A                      A                      A
 Frequencies --   1390.1049              1400.1151              1411.2777
 Red. masses --      1.5558                 1.5724                 1.7044
 Frc consts  --      1.7714                 1.8161                 2.0001
 IR Inten    --      2.2944                29.3674                 8.5323

                     58                     59                     60
                      A                      A                      A
 Frequencies --   1415.9888              1427.6530              1443.9667
 Red. masses --      1.8245                 1.4897                 1.2639
 Frc consts  --      2.1553                 1.7889                 1.5527
 IR Inten    --      6.3332                 2.6616                 5.8509

                     61                     62                     63
                      A                      A                      A
 Frequencies --   1447.9467              1476.1123              1509.4233
 Red. masses --      1.4882                 1.1516                 1.0779
 Frc consts  --      1.8383                 1.4784                 1.4469
 IR Inten    --     17.0382                 7.8468                 0.6413

                     64                     65                     66
                      A                      A                      A
 Frequencies --   1520.6467              1526.3977              1532.8327
 Red. masses --      1.0653                 1.0475                 1.0470
 Frc consts  --      1.4513                 1.4379                 1.4494
 IR Inten    --      3.7012                 2.7010                 1.0888

                     67                     68                     69
                      A                      A                      A
 Frequencies --   1535.2827              1537.4165              1542.0457
 Red. masses --      1.0553                 1.0819                 1.0707
 Frc consts  --      1.4655                 1.5067                 1.5000
 IR Inten    --      4.5074                 0.5114                 6.7075

                     70                     71                     72
                      A                      A                      A
 Frequencies --   1543.6228              1547.7432              1555.9808
 Red. masses --      1.0889                 1.0833                 1.0950
 Frc consts  --      1.5287                 1.5290                 1.5620
 IR Inten    --      0.0595                 4.9068                 1.1846

                     73                     74                     75
                      A                      A                      A
 Frequencies --   1761.8395              2935.7208              2951.9381
 Red. masses --      8.1453                 1.0753                 1.0754
 Frc consts  --     14.8968                 5.4602                 5.5210
 IR Inten    --      0.1888                67.7196                64.1952

                     76                     77                     78
                      A                      A                      A
 Frequencies --   2993.9651              3002.0546              3004.3801
 Red. masses --      1.0823                 1.0764                 1.0713
 Frc consts  --      5.7162                 5.7158                 5.6973
 IR Inten    --     38.3633                14.1235               125.5425

                     79                     80                     81
                      A                      A                      A
 Frequencies --   3007.2992              3028.6319              3036.0346
 Red. masses --      1.0749                 1.0616                 1.0753
 Frc consts  --      5.7278                 5.7373                 5.8395
 IR Inten    --     93.7065                21.4158                20.1825

                     82                     83                     84
                      A                      A                      A
 Frequencies --   3039.2792              3044.8334              3045.7713
 Red. masses --      1.0632                 1.0940                 1.0564
 Frc consts  --      5.7864                 5.9757                 5.7741
 IR Inten    --     20.7010                31.7960                44.0095

                     85                     86                     87
                      A                      A                      A
 Frequencies --   3045.9791              3052.3523              3062.7215
 Red. masses --      1.0806                 1.0395                 1.0998
 Frc consts  --      5.9068                 5.7059                 6.0780
 IR Inten    --     36.7137                15.3748                24.5187

                     88                     89                     90
                      A                      A                      A
 Frequencies --   3075.7884              3109.1639              3115.7006
 Red. masses --      1.0996                 1.1014                 1.1014
 Frc consts  --      6.1291                 6.2731                 6.2993
 IR Inten    --     61.0568                42.6173                53.1363

                     91                     92                     93
                      A                      A                      A
 Frequencies --   3118.5075              3135.2024              3529.3425
 Red. masses --      1.0996                 1.1029                 1.0757
 Frc consts  --      6.3004                 6.3873                 7.8943
 IR Inten    --     47.0334                29.1380                 0.4311

 - Thermochemistry -
 -------------------
 Temperature   298.150 Kelvin.  Pressure   1.00000 Atm.
 Atom     1 has atomic number  6 and mass  12.00000

 Molecular mass:   180.16265 amu.
 Principal axes and moments of inertia in atomic units:
                           1         2         3
     Eigenvalues --   987.450104851.452005191.93178
           X            1.00000   0.00293   0.00101
           Y           -0.00294   0.99988   0.01501
           Z           -0.00096  -0.01501   0.99989
 This molecule is an asymmetric top.
 Rotational symmetry number  1.
 Warning -- assumption of classical behavior for rotation
           may cause significant error
 Rotational temperatures (Kelvin)      0.08771     0.01785     0.01668
 Rotational constants (GHZ):           1.82768     0.37200     0.34760
 Zero-point vibrational energy     791102.9 (Joules/Mol)
                                  189.07812 (Kcal/Mol)
 Warning -- explicit consideration of  19 degrees of freedom as
           vibrations may cause significant error
 Vibrational temperatures:     42.59    61.65   120.56   123.18   166.43
          (Kelvin)            253.16   264.67   308.60   333.29   340.81
                              358.17   425.75   453.65   551.32   586.63
                              655.25   691.65   717.30   823.16   993.65
                             1023.34  1085.59  1096.14  1179.11  1238.15
                             1252.41  1253.86  1311.78  1315.52  1405.04
                             1440.63  1442.96  1469.45  1490.07  1525.55
                             1542.65  1551.98  1554.47  1584.56  1641.63
                             1659.83  1705.64  1716.16  1729.48  1739.46
                             1765.40  1786.90  1804.95  1813.26  1851.20
                             1885.64  1908.47  1973.47  1989.37  2000.05
                             2014.45  2030.51  2037.29  2054.07  2077.55
                             2083.27  2123.80  2171.72  2187.87  2196.15
                             2205.40  2208.93  2212.00  2218.66  2220.93
                             2226.86  2238.71  2534.89  4223.85  4247.18
                             4307.65  4319.29  4322.63  4326.83  4357.53
                             4368.18  4372.84  4380.84  4382.19  4382.48
                             4391.65  4406.57  4425.37  4473.39  4482.80
                             4486.84  4510.86  5077.94

 Zero-point correction=                           0.301315 (Hartree/Particle)
 Thermal correction to Energy=                    0.315087
 Thermal correction to Enthalpy=                  0.316031
 Thermal correction to Gibbs Free Energy=         0.260043
 Sum of electronic and zero-point Energies=           -540.423383
 Sum of electronic and thermal Energies=              -540.409611
 Sum of electronic and thermal Enthalpies=            -540.408667
 Sum of electronic and thermal Free Energies=         -540.464655

                     E (Thermal)             CV                S
                      KCal/Mol        Cal/Mol-Kelvin    Cal/Mol-Kelvin
 Total                  197.720             51.762            117.836
 Electronic               0.000              0.000              0.000
 Translational            0.889              2.981             41.473
 Rotational               0.889              2.981             31.587
 Vibrational            195.942             45.801             44.777
 Vibration     1          0.593              1.984              5.856
 Vibration     2          0.595              1.980              5.123
 Vibration     3          0.601              1.960              3.800
 Vibration     4          0.601              1.959              3.758
 Vibration     5          0.608              1.936              3.171
 Vibration     6          0.628              1.872              2.371
 Vibration     7          0.631              1.862              2.288
 Vibration     8          0.644              1.819              2.005
 Vibration     9          0.653              1.793              1.866
 Vibration    10          0.656              1.784              1.826
 Vibration    11          0.662              1.765              1.738
 Vibration    12          0.690              1.681              1.440
 Vibration    13          0.703              1.644              1.334
 Vibration    14          0.752              1.506              1.027
 Vibration    15          0.772              1.453              0.935
 Vibration    16          0.814              1.349              0.780
 Vibration    17          0.837              1.293              0.708
 Vibration    18          0.854              1.253              0.662
 Vibration    19          0.928              1.092              0.500

 Optimization completed.
    -- Stationary point found.
 Normal termination of Gaussian 16 at Wed Dec  9 23:21:12 2020.

 ----------------------------------------------------------------------
 # B3LYP/6-311++G(d,p) empiricaldispersion=gd3bj scf=xqc pop=npa geom=c
 heck
 ----------------------------------------------------------------------

 ---------------------------------------
 CID_131175450_JID_3415_Energie_neutraal
 ---------------------------------------
 Structure from the checkpoint file:  "JID_3415.chk"
 Charge =  0 Multiplicity = 1

 SCF Done:  E(RB3LYP) =  -540.874138857     A.U. after   14 cycles
 Normal termination of Gaussian 16 at Wed Dec  9 23:24:38 2020.

 ----------------------------------------------------------------------
 # B3LYP/6-311++G(d,p) empiricaldispersion=gd3bj scf=xqc pop=npa geom=c
 heck
 ----------------------------------------------------------------------

 -------------------------------------
 CID_131175450_JID_3415_Energie_kation
 -------------------------------------
 Structure from the checkpoint file:  "JID_3415.chk"
 Charge =  1 Multiplicity = 2

 SCF Done:  E(UB3LYP) =  -540.603537659     A.U. after   23 cycles
 Normal termination of Gaussian 16 at Wed Dec  9 23:32:02 2020.
 Gaussian 16:  ES64L-G16RevA.03 25-Dec-2016

 ----------------------------------------------------------------------
 # B3LYP/6-311++G(d,p) empiricaldispersion=gd3bj scf=xqc pop=npa geom=c
 heck
 ----------------------------------------------------------------------

 ------------------------------------
 CID_131175450_JID_3415_Energie_anion
 ------------------------------------
 Structure from the checkpoint file:  "JID_3415.chk"
 Charge = -1 Multiplicity = 2

                         Standard orientation:
 ---------------------------------------------------------------------
 Center     Atomic      Atomic             Coordinates (Angstroms)
 Number     Number       Type             X           Y           Z
 ---------------------------------------------------------------------
      1          6           0       -4.192897   -1.349764    0.015392
      2          6           0       -3.565099   -0.396939    1.037986
      3          6           0       -2.054675   -0.184150    0.851411
      4          6           0       -1.626608    0.398328   -0.515827
      5          6           0       -2.215661    1.791045   -0.760302
      6          7           0       -0.178452    0.430788   -0.713361
      7          6           0        0.629479    1.288696    0.178306
      8          6           0        1.931644    0.552793    0.231886
      9          6           0        1.853125   -0.628814   -0.374512
     10          6           0        0.484031   -0.869926   -0.927499
     11          6           0        3.186272   -1.320553   -0.394411
     12          7           0        4.056884   -0.447558    0.446336
     13          6           0        3.329351    0.828702    0.708170
     14          1           0       -4.156975   -0.940489   -1.000279
     15          1           0       -5.244416   -1.545647    0.252803
     16          1           0       -3.668168   -2.313274    0.002198
     17          1           0       -4.085487    0.568798    1.005837
     18          1           0       -3.734771   -0.794527    2.047334
     19          1           0       -1.691701    0.478310    1.648349
     20          1           0       -1.546181   -1.147091    0.996748
     21          1           0       -2.008396   -0.264613   -1.303184
     22          1           0       -1.918043    2.490884    0.030042
     23          1           0       -1.858639    2.184653   -1.716745
     24          1           0       -3.309598    1.762721   -0.782168
     25          1           0        0.726323    2.304360   -0.235306
     26          1           0        0.193817    1.406390    1.187288
     27          1           0       -0.019173   -1.705220   -0.404694
     28          1           0        0.485980   -1.133214   -1.997423
     29          1           0        3.167068   -2.344649    0.002411
     30          1           0        3.583714   -1.390952   -1.418961
     31          1           0        4.198922   -0.913892    1.336925
     32          1           0        3.786327    1.656885    0.144305
     33          1           0        3.396591    1.101449    1.770091
 ---------------------------------------------------------------------

 SCF Done:  E(UB3LYP) =  -540.859595030     A.U. after   32 cycles

 The electronic state is 2-A.
 Alpha  occ. eigenvalues --  -14.19844 -14.19687 -10.09932 -10.09866 -10.09856
 Alpha  occ. eigenvalues --  -10.09849 -10.09738 -10.06779 -10.06465 -10.06376
 Alpha  occ. eigenvalues --  -10.06130 -10.06055 -10.06024  -0.83714  -0.81066
 Alpha  occ. eigenvalues --   -0.71309  -0.67586  -0.64327  -0.63164  -0.59848
 Alpha  occ. eigenvalues --   -0.58368  -0.54793  -0.50261  -0.49104  -0.45166
 Alpha  occ. eigenvalues --   -0.41803  -0.40556  -0.39305  -0.37147  -0.35633
 Alpha  occ. eigenvalues --   -0.35232  -0.32918  -0.32086  -0.31557  -0.31296
 Alpha  occ. eigenvalues --   -0.30425  -0.29223  -0.28840  -0.28684  -0.26684
 Alpha  occ. eigenvalues --   -0.26159  -0.25837  -0.25453  -0.25174  -0.24002
 Alpha  occ. eigenvalues --   -0.22511  -0.22292  -0.14584  -0.12654  -0.10199
 Alpha  occ. eigenvalues --    0.04374
 Alpha virt. eigenvalues --    0.06140   0.07035   0.07478   0.08276   0.08424
 Alpha virt. eigenvalues --    0.08997   0.09501   0.10140   0.10664   0.11343
 Alpha virt. eigenvalues --    0.11398   0.11534   0.12150   0.12698   0.13181

  Beta  occ. eigenvalues --  -14.19825 -14.19680 -10.09910 -10.09863 -10.09835
  Beta  occ. eigenvalues --  -10.09831 -10.09718 -10.06761 -10.06464 -10.06375
  Beta  occ. eigenvalues --  -10.06099 -10.06038 -10.06009  -0.83692  -0.81034
  Beta  occ. eigenvalues --   -0.71288  -0.67556  -0.64295  -0.63134  -0.59801
  Beta  occ. eigenvalues --   -0.58320  -0.54753  -0.50201  -0.49049  -0.45122
  Beta  occ. eigenvalues --   -0.41775  -0.40492  -0.39268  -0.37122  -0.35606
  Beta  occ. eigenvalues --   -0.35201  -0.32884  -0.32057  -0.31530  -0.31268
  Beta  occ. eigenvalues --   -0.30398  -0.29192  -0.28806  -0.28640  -0.26653
  Beta  occ. eigenvalues --   -0.26132  -0.25805  -0.25423  -0.25139  -0.23968
  Beta  occ. eigenvalues --   -0.22482  -0.22262  -0.14567  -0.12630  -0.10163
  Beta virt. eigenvalues --    0.06433   0.07088   0.07625   0.07897   0.08750
  Beta virt. eigenvalues --    0.08889   0.09303   0.09882   0.10448   0.10949
  Beta virt. eigenvalues --    0.11496   0.11744   0.11887   0.12490   0.12847

 Mulliken charges and spin densities:
               1          2
     1  C    0.726609  -1.340631
     2  C   -0.387229   0.116330
     3  C    0.828457  -0.793886
     4  C   -1.581959   1.067315
     5  C    0.163749  -0.808617
     6  N    0.324439   0.043078
     7  C   -0.005239  -0.698643
     8  C   -0.147686   0.784667
     9  C   -0.054528   0.763139
    10  C    0.272562  -1.063228
    11  C    0.473436  -1.082879
    12  N   -0.369699   0.284617
    13  C    0.595760  -1.200693
    14  H   -0.218994   0.351222
    15  H   -0.358639   0.503047
    16  H   -0.068976   0.208808
    17  H    0.016591   0.111928
    18  H   -0.239218   0.397312
    19  H   -0.169110   0.296140
    20  H   -0.071273   0.206881
    21  H    0.182975  -0.006887
    22  H   -0.165124   0.318210
    23  H    0.084365   0.078790
    24  H   -0.000946   0.145889
    25  H    0.031177   0.125312
    26  H    0.030468   0.104509
    27  H   -0.001329   0.141267
    28  H   -0.029847   0.176682
    29  H   -0.440363   0.601041
    30  H    0.089744   0.083834
    31  H   -0.036221   0.273437
    32  H    0.046487   0.129309
    33  H   -0.520439   0.682699
 Sum of Mulliken charges =  -1.00000   1.00000

 Dipole moment (field-independent basis, Debye):
    X=              0.0210    Y=              1.8735    Z=             -2.8926  Tot=              3.4464
 Quadrupole moment (field-independent basis, Debye-Ang):
   XX=           -174.5705   YY=           -122.3751   ZZ=           -117.4951
   XY=             -2.9967   XZ=             -3.6752   YZ=              1.5676

 Summary of Natural Population Analysis:

                                       Natural Population
                Natural  -----------------------------------------------
    Atom  No    Charge         Core      Valence    Rydberg      Total
 -----------------------------------------------------------------------
      C    1   -0.28774      0.99967     2.28274    0.00533     3.28774
      C    2   -0.19014      0.99964     2.18249    0.00801     3.19014
      C    3   -0.19878      0.99960     2.19069    0.00849     3.19878
      C    4   -0.00001      0.99959     1.98919    0.01123     3.00001
      C    5   -0.28855      0.99964     2.28383    0.00508     3.28855
      N    6   -0.28312      0.99972     2.77043    0.01297     3.78312
      C    7   -0.08858      0.99957     2.07804    0.01097     3.08858
      C    8   -0.02007      0.99934     2.01027    0.01046     3.02007
      C    9   -0.02228      0.99934     2.01274    0.01020     3.02228
      C   10   -0.08379      0.99957     2.07383    0.01039     3.08379
      C   11   -0.09077      0.99959     2.08012    0.01106     3.09077
      N   12   -0.33807      0.99977     2.82627    0.01203     3.83807
      C   13   -0.09093      0.99959     2.08029    0.01105     3.09093
      H   14    0.09462      0.00000     0.40434    0.00104     0.40538
      H   15    0.09932      0.00000     0.39958    0.00110     0.40068
      H   16    0.09690      0.00000     0.40196    0.00114     0.40310
      H   17    0.09240      0.00000     0.40634    0.00126     0.40760
      H   18    0.09617      0.00000     0.40265    0.00118     0.40383
      H   19    0.09708      0.00000     0.40126    0.00166     0.40292
      H   20    0.09806      0.00000     0.40018    0.00176     0.40194
      H   21    0.09261      0.00000     0.40516    0.00223     0.40739
      H   22    0.09721      0.00000     0.40165    0.00114     0.40279
      H   23    0.10233      0.00000     0.39645    0.00122     0.39767
      H   24    0.09946      0.00000     0.39966    0.00088     0.40054
      H   25    0.09378      0.00000     0.40466    0.00156     0.40622
      H   26    0.09177      0.00000     0.40648    0.00176     0.40823
      H   27    0.09077      0.00000     0.40739    0.00184     0.40923
      H   28    0.09249      0.00000     0.40595    0.00156     0.40751
      H   29    0.09684      0.00000     0.40129    0.00187     0.40316
      H   30    0.08934      0.00000     0.40922    0.00144     0.41066
      H   31    0.17476      0.00000     0.32150    0.00374     0.32524
      H   32    0.08963      0.00000     0.40890    0.00147     0.41037
      H   33    0.09729      0.00000     0.40067    0.00205     0.40271
 =======================================================================
   * Total *    0.00000     12.99463    36.84621    0.15916    50.00000

 Normal termination of Gaussian 16 at Wed Dec  9 23:42:27 2020.
