 Gaussian 16, Revision A.03,

 -----------------------------------------------------------
 # opt freq B3LYP/6-31G(d) empiricaldispersion=gd3bj scf=xqc
 -----------------------------------------------------------

 -------------------------------
 CID_129156191_JID_6639_neutraal
 -------------------------------
 Symbolic Z-matrix:
 Charge =  0 Multiplicity = 1

 SCF Done:  E(RB3LYP) =  -663.725288238     A.U. after   12 cycles
 SCF Done:  E(RB3LYP) =  -663.727854035     A.U. after   11 cycles
 SCF Done:  E(RB3LYP) =  -663.727716397     A.U. after   10 cycles
 SCF Done:  E(RB3LYP) =  -663.728370819     A.U. after   10 cycles
 SCF Done:  E(RB3LYP) =  -663.728625249     A.U. after   10 cycles
 SCF Done:  E(RB3LYP) =  -663.728594805     A.U. after   10 cycles
 SCF Done:  E(RB3LYP) =  -663.728682147     A.U. after   10 cycles
 SCF Done:  E(RB3LYP) =  -663.728715345     A.U. after    9 cycles
 SCF Done:  E(RB3LYP) =  -663.728720295     A.U. after    8 cycles
 SCF Done:  E(RB3LYP) =  -663.728720689     A.U. after    6 cycles
 SCF Done:  E(RB3LYP) =  -663.728720766     A.U. after    6 cycles
 SCF Done:  E(RB3LYP) =  -663.728720778     A.U. after    6 cycles
 SCF Done:  E(RB3LYP) =  -663.728720820     A.U. after    5 cycles
 SCF Done:  E(RB3LYP) =  -663.728720848     A.U. after    5 cycles
 Optimization completed.
    -- Stationary point found.
 Normal termination of Gaussian 16 at Sun Dec 13 16:07:33 2020.

 --------------------------------------------------------------------
 #N Geom=AllCheck Guess=TCheck SCRF=Check GenChk RB3LYP/6-31G(d) Freq
 --------------------------------------------------------------------

 Structure from the checkpoint file:  "JID_6639.chk"
 -------------------------------
 CID_129156191_JID_6639_neutraal
 -------------------------------
 Charge =  0 Multiplicity = 1

 SCF Done:  E(RB3LYP) =  -663.728720848     A.U. after    1 cycles

  Exact polarizability: 175.767  -2.142 150.492  -0.253  -0.957 140.425
 Approx polarizability: 217.800   1.518 213.747  -1.693   0.747 209.381

 ******    1 imaginary frequencies (negative Signs) ******

                      1                      2                      3
                      A                      A                      A
 Frequencies --    -22.9768                28.3261                44.5983
 Red. masses --      4.3391                 2.5083                 4.0538
 Frc consts  --      0.0013                 0.0012                 0.0048
 IR Inten    --      1.2415                 0.0116                 0.7382

                      4                      5                      6
                      A                      A                      A
 Frequencies --     68.3205                80.1971               122.5031
 Red. masses --      2.5624                 2.8226                 2.1893
 Frc consts  --      0.0070                 0.0107                 0.0194
 IR Inten    --      0.0909                 0.0499                 0.3438

                      7                      8                      9
                      A                      A                      A
 Frequencies --    147.0079               167.1853               170.7837
 Red. masses --      2.7840                 2.8845                 2.8251
 Frc consts  --      0.0354                 0.0475                 0.0485
 IR Inten    --      1.4568                 0.5152                 0.3364

                     10                     11                     12
                      A                      A                      A
 Frequencies --    202.5046               233.5197               240.6580
 Red. masses --      2.5247                 1.1473                 1.6971
 Frc consts  --      0.0610                 0.0369                 0.0579
 IR Inten    --      0.0819                 0.0018                 0.1855

                     13                     14                     15
                      A                      A                      A
 Frequencies --    248.2703               256.5366               264.4224
 Red. masses --      1.3157                 2.0621                 1.3683
 Frc consts  --      0.0478                 0.0800                 0.0564
 IR Inten    --      0.1091                 0.6510                 0.1285

                     16                     17                     18
                      A                      A                      A
 Frequencies --    289.7661               299.6841               310.7718
 Red. masses --      1.2934                 2.8089                 2.1806
 Frc consts  --      0.0640                 0.1486                 0.1241
 IR Inten    --      0.0399                 1.7673                 0.1499

                     19                     20                     21
                      A                      A                      A
 Frequencies --    342.4819               361.3044               404.6499
 Red. masses --      2.6036                 2.6193                 1.8984
 Frc consts  --      0.1799                 0.2015                 0.1831
 IR Inten    --      0.8498                 0.0527                 0.4583

                     22                     23                     24
                      A                      A                      A
 Frequencies --    419.1377               431.1046               443.0934
 Red. masses --      2.2454                 1.9559                 2.3232
 Frc consts  --      0.2324                 0.2142                 0.2687
 IR Inten    --      0.4861                 0.3497                 0.6923

                     25                     26                     27
                      A                      A                      A
 Frequencies --    470.8668               491.3341               530.9300
 Red. masses --      2.5743                 2.3178                 2.6205
 Frc consts  --      0.3363                 0.3297                 0.4352
 IR Inten    --      1.0186                 1.4619                 0.4899

                     28                     29                     30
                      A                      A                      A
 Frequencies --    576.7409               683.5432               775.7231
 Red. masses --      2.3791                 4.2143                 1.2945
 Frc consts  --      0.4663                 1.1601                 0.4590
 IR Inten    --      3.0589                 4.1846                 0.6312

                     31                     32                     33
                      A                      A                      A
 Frequencies --    811.8464               817.2980               831.4238
 Red. masses --      2.0748                 1.6569                 2.6814
 Frc consts  --      0.8057                 0.6521                 1.0921
 IR Inten    --      1.4541                 4.4448                 1.2864

                     34                     35                     36
                      A                      A                      A
 Frequencies --    844.5371               870.3603               883.7415
 Red. masses --      1.6935                 2.4515                 1.7577
 Frc consts  --      0.7117                 1.0942                 0.8088
 IR Inten    --     12.5558                 3.9984                 1.5837

                     37                     38                     39
                      A                      A                      A
 Frequencies --    889.2091               901.6260               936.7915
 Red. masses --      1.9573                 2.4450                 2.1504
 Frc consts  --      0.9118                 1.1711                 1.1119
 IR Inten    --      3.0272                 6.5959                 1.7640

                     40                     41                     42
                      A                      A                      A
 Frequencies --    940.0499               947.6481               956.8750
 Red. masses --      1.1948                 1.6218                 1.6579
 Frc consts  --      0.6221                 0.8581                 0.8944
 IR Inten    --      2.1746                 5.0826                 3.7232

                     43                     44                     45
                      A                      A                      A
 Frequencies --    960.1734               974.4798               978.2387
 Red. masses --      1.9552                 2.0987                 1.5237
 Frc consts  --      1.0620                 1.1742                 0.8591
 IR Inten    --      8.4729                 7.1181                 0.2552

                     46                     47                     48
                      A                      A                      A
 Frequencies --   1005.3557              1018.1439              1029.2736
 Red. masses --      1.7295                 1.8486                 1.9482
 Frc consts  --      1.0299                 1.1290                 1.2160
 IR Inten    --      3.7747                 7.1288                15.5416

                     49                     50                     51
                      A                      A                      A
 Frequencies --   1034.6511              1060.9324              1069.1561
 Red. masses --      1.4619                 1.4494                 1.5036
 Frc consts  --      0.9220                 0.9612                 1.0127
 IR Inten    --      4.2389                23.3633                 5.2065

                     52                     53                     54
                      A                      A                      A
 Frequencies --   1086.2699              1090.1374              1105.8103
 Red. masses --      1.4336                 2.2910                 2.7408
 Frc consts  --      0.9967                 1.6042                 1.9746
 IR Inten    --      3.8807                 1.3081                34.0585

                     55                     56                     57
                      A                      A                      A
 Frequencies --   1127.1200              1144.3808              1154.6076
 Red. masses --      2.8715                 1.4933                 1.6104
 Frc consts  --      2.1493                 1.1522                 1.2649
 IR Inten    --     77.8326                 9.5338                 3.2925

                     58                     59                     60
                      A                      A                      A
 Frequencies --   1157.4774              1176.8141              1204.2267
 Red. masses --      1.7974                 2.1468                 1.7021
 Frc consts  --      1.4188                 1.7517                 1.4543
 IR Inten    --      0.7340                 5.9082                 5.0648

                     61                     62                     63
                      A                      A                      A
 Frequencies --   1210.6091              1211.9544              1223.1324
 Red. masses --      1.4231                 2.0901                 1.5095
 Frc consts  --      1.2288                 1.8088                 1.3306
 IR Inten    --      0.2686                 4.9342                 5.9072

                     64                     65                     66
                      A                      A                      A
 Frequencies --   1231.6237              1243.0155              1253.0244
 Red. masses --      1.9369                 1.8539                 1.8873
 Frc consts  --      1.7311                 1.6877                 1.7458
 IR Inten    --      0.6653                 0.7571                 4.2029

                     67                     68                     69
                      A                      A                      A
 Frequencies --   1272.5270              1287.8304              1310.6433
 Red. masses --      1.6765                 1.2996                 1.4583
 Frc consts  --      1.5995                 1.2699                 1.4759
 IR Inten    --      4.7125                 0.6651                 6.0400

                     70                     71                     72
                      A                      A                      A
 Frequencies --   1321.2699              1329.0751              1350.0607
 Red. masses --      1.1740                 1.5293                 1.2354
 Frc consts  --      1.2076                 1.5917                 1.3267
 IR Inten    --      0.5007                 5.5830                 2.0641

                     73                     74                     75
                      A                      A                      A
 Frequencies --   1368.6251              1380.1485              1388.0881
 Red. masses --      1.2437                 1.3395                 1.3448
 Frc consts  --      1.3726                 1.5033                 1.5266
 IR Inten    --      3.1636                 2.5440                 2.2520

                     76                     77                     78
                      A                      A                      A
 Frequencies --   1392.1227              1404.9216              1423.2817
 Red. masses --      1.3624                 1.4488                 1.5126
 Frc consts  --      1.5557                 1.6849                 1.8054
 IR Inten    --      1.1026                 3.4537                21.2469

                     79                     80                     81
                      A                      A                      A
 Frequencies --   1428.1529              1430.1028              1432.1684
 Red. masses --      1.3095                 1.2751                 1.3559
 Frc consts  --      1.5736                 1.5365                 1.6386
 IR Inten    --      6.6559                 4.0811                 4.8452

                     82                     83                     84
                      A                      A                      A
 Frequencies --   1440.7954              1450.6922              1454.3464
 Red. masses --      1.4714                 1.2379                 1.2895
 Frc consts  --      1.7997                 1.5350                 1.6070
 IR Inten    --      1.9594                 3.3321                 4.8579

                     85                     86                     87
                      A                      A                      A
 Frequencies --   1493.5548              1509.4511              1512.9277
 Red. masses --      1.0891                 1.0789                 1.0794
 Frc consts  --      1.4314                 1.4483                 1.4557
 IR Inten    --      1.0072                 0.5857                 0.6588

                     88                     89                     90
                      A                      A                      A
 Frequencies --   1517.1793              1520.8037              1524.0928
 Red. masses --      1.0712                 1.0497                 1.0665
 Frc consts  --      1.4527                 1.4304                 1.4596
 IR Inten    --      3.2009                 0.3746                 2.4689

                     91                     92                     93
                      A                      A                      A
 Frequencies --   1525.0642              1527.4379              1535.8135
 Red. masses --      1.0666                 1.0620                 1.0915
 Frc consts  --      1.4616                 1.4598                 1.5169
 IR Inten    --      1.8526                 2.0008                 2.0432

                     94                     95                     96
                      A                      A                      A
 Frequencies --   1535.9889              1536.6793              1544.5065
 Red. masses --      1.0606                 1.2952                 1.0531
 Frc consts  --      1.4742                 1.8020                 1.4802
 IR Inten    --      5.5998                 2.7910                 8.0723

                     97                     98                     99
                      A                      A                      A
 Frequencies --   1545.5043              1563.1025              2980.6282
 Red. masses --      1.0560                 1.0903                 1.0841
 Frc consts  --      1.4861                 1.5696                 5.6749
 IR Inten    --     12.2688                 5.6627                45.4933

                    100                    101                    102
                      A                      A                      A
 Frequencies --   3005.7328              3009.5882              3018.2671
 Red. masses --      1.0818                 1.0825                 1.0640
 Frc consts  --      5.7582                 5.7767                 5.7111
 IR Inten    --     14.9713                27.0693                24.2796

                    103                    104                    105
                      A                      A                      A
 Frequencies --   3028.1837              3037.6556              3041.1497
 Red. masses --      1.0625                 1.0371                 1.0354
 Frc consts  --      5.7403                 5.6383                 5.6420
 IR Inten    --     30.7576                30.6798                21.4778

                    106                    107                    108
                      A                      A                      A
 Frequencies --   3045.1516              3046.8790              3056.1489
 Red. masses --      1.0407                 1.0377                 1.0962
 Frc consts  --      5.6859                 5.6759                 6.0322
 IR Inten    --     31.8600                31.9912                15.0512

                    109                    110                    111
                      A                      A                      A
 Frequencies --   3061.8356              3076.0298              3087.8605
 Red. masses --      1.0602                 1.0996                 1.0605
 Frc consts  --      5.8560                 6.1300                 5.9578
 IR Inten    --     78.1155                26.5889                16.4823

                    112                    113                    114
                      A                      A                      A
 Frequencies --   3098.7320              3103.4062              3105.2255
 Red. masses --      1.1011                 1.1031                 1.1035
 Frc consts  --      6.2296                 6.2597                 6.2693
 IR Inten    --      2.8802                 5.7519                10.7864

                    115                    116                    117
                      A                      A                      A
 Frequencies --   3105.4991              3111.1002              3112.8837
 Red. masses --      1.1009                 1.1017                 1.1015
 Frc consts  --      6.2555                 6.2827                 6.2889
 IR Inten    --     95.6044                68.2748                27.2682

                    118                    119                    120
                      A                      A                      A
 Frequencies --   3113.1342              3120.4400              3131.9419
 Red. masses --      1.1022                 1.1001                 1.1023
 Frc consts  --      6.2938                 6.3115                 6.3708
 IR Inten    --     64.5421                36.5168                41.3724

                    121                    122                    123
                      A                      A                      A
 Frequencies --   3139.6812              3140.7122              3148.6866
 Red. masses --      1.0936                 1.0567                 1.0585
 Frc consts  --      6.3515                 6.1410                 6.1828
 IR Inten    --     39.6674                18.1468                17.0936

                    124                    125                    126
                      A                      A                      A
 Frequencies --   3156.1057              3215.2732              3230.7813
 Red. masses --      1.0879                 1.1189                 1.1154
 Frc consts  --      6.3849                 6.8150                 6.8596
 IR Inten    --     12.1594                 1.1891                26.2051

 - Thermochemistry -
 -------------------
 Temperature   298.150 Kelvin.  Pressure   1.00000 Atm.
 Atom     1 has atomic number  6 and mass  12.00000

 Molecular mass:   224.21402 amu.
 Principal axes and moments of inertia in atomic units:
                           1         2         3
     Eigenvalues --  2504.889465999.068006668.10464
           X            0.99990  -0.01303  -0.00501
           Y            0.01287   0.99945  -0.03065
           Z            0.00540   0.03058   0.99952
 This molecule is an asymmetric top.
 Rotational symmetry number  1.
 Warning -- assumption of classical behavior for rotation
           may cause significant error
 Rotational temperatures (Kelvin)      0.03458     0.01444     0.01299
 Rotational constants (GHZ):           0.72049     0.30084     0.27065
    1 imaginary frequencies ignored.
 Zero-point vibrational energy    1072294.6 (Joules/Mol)
                                  256.28455 (Kcal/Mol)
 Warning -- explicit consideration of  27 degrees of freedom as
           vibrations may cause significant error
 Vibrational temperatures:     40.75    64.17    98.30   115.39   176.25
          (Kelvin)            211.51   240.54   245.72   291.36   335.98
                              346.25   357.21   369.10   380.44   416.91
                              431.18   447.13   492.76   519.84   582.20
                              603.05   620.26   637.51   677.47   706.92
                              763.89   829.80   983.47  1116.09  1168.07
                             1175.91  1196.23  1215.10  1252.25  1271.51
                             1279.37  1297.24  1347.83  1352.52  1363.45
                             1376.73  1381.48  1402.06  1407.47  1446.48
                             1464.88  1480.90  1488.63  1526.45  1538.28
                             1562.90  1568.46  1591.01  1621.67  1646.51
                             1661.22  1665.35  1693.17  1732.61  1741.80
                             1743.73  1759.81  1772.03  1788.42  1802.82
                             1830.88  1852.90  1885.72  1901.01  1912.24
                             1942.44  1969.15  1985.73  1997.15  2002.95
                             2021.37  2047.78  2054.79  2057.60  2060.57
                             2072.98  2087.22  2092.48  2148.89  2171.76
                             2176.77  2182.88  2188.10  2192.83  2194.23
                             2197.64  2209.69  2209.95  2210.94  2222.20
                             2223.64  2248.96  4288.46  4324.58  4330.13
                             4342.61  4356.88  4370.51  4375.54  4381.29
                             4383.78  4397.12  4405.30  4425.72  4442.74
                             4458.38  4465.11  4467.73  4468.12  4476.18
                             4478.75  4479.11  4489.62  4506.17  4517.30
                             4518.78  4530.26  4540.93  4626.06  4648.37

 Zero-point correction=                           0.408415 (Hartree/Particle)
 Thermal correction to Energy=                    0.425796
 Thermal correction to Enthalpy=                  0.426740
 Thermal correction to Gibbs Free Energy=         0.363736
 Sum of electronic and zero-point Energies=           -663.320305
 Sum of electronic and thermal Energies=              -663.302925
 Sum of electronic and thermal Enthalpies=            -663.301981
 Sum of electronic and thermal Free Energies=         -663.364984

                     E (Thermal)             CV                S
                      KCal/Mol        Cal/Mol-Kelvin    Cal/Mol-Kelvin
 Total                  267.191             68.281            132.603
 Electronic               0.000              0.000              0.000
 Translational            0.889              2.981             42.125
 Rotational               0.889              2.981             32.971
 Vibrational            265.414             62.320             57.507
 Vibration     1          0.593              1.984              5.943
 Vibration     2          0.595              1.980              5.044
 Vibration     3          0.598              1.969              4.201
 Vibration     4          0.600              1.963              3.886
 Vibration     5          0.610              1.930              3.060
 Vibration     6          0.617              1.906              2.711
 Vibration     7          0.624              1.883              2.467
 Vibration     8          0.626              1.878              2.427
 Vibration     9          0.639              1.836              2.110
 Vibration    10          0.654              1.790              1.852
 Vibration    11          0.658              1.778              1.798
 Vibration    12          0.662              1.766              1.743
 Vibration    13          0.666              1.752              1.685
 Vibration    14          0.671              1.738              1.632
 Vibration    15          0.686              1.693              1.475
 Vibration    16          0.692              1.674              1.419
 Vibration    17          0.700              1.653              1.358
 Vibration    18          0.722              1.591              1.201
 Vibration    19          0.735              1.552              1.116
 Vibration    20          0.770              1.460              0.946
 Vibration    21          0.782              1.429              0.895
 Vibration    22          0.792              1.402              0.855
 Vibration    23          0.803              1.376              0.817
 Vibration    24          0.828              1.315              0.735
 Vibration    25          0.847              1.269              0.680
 Vibration    26          0.886              1.182              0.585
 Vibration    27          0.933              1.082              0.491

                           ! Non-Optimized Parameters !
 Normal termination of Gaussian 16 at Sun Dec 13 16:25:27 2020.

 ----------------------------------------------------------------------
 # B3LYP/6-311++G(d,p) empiricaldispersion=gd3bj scf=xqc pop=npa geom=c
 heck
 ----------------------------------------------------------------------

 ---------------------------------------
 CID_129156191_JID_6639_Energie_neutraal
 ---------------------------------------
 Structure from the checkpoint file:  "JID_6639.chk"
 Charge =  0 Multiplicity = 1

 SCF Done:  E(RB3LYP) =  -663.911753199     A.U. after   13 cycles
 Normal termination of Gaussian 16 at Sun Dec 13 16:34:49 2020.

 ----------------------------------------------------------------------
 # B3LYP/6-311++G(d,p) empiricaldispersion=gd3bj scf=xqc pop=npa geom=c
 heck
 ----------------------------------------------------------------------

 -------------------------------------
 CID_129156191_JID_6639_Energie_kation
 -------------------------------------
 Structure from the checkpoint file:  "JID_6639.chk"
 Charge =  1 Multiplicity = 2

 SCF Done:  E(UB3LYP) =  -663.599274672     A.U. after   21 cycles
 Normal termination of Gaussian 16 at Sun Dec 13 16:55:30 2020.
 Gaussian 16:  ES64L-G16RevA.03 25-Dec-2016

 ----------------------------------------------------------------------
 # B3LYP/6-311++G(d,p) empiricaldispersion=gd3bj scf=xqc pop=npa geom=c
 heck
 ----------------------------------------------------------------------

 ------------------------------------
 CID_129156191_JID_6639_Energie_anion
 ------------------------------------
 Structure from the checkpoint file:  "JID_6639.chk"
 Charge = -1 Multiplicity = 2

                         Standard orientation:
 ---------------------------------------------------------------------
 Center     Atomic      Atomic             Coordinates (Angstroms)
 Number     Number       Type             X           Y           Z
 ---------------------------------------------------------------------
      1          6           0       -3.220005    0.253753    1.778905
      2          6           0       -3.683208   -0.152898    0.372989
      3          6           0       -4.907185    0.679085   -0.034939
      4          6           0       -2.583638   -0.021646   -0.695501
      5          6           0       -1.441627   -1.036637   -0.630999
      6          6           0       -0.391248   -0.829149    0.470388
      7          6           0        0.915772   -1.286786   -0.194435
      8          6           0        0.682295   -0.858323   -1.651114
      9          8           0       -0.722594   -0.965050   -1.877316
     10          6           0        2.244655   -0.857318    0.479692
     11          6           0        2.382002   -1.645101    1.798896
     12          6           0        3.418812   -1.250722   -0.436569
     13          6           0        2.344870    0.647648    0.851994
     14          6           0        2.296493    1.684629   -0.254935
     15          6           0        1.034045    2.449456   -0.575823
     16          6           0        2.179884    3.143319    0.117023
     17          1           0       -2.850442    1.287540    1.780111
     18          1           0       -2.418850   -0.387260    2.156072
     19          1           0       -4.051268    0.198713    2.491484
     20          1           0       -3.991805   -1.209224    0.408582
     21          1           0       -4.647628    1.743628   -0.101156
     22          1           0       -5.293002    0.369073   -1.012672
     23          1           0       -5.717109    0.579453    0.697029
     24          1           0       -3.041631   -0.139200   -1.685385
     25          1           0       -2.158531    0.992504   -0.672005
     26          1           0       -1.870682   -2.048858   -0.550225
     27          1           0       -0.340845    0.228411    0.743696
     28          1           0       -0.622785   -1.396748    1.375242
     29          1           0        0.912957   -2.386797   -0.191266
     30          1           0        1.009265    0.170909   -1.830966
     31          1           0        1.195407   -1.512047   -2.365243
     32          1           0        2.351280   -2.725637    1.616643
     33          1           0        3.332920   -1.415524    2.293715
     34          1           0        1.574954   -1.398398    2.498054
     35          1           0        3.396207   -0.716291   -1.391523
     36          1           0        4.378103   -1.030051    0.046608
     37          1           0        3.394699   -2.324419   -0.657988
     38          1           0        1.568747    0.888043    1.590632
     39          1           0        3.300133    0.767965    1.383572
     40          1           0        2.946436    1.480346   -1.103285
     41          1           0        0.825173    2.696791   -1.613045
     42          1           0        0.144758    2.234878    0.010225
     43          1           0        2.061961    3.385626    1.170685
     44          1           0        2.760827    3.871126   -0.442513
 ---------------------------------------------------------------------

 SCF Done:  E(UB3LYP) =  -663.896945859     A.U. after   31 cycles

 The electronic state is 2-A.
 Alpha  occ. eigenvalues --  -19.01857 -10.12223 -10.11038 -10.09252 -10.08631
 Alpha  occ. eigenvalues --  -10.08429 -10.08046 -10.07954 -10.07856 -10.07423
 Alpha  occ. eigenvalues --  -10.07025 -10.06963 -10.06904 -10.06403 -10.06333
 Alpha  occ. eigenvalues --  -10.06083  -0.93536  -0.77271  -0.73529  -0.72211
 Alpha  occ. eigenvalues --   -0.67108  -0.65205  -0.60592  -0.59513  -0.59329
 Alpha  occ. eigenvalues --   -0.57581  -0.51600  -0.51263  -0.49069  -0.48107
 Alpha  occ. eigenvalues --   -0.46888  -0.44187  -0.41081  -0.40419  -0.38901
 Alpha  occ. eigenvalues --   -0.37375  -0.36372  -0.35790  -0.34764  -0.33678
 Alpha  occ. eigenvalues --   -0.33607  -0.32450  -0.31519  -0.30902  -0.29930
 Alpha  occ. eigenvalues --   -0.29371  -0.29086  -0.28510  -0.27616  -0.27266
 Alpha  occ. eigenvalues --   -0.26965  -0.26096  -0.24964  -0.24550  -0.24128
 Alpha  occ. eigenvalues --   -0.23431  -0.23223  -0.22530  -0.21540  -0.20934
 Alpha  occ. eigenvalues --   -0.20042  -0.18691  -0.15172   0.04235
 Alpha virt. eigenvalues --    0.05832   0.06438   0.07047   0.07693   0.08023
 Alpha virt. eigenvalues --    0.08186   0.08939   0.09003   0.09832   0.10168
 Alpha virt. eigenvalues --    0.10377   0.10706   0.11436   0.11608   0.11900

  Beta  occ. eigenvalues --  -19.01856 -10.12217 -10.11032 -10.09248 -10.08623
  Beta  occ. eigenvalues --  -10.08420 -10.08038 -10.07937 -10.07848 -10.07408
  Beta  occ. eigenvalues --  -10.07011 -10.06943 -10.06900 -10.06376 -10.06306
  Beta  occ. eigenvalues --  -10.06053  -0.93531  -0.77256  -0.73511  -0.72192
  Beta  occ. eigenvalues --   -0.67085  -0.65185  -0.60558  -0.59466  -0.59281
  Beta  occ. eigenvalues --   -0.57549  -0.51563  -0.51224  -0.49032  -0.48067
  Beta  occ. eigenvalues --   -0.46857  -0.44150  -0.41050  -0.40395  -0.38867
  Beta  occ. eigenvalues --   -0.37343  -0.36339  -0.35764  -0.34740  -0.33658
  Beta  occ. eigenvalues --   -0.33585  -0.32427  -0.31492  -0.30871  -0.29904
  Beta  occ. eigenvalues --   -0.29347  -0.29056  -0.28483  -0.27598  -0.27243
  Beta  occ. eigenvalues --   -0.26934  -0.26070  -0.24938  -0.24521  -0.24100
  Beta  occ. eigenvalues --   -0.23401  -0.23203  -0.22507  -0.21517  -0.20918
  Beta  occ. eigenvalues --   -0.20022  -0.18673  -0.15162
  Beta virt. eigenvalues --    0.06129   0.06543   0.07006   0.07520   0.08147
  Beta virt. eigenvalues --    0.08373   0.08572   0.09239   0.09387   0.10182
  Beta virt. eigenvalues --    0.10527   0.10577   0.10922   0.11764   0.11837

 Mulliken charges and spin densities:
               1          2
     1  C    0.238474  -0.869450
     2  C   -0.670845   1.013715
     3  C    0.276063  -0.904844
     4  C    0.916412  -1.076227
     5  C   -0.623684   0.198631
     6  C    0.442222  -0.758583
     7  C    0.450956  -0.551774
     8  C   -0.298859  -0.252558
     9  O   -0.091012   0.003382
    10  C   -1.471747   2.254704
    11  C    0.740448  -1.284659
    12  C    0.128813  -0.672157
    13  C    0.873562  -1.542059
    14  C   -1.373864   1.438368
    15  C   -0.358796   0.003324
    16  C    0.725318  -1.245570
    17  H   -0.014270   0.160018
    18  H   -0.060743   0.192582
    19  H   -0.358052   0.513660
    20  H    0.034465   0.098736
    21  H    0.019652   0.113516
    22  H   -0.071537   0.196033
    23  H   -0.096548   0.235144
    24  H    0.206909  -0.046319
    25  H    0.099348   0.055017
    26  H   -0.156649   0.363138
    27  H    0.204438  -0.125223
    28  H    0.042691   0.121572
    29  H    0.164053   0.052865
    30  H    0.090652   0.126084
    31  H    0.011169   0.154584
    32  H   -0.149607   0.296428
    33  H   -0.202325   0.351825
    34  H   -0.189450   0.341223
    35  H    0.021890   0.101484
    36  H   -0.271935   0.428997
    37  H   -0.158988   0.328022
    38  H   -0.023227   0.200519
    39  H    0.026218   0.149516
    40  H   -0.041263   0.270249
    41  H    0.064915   0.087078
    42  H    0.146240  -0.055174
    43  H   -0.073908   0.207187
    44  H   -0.167601   0.326995
 Sum of Mulliken charges =  -1.00000   1.00000

 Dipole moment (field-independent basis, Debye):
    X=             -0.8219    Y=              1.0396    Z=             -2.8036  Tot=              3.1011
 Quadrupole moment (field-independent basis, Debye-Ang):
   XX=           -192.5457   YY=           -152.5179   ZZ=           -151.4503
   XY=              2.1549   XZ=              3.0271   YZ=              1.8614

 Summary of Natural Population Analysis:

                                       Natural Population
                Natural  -----------------------------------------------
    Atom  No    Charge         Core      Valence    Rydberg      Total
 -----------------------------------------------------------------------
      C    1   -0.28518      0.99965     2.27944    0.00609     3.28518
      C    2   -0.11558      0.99961     2.10638    0.00959     3.11558
      C    3   -0.27993      0.99965     2.27558    0.00470     3.27993
      C    4   -0.19273      0.99958     2.18419    0.00895     3.19273
      C    5    0.07279      0.99955     1.91354    0.01412     2.92721
      C    6   -0.20463      0.99960     2.19668    0.00835     3.20463
      C    7   -0.11540      0.99956     2.10423    0.01162     3.11540
      C    8   -0.00615      0.99955     1.99492    0.01168     3.00615
      O    9   -0.30756      0.99989     3.29989    0.00778     4.30756
      C   10   -0.04066      0.99956     2.02719    0.01391     3.04066
      C   11   -0.28158      0.99963     2.27427    0.00768     3.28158
      C   12   -0.28548      0.99963     2.27838    0.00748     3.28548
      C   13   -0.19034      0.99957     2.17908    0.01169     3.19034
      C   14   -0.11873      0.99958     2.10806    0.01109     3.11873
      C   15   -0.19975      0.99961     2.19253    0.00761     3.19975
      C   16   -0.19558      0.99962     2.18857    0.00740     3.19558
      H   17    0.09531      0.00000     0.40361    0.00107     0.40469
      H   18    0.10180      0.00000     0.39691    0.00129     0.39820
      H   19    0.09903      0.00000     0.39998    0.00100     0.40097
      H   20    0.09096      0.00000     0.40700    0.00204     0.40904
      H   21    0.09560      0.00000     0.40346    0.00094     0.40440
      H   22    0.09711      0.00000     0.40195    0.00094     0.40289
      H   23    0.09862      0.00000     0.40045    0.00093     0.40138
      H   24    0.10251      0.00000     0.39616    0.00134     0.39749
      H   25    0.09460      0.00000     0.40380    0.00160     0.40540
      H   26    0.07972      0.00000     0.41860    0.00168     0.42028
      H   27    0.09879      0.00000     0.39897    0.00224     0.40121
      H   28    0.10748      0.00000     0.39129    0.00123     0.39252
      H   29    0.09897      0.00000     0.39924    0.00179     0.40103
      H   30    0.08526      0.00000     0.41299    0.00175     0.41474
      H   31    0.08602      0.00000     0.41283    0.00115     0.41398
      H   32    0.10035      0.00000     0.39848    0.00117     0.39965
      H   33    0.10015      0.00000     0.39875    0.00111     0.39985
      H   34    0.10157      0.00000     0.39719    0.00124     0.39843
      H   35    0.09894      0.00000     0.39989    0.00117     0.40106
      H   36    0.10138      0.00000     0.39767    0.00095     0.39862
      H   37    0.10132      0.00000     0.39769    0.00099     0.39868
      H   38    0.10027      0.00000     0.39805    0.00168     0.39973
      H   39    0.10184      0.00000     0.39685    0.00131     0.39816
      H   40    0.10361      0.00000     0.39507    0.00132     0.39639
      H   41    0.10207      0.00000     0.39706    0.00087     0.39793
      H   42    0.10112      0.00000     0.39758    0.00130     0.39888
      H   43    0.10068      0.00000     0.39840    0.00092     0.39932
      H   44    0.10140      0.00000     0.39766    0.00094     0.39860
 =======================================================================
   * Total *   -0.00000     15.99383    46.82048    0.18569    63.00000

 Normal termination of Gaussian 16 at Sun Dec 13 17:24:54 2020.
