 Gaussian 16, Revision A.03,

 -----------------------------------------------------------
 # opt freq B3LYP/6-31G(d) empiricaldispersion=gd3bj scf=xqc
 -----------------------------------------------------------

 -------------------------------
 CID_136958835_JID_7525_neutraal
 -------------------------------
 Symbolic Z-matrix:
 Charge =  0 Multiplicity = 1

 SCF Done:  E(RB3LYP) =  -818.222853223     A.U. after   15 cycles
 SCF Done:  E(RB3LYP) =  -818.233144557     A.U. after   13 cycles
 SCF Done:  E(RB3LYP) =  -818.235117930     A.U. after   12 cycles
 SCF Done:  E(RB3LYP) =  -818.235298861     A.U. after   13 cycles
 SCF Done:  E(RB3LYP) =  -818.235992688     A.U. after   12 cycles
 SCF Done:  E(RB3LYP) =  -818.236324919     A.U. after   12 cycles
 SCF Done:  E(RB3LYP) =  -818.236711047     A.U. after   12 cycles
 SCF Done:  E(RB3LYP) =  -818.236947192     A.U. after   13 cycles
 SCF Done:  E(RB3LYP) =  -818.237047630     A.U. after   12 cycles
 SCF Done:  E(RB3LYP) =  -818.237275289     A.U. after   12 cycles
 SCF Done:  E(RB3LYP) =  -818.237586078     A.U. after   12 cycles
 SCF Done:  E(RB3LYP) =  -818.237593178     A.U. after   10 cycles
 SCF Done:  E(RB3LYP) =  -818.237593565     A.U. after    9 cycles
 SCF Done:  E(RB3LYP) =  -818.237593865     A.U. after    8 cycles
 SCF Done:  E(RB3LYP) =  -818.237593857     A.U. after    7 cycles
 Optimization completed.
    -- Stationary point found.
 Normal termination of Gaussian 16 at Fri Dec 11 12:32:31 2020.

 --------------------------------------------------------------------
 #N Geom=AllCheck Guess=TCheck SCRF=Check GenChk RB3LYP/6-31G(d) Freq
 --------------------------------------------------------------------

 Structure from the checkpoint file:  "JID_7525.chk"
 -------------------------------
 CID_136958835_JID_7525_neutraal
 -------------------------------
 Charge =  0 Multiplicity = 1

 SCF Done:  E(RB3LYP) =  -818.237593857     A.U. after    1 cycles

  Exact polarizability: 178.666 -10.842 122.737 -14.451 -15.312 108.869
 Approx polarizability: 257.593  -8.177 189.294 -45.406 -35.136 184.637

                      1                      2                      3
                      A                      A                      A
 Frequencies --     38.3413                51.0996                73.1851
 Red. masses --      6.9805                 6.0631                 5.1413
 Frc consts  --      0.0060                 0.0093                 0.0162
 IR Inten    --      0.0374                 2.4687                 2.0561

                      4                      5                      6
                      A                      A                      A
 Frequencies --     89.4005               129.2027               148.6483
 Red. masses --      8.7504                 5.2430                 4.9729
 Frc consts  --      0.0412                 0.0516                 0.0647
 IR Inten    --      3.3229                 1.3349                 1.0721

                      7                      8                      9
                      A                      A                      A
 Frequencies --    186.7717               193.0021               235.8858
 Red. masses --      6.0333                 7.3675                 4.3912
 Frc consts  --      0.1240                 0.1617                 0.1440
 IR Inten    --      0.2623                 3.3388                 0.4008

                     10                     11                     12
                      A                      A                      A
 Frequencies --    270.1689               278.8558               349.0915
 Red. masses --      3.4143                 2.5237                 2.6470
 Frc consts  --      0.1468                 0.1156                 0.1901
 IR Inten    --      5.0115                 0.3771                 0.7919

                     13                     14                     15
                      A                      A                      A
 Frequencies --    373.0008               411.0493               422.1084
 Red. masses --      3.0742                 3.2815                 2.8228
 Frc consts  --      0.2520                 0.3267                 0.2963
 IR Inten    --      1.4164                 1.6394                21.2592

                     16                     17                     18
                      A                      A                      A
 Frequencies --    437.8641               491.1206               511.1378
 Red. masses --      2.9170                 2.8069                 2.7312
 Frc consts  --      0.3295                 0.3989                 0.4204
 IR Inten    --     14.4458                 8.1123                23.6437

                     19                     20                     21
                      A                      A                      A
 Frequencies --    534.6831               549.0235               560.4364
 Red. masses --      3.3613                 3.5842                 3.1675
 Frc consts  --      0.5662                 0.6365                 0.5862
 IR Inten    --     38.5532                35.2396                41.6776

                     22                     23                     24
                      A                      A                      A
 Frequencies --    582.2377               614.8265               649.1460
 Red. masses --      1.5996                 2.1930                 3.6578
 Frc consts  --      0.3195                 0.4884                 0.9081
 IR Inten    --     75.6754                16.8647                40.8533

                     25                     26                     27
                      A                      A                      A
 Frequencies --    656.5707               696.8138               730.8709
 Red. masses --      1.4628                 2.0779                 3.2468
 Frc consts  --      0.3715                 0.5944                 1.0218
 IR Inten    --     74.2518                37.5170                39.8540

                     28                     29                     30
                      A                      A                      A
 Frequencies --    751.8370               758.1388               796.3197
 Red. masses --      3.4723                 3.1386                 2.4371
 Frc consts  --      1.1564                 1.0629                 0.9105
 IR Inten    --     35.1387                 3.8933                13.7332

                     31                     32                     33
                      A                      A                      A
 Frequencies --    802.4319               816.8201               830.5393
 Red. masses --      4.7148                 1.9340                 2.8993
 Frc consts  --      1.7887                 0.7603                 1.1783
 IR Inten    --      4.6242                43.6277                 5.1660

                     34                     35                     36
                      A                      A                      A
 Frequencies --    857.6185               885.2892               915.8539
 Red. masses --      2.4285                 1.7092                 2.5085
 Frc consts  --      1.0524                 0.7892                 1.2397
 IR Inten    --      1.8849                 5.5538                 4.5569

                     37                     38                     39
                      A                      A                      A
 Frequencies --    949.5833               956.1109               967.0867
 Red. masses --      2.7598                 1.3971                 2.2081
 Frc consts  --      1.4662                 0.7525                 1.2167
 IR Inten    --      5.1739                 1.4080                 7.0811

                     40                     41                     42
                      A                      A                      A
 Frequencies --    985.8621              1022.2044              1034.8241
 Red. masses --      6.9839                 2.1118                 2.2260
 Frc consts  --      3.9992                 1.3001                 1.4044
 IR Inten    --     20.5985                 6.7621                 0.9779

                     43                     44                     45
                      A                      A                      A
 Frequencies --   1065.5006              1103.0088              1110.1502
 Red. masses --      2.2047                 1.7825                 1.8771
 Frc consts  --      1.4747                 1.2777                 1.3630
 IR Inten    --      1.7589                 4.3584                 5.4836

                     46                     47                     48
                      A                      A                      A
 Frequencies --   1130.8881              1153.0415              1174.7203
 Red. masses --      1.9785                 1.0757                 1.6551
 Frc consts  --      1.4908                 0.8426                 1.3457
 IR Inten    --     97.5696                 1.7580                16.6363

                     49                     50                     51
                      A                      A                      A
 Frequencies --   1203.6745              1228.9622              1238.4357
 Red. masses --      2.3088                 1.6349                 2.1933
 Frc consts  --      1.9708                 1.4548                 1.9820
 IR Inten    --     93.9863                58.4868                 7.6791

                     52                     53                     54
                      A                      A                      A
 Frequencies --   1266.5859              1302.6408              1310.4629
 Red. masses --      1.2949                 1.5084                 1.5330
 Frc consts  --      1.2239                 1.5080                 1.5511
 IR Inten    --      5.1697                 9.9907                55.4104

                     55                     56                     57
                      A                      A                      A
 Frequencies --   1318.6719              1333.1856              1350.7718
 Red. masses --      1.4305                 2.0292                 1.5624
 Frc consts  --      1.4656                 2.1250                 1.6796
 IR Inten    --     21.2256                31.6871                 3.7238

                     58                     59                     60
                      A                      A                      A
 Frequencies --   1371.0956              1375.5893              1390.6195
 Red. masses --      1.7295                 1.3593                 1.8573
 Frc consts  --      1.9156                 1.5155                 2.1162
 IR Inten    --     14.4357                 2.2562                11.5922

                     61                     62                     63
                      A                      A                      A
 Frequencies --   1395.9235              1408.1020              1412.0386
 Red. masses --      1.4171                 1.4125                 1.4479
 Frc consts  --      1.6270                 1.6501                 1.7009
 IR Inten    --     10.1349                 8.1804                 1.9062

                     64                     65                     66
                      A                      A                      A
 Frequencies --   1418.3257              1435.3856              1485.6988
 Red. masses --      1.4937                 1.6792                 2.5355
 Frc consts  --      1.7704                 2.0384                 3.2974
 IR Inten    --      7.8969                 7.1895                23.9130

                     67                     68                     69
                      A                      A                      A
 Frequencies --   1508.8638              1511.0295              1525.1749
 Red. masses --      1.0925                 1.0889                 1.0980
 Frc consts  --      1.4655                 1.4649                 1.5048
 IR Inten    --      8.7520                 2.6018                13.6431

                     70                     71                     72
                      A                      A                      A
 Frequencies --   1537.8992              1572.9726              1616.5998
 Red. masses --      1.1785                 1.6911                 5.4039
 Frc consts  --      1.6423                 2.4653                 8.3207
 IR Inten    --     94.8448               332.0728               125.6988

                     73                     74                     75
                      A                      A                      A
 Frequencies --   1690.0536              1807.5965              1838.2902
 Red. masses --      6.2229                 8.9139                 9.6615
 Frc consts  --     10.4724                17.1602                19.2364
 IR Inten    --    310.2220               737.9803               245.1791

                     76                     77                     78
                      A                      A                      A
 Frequencies --   3037.5336              3047.5298              3053.6895
 Red. masses --      1.0690                 1.0673                 1.0731
 Frc consts  --      5.8112                 5.8401                 5.8959
 IR Inten    --     21.2503                 6.3394                 4.4188

                     79                     80                     81
                      A                      A                      A
 Frequencies --   3062.2097              3063.2094              3070.1434
 Red. masses --      1.0705                 1.0740                 1.0777
 Frc consts  --      5.9141                 5.9374                 5.9851
 IR Inten    --     31.1218                42.8140                37.0244

                     82                     83                     84
                      A                      A                      A
 Frequencies --   3090.1663              3097.1104              3106.1035
 Red. masses --      1.1000                 1.0973                 1.1015
 Frc consts  --      6.1885                 6.2014                 6.2612
 IR Inten    --     27.6963                32.9333                52.7077

                     85                     86                     87
                      A                      A                      A
 Frequencies --   3127.4158              3185.9997              3248.8747
 Red. masses --      1.0970                 1.0925                 1.0910
 Frc consts  --      6.3215                 6.5339                 6.7848
 IR Inten    --     10.3840                21.1306                 3.8491

                     88                     89                     90
                      A                      A                      A
 Frequencies --   3602.1398              3613.6044              3673.1908
 Red. masses --      1.0786                 1.0753                 1.0638
 Frc consts  --      8.2456                 8.2729                 8.4564
 IR Inten    --     67.0393                44.8035                47.9909

 - Thermochemistry -
 -------------------
 Temperature   298.150 Kelvin.  Pressure   1.00000 Atm.
 Atom     1 has atomic number  6 and mass  12.00000

 Molecular mass:   237.11134 amu.
 Principal axes and moments of inertia in atomic units:
                           1         2         3
     Eigenvalues --  1975.362355476.283545996.25956
           X            0.99978  -0.02061   0.00233
           Y            0.02067   0.99937  -0.02872
           Z           -0.00173   0.02876   0.99958
 This molecule is an asymmetric top.
 Rotational symmetry number  1.
 Warning -- assumption of classical behavior for rotation
           may cause significant error
 Rotational temperatures (Kelvin)      0.04385     0.01582     0.01444
 Rotational constants (GHZ):           0.91363     0.32956     0.30098
 Zero-point vibrational energy     701406.1 (Joules/Mol)
                                  167.64008 (Kcal/Mol)
 Warning -- explicit consideration of  23 degrees of freedom as
           vibrations may cause significant error
 Vibrational temperatures:     55.16    73.52   105.30   128.63   185.89
          (Kelvin)            213.87   268.72   277.69   339.39   388.71
                              401.21   502.26   536.66   591.41   607.32
                              629.99   706.61   735.41   769.29   789.92
                              806.34   837.71   884.60   933.98   944.66
                             1002.56  1051.56  1081.73  1090.79  1145.73
                             1154.52  1175.22  1194.96  1233.92  1273.73
                             1317.71  1366.24  1375.63  1391.42  1418.44
                             1470.72  1488.88  1533.02  1586.98  1597.26
                             1627.10  1658.97  1690.16  1731.82  1768.20
                             1781.83  1822.33  1874.21  1885.46  1897.27
                             1918.16  1943.46  1972.70  1979.17  2000.79
                             2008.42  2025.94  2031.61  2040.65  2065.20
                             2137.59  2170.92  2174.03  2194.39  2212.69
                             2263.16  2325.93  2431.61  2600.73  2644.89
                             4370.33  4384.72  4393.58  4405.84  4407.28
                             4417.25  4446.06  4456.05  4468.99  4499.65
                             4583.94  4674.41  5182.68  5199.17  5284.90

 Zero-point correction=                           0.267151 (Hartree/Particle)
 Thermal correction to Energy=                    0.281728
 Thermal correction to Enthalpy=                  0.282672
 Thermal correction to Gibbs Free Energy=         0.225185
 Sum of electronic and zero-point Energies=           -817.970442
 Sum of electronic and thermal Energies=              -817.955866
 Sum of electronic and thermal Enthalpies=            -817.954922
 Sum of electronic and thermal Free Energies=         -818.012408

                     E (Thermal)             CV                S
                      KCal/Mol        Cal/Mol-Kelvin    Cal/Mol-Kelvin
 Total                  176.787             57.717            120.990
 Electronic               0.000              0.000              0.000
 Translational            0.889              2.981             42.292
 Rotational               0.889              2.981             32.539
 Vibrational            175.009             51.756             46.160
 Vibration     1          0.594              1.982              5.343
 Vibration     2          0.595              1.977              4.774
 Vibration     3          0.599              1.967              4.066
 Vibration     4          0.602              1.957              3.673
 Vibration     5          0.612              1.924              2.958
 Vibration     6          0.618              1.904              2.689
 Vibration     7          0.632              1.858              2.260
 Vibration     8          0.635              1.850              2.199
 Vibration     9          0.655              1.786              1.834
 Vibration    10          0.674              1.728              1.595
 Vibration    11          0.679              1.713              1.541
 Vibration    12          0.726              1.577              1.170
 Vibration    13          0.744              1.528              1.067
 Vibration    14          0.775              1.446              0.923
 Vibration    15          0.784              1.422              0.885
 Vibration    16          0.798              1.388              0.833
 Vibration    17          0.847              1.270              0.681
 Vibration    18          0.866              1.225              0.631
 Vibration    19          0.890              1.173              0.577
 Vibration    20          0.904              1.142              0.546
 Vibration    21          0.916              1.117              0.523
 Vibration    22          0.939              1.070              0.481
 Vibration    23          0.974              1.001              0.425

 Optimization completed.
    -- Stationary point found.
 Normal termination of Gaussian 16 at Fri Dec 11 12:45:21 2020.

 ----------------------------------------------------------------------
 # B3LYP/6-311++G(d,p) empiricaldispersion=gd3bj scf=xqc pop=npa geom=c
 heck
 ----------------------------------------------------------------------

 ---------------------------------------
 CID_136958835_JID_7525_Energie_neutraal
 ---------------------------------------
 Structure from the checkpoint file:  "JID_7525.chk"
 Charge =  0 Multiplicity = 1

 SCF Done:  E(RB3LYP) =  -818.480903740     A.U. after   16 cycles
 Normal termination of Gaussian 16 at Fri Dec 11 12:54:41 2020.

 ----------------------------------------------------------------------
 # B3LYP/6-311++G(d,p) empiricaldispersion=gd3bj scf=xqc pop=npa geom=c
 heck
 ----------------------------------------------------------------------

 -------------------------------------
 CID_136958835_JID_7525_Energie_kation
 -------------------------------------
 Structure from the checkpoint file:  "JID_7525.chk"
 Charge =  1 Multiplicity = 2

 SCF Done:  E(UB3LYP) =  -818.188431825     A.U. after   25 cycles
 Normal termination of Gaussian 16 at Fri Dec 11 13:05:03 2020.
 Gaussian 16:  ES64L-G16RevA.03 25-Dec-2016

 ----------------------------------------------------------------------
 # B3LYP/6-311++G(d,p) empiricaldispersion=gd3bj scf=xqc pop=npa geom=c
 heck
 ----------------------------------------------------------------------

 ------------------------------------
 CID_136958835_JID_7525_Energie_anion
 ------------------------------------
 Structure from the checkpoint file:  "JID_7525.chk"
 Charge = -1 Multiplicity = 2

                         Standard orientation:
 ---------------------------------------------------------------------
 Center     Atomic      Atomic             Coordinates (Angstroms)
 Number     Number       Type             X           Y           Z
 ---------------------------------------------------------------------
      1          6           0        3.246988   -0.456912   -0.939630
      2          6           0        3.409386    0.223914    0.428172
      3          6           0        2.091028    0.390736    1.206464
      4          6           0        1.305179   -0.940723    1.265542
      5          6           0        1.078427   -1.538532   -0.138193
      6          6           0        2.423858   -1.751609   -0.847452
      7          7           0        0.232188   -0.686070   -0.969985
      8          6           0       -1.061067   -0.357827   -0.678731
      9          6           0       -1.880660   -1.093843    0.154002
     10          6           0       -3.225073   -0.674398    0.414914
     11          8           0       -4.073861   -1.206998    1.118977
     12          7           0       -3.552033    0.536047   -0.273392
     13          6           0       -2.686103    1.189634   -1.077351
     14          7           0       -1.471176    0.803752   -1.318749
     15          6           0        1.151483    1.490608    0.730025
     16          8           0        0.166598    1.842772    1.339911
     17          8           0        1.493457    2.047591   -0.462983
     18          1           0        4.236584   -0.685312   -1.352180
     19          1           0        2.784030    0.243958   -1.642658
     20          1           0        4.069749   -0.394319    1.051416
     21          1           0        3.904956    1.192977    0.309018
     22          1           0        2.322832    0.672477    2.240537
     23          1           0        0.350744   -0.776207    1.772297
     24          1           0        1.877088   -1.661162    1.863420
     25          1           0        0.578825   -2.508747   -0.033229
     26          1           0        2.251346   -2.170226   -1.845530
     27          1           0        2.986997   -2.500219   -0.276007
     28          1           0        0.698877    0.027977   -1.512845
     29          1           0       -1.544705   -2.000843    0.638367
     30          1           0       -4.487917    0.889351   -0.113218
     31          1           0       -3.054362    2.100914   -1.544464
     32          1           0        0.751883    2.640064   -0.693844
 ---------------------------------------------------------------------

 SCF Done:  E(UB3LYP) =  -818.474924975     A.U. after   33 cycles
 SCF Done:  E(UB3LYP) =  -818.475032295     a.u. after    4 cycles

 The electronic state is 2-A.
 Alpha  occ. eigenvalues --  -19.07595 -19.01551 -18.97867 -14.26149 -14.23053
 Alpha  occ. eigenvalues --  -14.20842 -10.20697 -10.16938 -10.15291 -10.14789
 Alpha  occ. eigenvalues --  -10.11943 -10.09565 -10.07865 -10.07653 -10.07598
 Alpha  occ. eigenvalues --  -10.07498 -10.05657  -1.01433  -0.93697  -0.92344
 Alpha  occ. eigenvalues --   -0.89010  -0.85137  -0.78765  -0.73888  -0.67960
 Alpha  occ. eigenvalues --   -0.66468  -0.65013  -0.56992  -0.56652  -0.54348
 Alpha  occ. eigenvalues --   -0.52139  -0.51045  -0.47259  -0.45902  -0.44518
 Alpha  occ. eigenvalues --   -0.41267  -0.39897  -0.39652  -0.38489  -0.37217
 Alpha  occ. eigenvalues --   -0.36335  -0.35405  -0.34862  -0.34532  -0.32399
 Alpha  occ. eigenvalues --   -0.31480  -0.31230  -0.30699  -0.29185  -0.29068
 Alpha  occ. eigenvalues --   -0.28385  -0.27502  -0.27064  -0.24791  -0.23821
 Alpha  occ. eigenvalues --   -0.23351  -0.21950  -0.21245  -0.19156  -0.18292
 Alpha  occ. eigenvalues --   -0.15867  -0.15701  -0.11949   0.03895
 Alpha virt. eigenvalues --    0.05481   0.06106   0.07326   0.07485   0.08301
 Alpha virt. eigenvalues --    0.09155   0.09237   0.09878   0.10349   0.10506
 Alpha virt. eigenvalues --    0.10668   0.11428   0.11705   0.13006   0.13406

  Beta  occ. eigenvalues --  -19.07581 -19.01541 -18.97867 -14.26066 -14.23040
  Beta  occ. eigenvalues --  -14.20867 -10.20671 -10.16943 -10.15119 -10.14702
  Beta  occ. eigenvalues --  -10.11941 -10.09560 -10.07849 -10.07624 -10.07573
  Beta  occ. eigenvalues --  -10.07486 -10.05612  -1.01401  -0.93644  -0.92322
  Beta  occ. eigenvalues --   -0.88905  -0.85039  -0.78683  -0.73840  -0.67868
  Beta  occ. eigenvalues --   -0.66392  -0.64959  -0.56781  -0.56586  -0.54265
  Beta  occ. eigenvalues --   -0.52076  -0.50996  -0.47186  -0.45807  -0.44437
  Beta  occ. eigenvalues --   -0.41206  -0.39820  -0.39623  -0.38435  -0.37131
  Beta  occ. eigenvalues --   -0.36246  -0.35353  -0.34614  -0.34434  -0.32337
  Beta  occ. eigenvalues --   -0.31438  -0.31199  -0.30632  -0.29144  -0.29031
  Beta  occ. eigenvalues --   -0.28324  -0.27450  -0.26901  -0.24629  -0.23624
  Beta  occ. eigenvalues --   -0.23288  -0.21915  -0.21139  -0.19148  -0.18262
  Beta  occ. eigenvalues --   -0.15836  -0.15533  -0.11701
  Beta virt. eigenvalues --    0.06237   0.06561   0.07207   0.07758   0.08072
  Beta virt. eigenvalues --    0.08786   0.09479   0.09734   0.10126   0.10582
  Beta virt. eigenvalues --    0.10759   0.11016   0.11672   0.12038   0.13229

 Mulliken charges and spin densities:
               1          2
     1  C   -0.439884   0.234866
     2  C    0.955580  -1.693923
     3  C   -0.127721   0.819468
     4  C   -0.127925  -0.736271
     5  C    0.110988   0.396057
     6  C    0.209331  -0.977719
     7  N    0.214431  -0.030203
     8  C   -0.095937  -0.660601
     9  C   -0.179967   0.679754
    10  C   -0.019062  -0.187156
    11  O   -0.398514   0.008095
    12  N   -0.254303   0.003443
    13  C    0.476001  -0.302602
    14  N   -0.249095   0.010025
    15  C    0.010052  -0.464627
    16  O   -0.197700   0.028442
    17  O   -0.163656   0.039918
    18  H   -0.360764   0.548180
    19  H    0.045910   0.089660
    20  H   -0.354143   0.515887
    21  H    0.013459   0.166972
    22  H   -0.184987   0.456940
    23  H    0.344563  -0.148692
    24  H   -0.495702   0.672072
    25  H    0.202261   0.010901
    26  H    0.030677   0.142313
    27  H   -0.208746   0.370815
    28  H    0.430829  -0.181768
    29  H    0.094903   0.103817
    30  H    0.193580   0.136782
    31  H   -0.589444   0.755471
    32  H    0.114984   0.193684
 Sum of Mulliken charges =  -1.00000   1.00000

 Dipole moment (field-independent basis, Debye):
    X=             -0.5222    Y=              1.0885    Z=             -3.4505  Tot=              3.6556
 Quadrupole moment (field-independent basis, Debye-Ang):
   XX=           -182.2448   YY=           -138.2227   ZZ=           -134.0432
   XY=              3.8325   XZ=              1.3216   YZ=              4.9648

 Summary of Natural Population Analysis:

                                       Natural Population
                Natural  -----------------------------------------------
    Atom  No    Charge         Core      Valence    Rydberg      Total
 -----------------------------------------------------------------------
      C    1   -0.19417      0.99962     2.18616    0.00839     3.19417
      C    2   -0.19082      0.99962     2.18110    0.01011     3.19082
      C    3   -0.15830      0.99953     2.14645    0.01232     3.15830
      C    4   -0.19200      0.99959     2.18261    0.00979     3.19200
      C    5   -0.00826      0.99958     1.99612    0.01255     3.00826
      C    6   -0.19123      0.99961     2.18233    0.00929     3.19123
      N    7   -0.31424      0.99965     2.80448    0.01010     3.81424
      C    8    0.22668      0.99952     1.75867    0.01513     2.77332
      C    9   -0.20872      0.99947     2.20231    0.00694     3.20872
      C   10    0.31462      0.99963     1.66366    0.02210     2.68538
      O   11   -0.33550      0.99988     3.32979    0.00584     4.33550
      N   12   -0.29171      0.99967     2.78341    0.00864     3.79171
      C   13    0.19500      0.99966     1.78818    0.01716     2.80500
      N   14   -0.29039      0.99968     2.78000    0.01071     3.79039
      C   15    0.41102      0.99967     1.56234    0.02697     2.58898
      O   16   -0.30424      0.99987     3.29829    0.00608     4.30424
      O   17   -0.35400      0.99987     3.34766    0.00646     4.35400
      H   18    0.10284      0.00000     0.39596    0.00120     0.39716
      H   19    0.09606      0.00000     0.40226    0.00168     0.40394
      H   20    0.10215      0.00000     0.39564    0.00221     0.39785
      H   21    0.10389      0.00000     0.39481    0.00131     0.39611
      H   22    0.11959      0.00000     0.37910    0.00131     0.38041
      H   23    0.11441      0.00000     0.38435    0.00125     0.38559
      H   24    0.10517      0.00000     0.39317    0.00166     0.39483
      H   25    0.09941      0.00000     0.39894    0.00165     0.40059
      H   26    0.10091      0.00000     0.39814    0.00095     0.39909
      H   27    0.10244      0.00000     0.39627    0.00128     0.39756
      H   28    0.19725      0.00000     0.29898    0.00377     0.30275
      H   29    0.10871      0.00000     0.38969    0.00161     0.39129
      H   30    0.20082      0.00000     0.29667    0.00252     0.29918
      H   31    0.08712      0.00000     0.41117    0.00171     0.41288
      H   32    0.24551      0.00000     0.25092    0.00357     0.25449
 =======================================================================
   * Total *    0.00000     16.99412    45.77962    0.22626    63.00000

 Normal termination of Gaussian 16 at Fri Dec 11 13:56:47 2020.
