 Gaussian 16, Revision A.03,

 -----------------------------------------------------------
 # opt freq B3LYP/6-31G(d) empiricaldispersion=gd3bj scf=xqc
 -----------------------------------------------------------

 ------------------------------
 CID_22446670_JID_1813_neutraal
 ------------------------------
 Symbolic Z-matrix:
 Charge =  0 Multiplicity = 1

 SCF Done:  E(RB3LYP) =  -538.896456221     A.U. after   15 cycles
 SCF Done:  E(RB3LYP) =  -538.897567021     A.U. after   14 cycles
 SCF Done:  E(RB3LYP) =  -538.898403644     A.U. after   13 cycles
 SCF Done:  E(RB3LYP) =  -538.900028283     A.U. after   13 cycles
 SCF Done:  E(RB3LYP) =  -538.900822619     A.U. after   12 cycles
 SCF Done:  E(RB3LYP) =  -538.900802739     A.U. after   11 cycles
 SCF Done:  E(RB3LYP) =  -538.900882409     A.U. after   12 cycles
 SCF Done:  E(RB3LYP) =  -538.900925156     A.U. after   11 cycles
 SCF Done:  E(RB3LYP) =  -538.900937465     A.U. after   11 cycles
 SCF Done:  E(RB3LYP) =  -538.900941621     A.U. after    9 cycles
 SCF Done:  E(RB3LYP) =  -538.900942537     A.U. after    8 cycles
 SCF Done:  E(RB3LYP) =  -538.900942694     A.U. after    8 cycles
 SCF Done:  E(RB3LYP) =  -538.900942708     A.U. after    7 cycles
 Optimization completed.
    -- Stationary point found.

 1\1\GINC-NODE111\FOpt\RB3LYP\6-31G(d)\C8H14O3\VSC10255\08-Dec-2020\0\\
 # opt freq B3LYP/6-31G(d) empiricaldispersion=gd3bj scf=xqc\\CID_22446
 670_JID_1813_neutraal\\0,1\C,1.0149303794,0.0480230486,-0.0258386207\C
 ,0.2450328588,-0.4317857503,1.2141716117\C,0.6230454417,0.4431720459,2
 .4205540716\C,-1.2663561416,-0.3159688194,0.9545626133\C,0.6431420533,
 -1.8974587139,1.5582335486\C,0.2331732795,-2.927030654,0.5352992738\C,
 1.0266023601,-3.373599409,-0.4474664196\C,-1.1326149874,-3.4874410016,
 0.6991138966\O,-1.7816311503,-3.5011607817,1.7322813771\O,-1.631012628

 Normal termination of Gaussian 16 at Tue Dec  8 21:18:13 2020.

 --------------------------------------------------------------------
 #N Geom=AllCheck Guess=TCheck SCRF=Check GenChk RB3LYP/6-31G(d) Freq
 --------------------------------------------------------------------

 Structure from the checkpoint file:  "JID_1813.chk"
 ------------------------------
 CID_22446670_JID_1813_neutraal
 ------------------------------
 Charge =  0 Multiplicity = 1

 SCF Done:  E(RB3LYP) =  -538.900942708     A.U. after    1 cycles

  Exact polarizability: 108.081   3.451 102.638  -6.377   3.630  72.369
 Approx polarizability: 137.840   6.403 166.920 -11.809  15.401 110.338

                      1                      2                      3
                      A                      A                      A
 Frequencies --     39.5625                53.4752                91.0862
 Red. masses --      5.8546                 3.6121                 4.6755
 Frc consts  --      0.0054                 0.0061                 0.0229
 IR Inten    --      0.2164                 0.1141                 0.5305

                      4                      5                      6
                      A                      A                      A
 Frequencies --    146.9163               184.5615               213.2941
 Red. masses --      3.9547                 5.5417                 3.1774
 Frc consts  --      0.0503                 0.1112                 0.0852
 IR Inten    --      0.1680                 0.2948                 0.1726

                      7                      8                      9
                      A                      A                      A
 Frequencies --    241.8100               268.2964               292.2353
 Red. masses --      1.0950                 2.0605                 1.3375
 Frc consts  --      0.0377                 0.0874                 0.0673
 IR Inten    --      0.0859                 2.0012                 0.6621

                     10                     11                     12
                      A                      A                      A
 Frequencies --    296.1022               313.0382               376.1065
 Red. masses --      1.5881                 1.4029                 2.3028
 Frc consts  --      0.0820                 0.0810                 0.1919
 IR Inten    --      0.1108                 0.7823                 0.6213

                     13                     14                     15
                      A                      A                      A
 Frequencies --    385.3367               395.8916               409.0656
 Red. masses --      2.6044                 2.5042                 4.1614
 Frc consts  --      0.2278                 0.2312                 0.4103
 IR Inten    --      7.9599                10.7702                25.0618

                     16                     17                     18
                      A                      A                      A
 Frequencies --    429.7835               449.7695               523.5734
 Red. masses --      1.9353                 1.3888                 2.3355
 Frc consts  --      0.2106                 0.1655                 0.3772
 IR Inten    --      4.5851                46.5034                24.6896

                     19                     20                     21
                      A                      A                      A
 Frequencies --    527.3567               636.9896               681.8287
 Red. masses --      3.6091                 3.1913                 1.9936
 Frc consts  --      0.5914                 0.7629                 0.5461
 IR Inten    --      8.1413                 8.2992                 8.4620

                     22                     23                     24
                      A                      A                      A
 Frequencies --    775.1168               811.9551               902.2361
 Red. masses --      2.5577                 2.7371                 2.9652
 Frc consts  --      0.9054                 1.0632                 1.4222
 IR Inten    --      3.1315                21.9902                 3.4185

                     25                     26                     27
                      A                      A                      A
 Frequencies --    913.3775               932.7061               942.8744
 Red. masses --      2.3372                 3.4074                 3.8728
 Frc consts  --      1.1488                 1.7465                 2.0285
 IR Inten    --      7.4593                14.9092                 7.3254

                     28                     29                     30
                      A                      A                      A
 Frequencies --    955.3302               956.6024               976.0633
 Red. masses --      1.9013                 1.4807                 1.2225
 Frc consts  --      1.0224                 0.7983                 0.6862
 IR Inten    --      3.7782                 0.5502                 2.5597

                     31                     32                     33
                      A                      A                      A
 Frequencies --    978.4231               993.7346              1066.1341
 Red. masses --      1.3539                 2.0354                 1.4114
 Frc consts  --      0.7637                 1.1842                 0.9452
 IR Inten    --     25.9691                 2.1724                 1.6391

                     34                     35                     36
                      A                      A                      A
 Frequencies --   1070.7685              1154.4395              1214.5357
 Red. masses --      1.4680                 2.2130                 2.0089
 Frc consts  --      0.9916                 1.7377                 1.7459
 IR Inten    --      1.0050                59.5950               102.6577

                     37                     38                     39
                      A                      A                      A
 Frequencies --   1246.9546              1278.2659              1320.7096
 Red. masses --      2.2624                 2.6687                 2.3381
 Frc consts  --      2.0726                 2.5692                 2.4029
 IR Inten    --      3.2764                14.1399                23.1310

                     40                     41                     42
                      A                      A                      A
 Frequencies --   1355.1938              1383.0778              1428.9530
 Red. masses --      1.7247                 2.0158                 1.2461
 Frc consts  --      1.8662                 2.2719                 1.4991
 IR Inten    --     20.6159                16.3395                 7.2599

                     43                     44                     45
                      A                      A                      A
 Frequencies --   1431.2374              1460.2748              1466.9066
 Red. masses --      1.2419                 1.2234                 1.2020
 Frc consts  --      1.4989                 1.5370                 1.5239
 IR Inten    --      6.1735                 4.4261                 5.2489

                     46                     47                     48
                      A                      A                      A
 Frequencies --   1508.9487              1512.0273              1519.7154
 Red. masses --      1.0954                 1.0489                 1.0503
 Frc consts  --      1.4695                 1.4129                 1.4292
 IR Inten    --      2.2476                 0.9219                 2.8304

                     49                     50                     51
                      A                      A                      A
 Frequencies --   1520.8745              1528.3898              1537.4248
 Red. masses --      1.0482                 1.1744                 1.0580
 Frc consts  --      1.4285                 1.6163                 1.4734
 IR Inten    --      1.4459               184.0766                 7.7475

                     52                     53                     54
                      A                      A                      A
 Frequencies --   1540.7318              1551.2174              1706.0136
 Red. masses --      1.0587                 1.0570                 4.9189
 Frc consts  --      1.4808                 1.4985                 8.4349
 IR Inten    --      4.2026                12.6341                11.0300

                     55                     56                     57
                      A                      A                      A
 Frequencies --   1787.0322              3038.6650              3042.0177
 Red. masses --      8.6080                 1.0350                 1.0358
 Frc consts  --     16.1963                 5.6306                 5.6472
 IR Inten    --    151.4122                26.4457                28.3331

                     58                     59                     60
                      A                      A                      A
 Frequencies --   3049.1305              3060.6341              3104.0076
 Red. masses --      1.0380                 1.0590                 1.1019
 Frc consts  --      5.6860                 5.8450                 6.2550
 IR Inten    --     14.9300                16.8257                 3.1083

                     61                     62                     63
                      A                      A                      A
 Frequencies --   3105.8010              3107.9416              3111.9196
 Red. masses --      1.1024                 1.1023                 1.1015
 Frc consts  --      6.2654                 6.2735                 6.2850
 IR Inten    --      8.7507                15.6048                56.8090

                     64                     65                     66
                      A                      A                      A
 Frequencies --   3112.4247              3120.4900              3127.3198
 Red. masses --      1.1021                 1.1012                 1.1021
 Frc consts  --      6.2905                 6.3177                 6.3504
 IR Inten    --     31.0269                46.3146                28.3851

                     67                     68                     69
                      A                      A                      A
 Frequencies --   3180.5165              3268.9884              3422.1710
 Red. masses --      1.0606                 1.1166                 1.0655
 Frc consts  --      6.3211                 7.0303                 7.3524
 IR Inten    --      3.8470                 3.1130                56.4026

 - Thermochemistry -
 -------------------
 Temperature   298.150 Kelvin.  Pressure   1.00000 Atm.
 Atom     1 has atomic number  6 and mass  12.00000

 Molecular mass:   158.09429 amu.
 Principal axes and moments of inertia in atomic units:
                           1         2         3
     Eigenvalues --   932.919992770.546073077.24525
           X            0.99996  -0.00806   0.00440
           Y            0.00810   0.99993  -0.00822
           Z           -0.00434   0.00825   0.99996
 This molecule is an asymmetric top.
 Rotational symmetry number  1.
 Warning -- assumption of classical behavior for rotation
           may cause significant error
 Rotational temperatures (Kelvin)      0.09284     0.03126     0.02815
 Rotational constants (GHZ):           1.93451     0.65140     0.58648
 Zero-point vibrational energy     559471.6 (Joules/Mol)
                                  133.71693 (Kcal/Mol)
 Warning -- explicit consideration of  19 degrees of freedom as
           vibrations may cause significant error
 Vibrational temperatures:     56.92    76.94   131.05   211.38   265.54
          (Kelvin)            306.88   347.91   386.02   420.46   426.03
                              450.39   541.13   554.41   569.60   588.55
                              618.36   647.12   753.31   758.75   916.49
                              981.00  1115.22  1168.22  1298.12  1314.15
                             1341.96  1356.59  1374.51  1376.34  1404.34
                             1407.73  1429.76  1533.93  1540.60  1660.98
                             1747.45  1794.09  1839.14  1900.21  1949.82
                             1989.94  2055.94  2059.23  2101.01  2110.55
                             2171.04  2175.47  2186.53  2188.20  2199.01
                             2212.01  2216.77  2231.86  2454.57  2571.14
                             4371.96  4376.79  4387.02  4403.57  4465.97
                             4468.55  4471.63  4477.36  4478.08  4489.69
                             4499.52  4576.05  4703.35  4923.74

 Zero-point correction=                           0.213091 (Hartree/Particle)
 Thermal correction to Energy=                    0.225616
 Thermal correction to Enthalpy=                  0.226561
 Thermal correction to Gibbs Free Energy=         0.174622
 Sum of electronic and zero-point Energies=           -538.687851
 Sum of electronic and thermal Energies=              -538.675326
 Sum of electronic and thermal Enthalpies=            -538.674382
 Sum of electronic and thermal Free Energies=         -538.726321

                     E (Thermal)             CV                S
                      KCal/Mol        Cal/Mol-Kelvin    Cal/Mol-Kelvin
 Total                  141.576             46.889            109.315
 Electronic               0.000              0.000              0.000
 Translational            0.889              2.981             41.083
 Rotational               0.889              2.981             30.454
 Vibrational            139.799             40.928             37.777
 Vibration     1          0.594              1.981              5.281
 Vibration     2          0.596              1.976              4.685
 Vibration     3          0.602              1.956              3.637
 Vibration     4          0.617              1.906              2.712
 Vibration     5          0.631              1.861              2.282
 Vibration     6          0.644              1.821              2.015
 Vibration     7          0.658              1.776              1.790
 Vibration     8          0.673              1.731              1.607
 Vibration     9          0.688              1.688              1.461
 Vibration    10          0.690              1.681              1.439
 Vibration    11          0.701              1.649              1.346
 Vibration    12          0.747              1.521              1.055
 Vibration    13          0.754              1.501              1.018
 Vibration    14          0.763              1.479              0.978
 Vibration    15          0.773              1.451              0.930
 Vibration    16          0.791              1.405              0.859
 Vibration    17          0.809              1.361              0.796
 Vibration    18          0.879              1.198              0.602
 Vibration    19          0.882              1.189              0.593

 Optimization completed.
    -- Stationary point found.

 1\1\GINC-NODE111\Freq\RB3LYP\6-31G(d)\C8H14O3\VSC10255\08-Dec-2020\0\\
 #N Geom=AllCheck Guess=TCheck SCRF=Check GenChk RB3LYP/6-31G(d) Freq\\
 CID_22446670_JID_1813_neutraal\\0,1\C,1.0149303794,0.0480230486,-0.025
 8386207\C,0.2450328588,-0.4317857503,1.2141716117\C,0.6230454417,0.443
 1720459,2.4205540716\C,-1.2663561416,-0.3159688194,0.9545626133\C,0.64
 31420533,-1.8974587139,1.5582335486\C,0.2331732795,-2.927030654,0.5352
 992738\C,1.0266023601,-3.373599409,-0.4474664196\C,-1.1326149874,-3.48
 74410016,0.6991138966\O,-1.7816311503,-3.5011607817,1.7322813771\O,-1.

 Normal termination of Gaussian 16 at Tue Dec  8 21:24:44 2020.

 ----------------------------------------------------------------------
 # B3LYP/6-311++G(d,p) empiricaldispersion=gd3bj scf=xqc pop=npa geom=c
 heck
 ----------------------------------------------------------------------

 --------------------------------------
 CID_22446670_JID_1813_Energie_neutraal
 --------------------------------------
 Structure from the checkpoint file:  "JID_1813.chk"
 Charge =  0 Multiplicity = 1

 SCF Done:  E(RB3LYP) =  -539.065966977     A.U. after   15 cycles
 Normal termination of Gaussian 16 at Tue Dec  8 21:28:14 2020.

 ----------------------------------------------------------------------
 # B3LYP/6-311++G(d,p) empiricaldispersion=gd3bj scf=xqc pop=npa geom=c
 heck
 ----------------------------------------------------------------------

 ------------------------------------
 CID_22446670_JID_1813_Energie_kation
 ------------------------------------
 Structure from the checkpoint file:  "JID_1813.chk"
 Charge =  1 Multiplicity = 2

 SCF Done:  E(UB3LYP) =  -538.709753180     A.U. after   24 cycles
 Normal termination of Gaussian 16 at Tue Dec  8 21:35:19 2020.
 Gaussian 16:  ES64L-G16RevA.03 25-Dec-2016

 -----------------------------------
 CID_22446670_JID_1813_Energie_anion
 -----------------------------------
 Structure from the checkpoint file:  "JID_1813.chk"
 Charge = -1 Multiplicity = 2

                         Standard orientation:
 ---------------------------------------------------------------------
 Center     Atomic      Atomic             Coordinates (Angstroms)
 Number     Number       Type             X           Y           Z
 ---------------------------------------------------------------------
      1          6           0        2.356352    0.916881    1.037362
      2          6           0        1.877573   -0.225903    0.128847
      3          6           0        3.089106   -0.866362   -0.568150
      4          6           0        1.158402   -1.287507    0.977904
      5          6           0        0.940193    0.330464   -0.983286
      6          6           0       -0.370994    0.890428   -0.491641
      7          6           0       -0.588436    2.185958   -0.228765
      8          6           0       -1.476799   -0.091253   -0.351031
      9          8           0       -1.558204   -1.164957   -0.924945
     10          8           0       -2.436422    0.318229    0.517195
     11          8           0       -3.529144   -0.622939    0.557711
     12          1           0        3.035494    0.535443    1.808469
     13          1           0        1.516797    1.405012    1.543542
     14          1           0        2.896716    1.679800    0.463184
     15          1           0        3.803411   -1.249879    0.169534
     16          1           0        2.780363   -1.703441   -1.205245
     17          1           0        3.615249   -0.138426   -1.197596
     18          1           0        0.329953   -0.852113    1.548687
     19          1           0        0.753698   -2.091584    0.354746
     20          1           0        1.854082   -1.730266    1.699894
     21          1           0        1.477986    1.116561   -1.525702
     22          1           0        0.727617   -0.473288   -1.695875
     23          1           0       -1.548568    2.551449    0.118188
     24          1           0        0.201508    2.918068   -0.369037
     25          1           0       -3.166536   -1.326227   -0.039908
 ---------------------------------------------------------------------

 SCF Done:  E(UB3LYP) =  -539.071001886     A.U. after   33 cycles
 SCF Done:  E(UB3LYP) =  -539.071001886     a.u. after    1 cycles

 The electronic state is 2-A.
 Alpha  occ. eigenvalues --  -19.04957 -19.03509 -18.94069 -10.11041 -10.05810
 Alpha  occ. eigenvalues --  -10.04516 -10.03529 -10.03037 -10.02512 -10.00481
 Alpha  occ. eigenvalues --   -9.98358  -1.00779  -0.87651  -0.77768  -0.70188
 Alpha  occ. eigenvalues --   -0.62764  -0.56930  -0.56205  -0.53669  -0.47670
 Alpha  occ. eigenvalues --   -0.43354  -0.40423  -0.34500  -0.33408  -0.32932
 Alpha  occ. eigenvalues --   -0.32771  -0.31366  -0.30700  -0.28570  -0.27974
 Alpha  occ. eigenvalues --   -0.26287  -0.25356  -0.24541  -0.23837  -0.22541
 Alpha  occ. eigenvalues --   -0.22327  -0.21576  -0.20208  -0.19661  -0.18524
 Alpha  occ. eigenvalues --   -0.13313  -0.13015  -0.10746   0.05930
 Alpha virt. eigenvalues --    0.08048   0.10203   0.10283   0.10854   0.11833
 Alpha virt. eigenvalues --    0.12277   0.12712   0.13332   0.13433   0.14639
 Alpha virt. eigenvalues --    0.15798   0.16035   0.16293   0.16757   0.17062

  Beta  occ. eigenvalues --  -19.04842 -19.03488 -18.93725 -10.10681 -10.05796
  Beta  occ. eigenvalues --  -10.04509 -10.03523 -10.03030 -10.02516 -10.00347
  Beta  occ. eigenvalues --   -9.97847  -1.00557  -0.87052  -0.77551  -0.70130
  Beta  occ. eigenvalues --   -0.62205  -0.56909  -0.56184  -0.53280  -0.46892
  Beta  occ. eigenvalues --   -0.42876  -0.40250  -0.34319  -0.33126  -0.32756
  Beta  occ. eigenvalues --   -0.32403  -0.30669  -0.30482  -0.28487  -0.27885
  Beta  occ. eigenvalues --   -0.26164  -0.25161  -0.24514  -0.23644  -0.22302
  Beta  occ. eigenvalues --   -0.22082  -0.20910  -0.19673  -0.19434  -0.18314
  Beta  occ. eigenvalues --   -0.12732  -0.12355  -0.08447
  Beta virt. eigenvalues --    0.07986   0.10070   0.10195   0.10847   0.11621
  Beta virt. eigenvalues --    0.12086   0.12603   0.12871   0.13291   0.14097
  Beta virt. eigenvalues --    0.14746   0.15780   0.16100   0.16305   0.16836

 Mulliken charges and spin densities:
               1          2
     1  C   -0.676714  -0.047958
     2  C    0.624954   0.251024
     3  C   -0.379194  -0.187632
     4  C   -0.685261  -0.003510
     5  C   -0.280501  -0.605041
     6  C    1.072749   0.213541
     7  C   -0.664448   0.679032
     8  C   -1.084962   0.191370
     9  O   -0.382527   0.113331
    10  O    0.030890   0.017890
    11  O   -0.175710   0.002630
    12  H    0.096941   0.006495
    13  H    0.122800   0.053676
    14  H    0.119937   0.002135
    15  H    0.098786   0.009032
    16  H    0.113135   0.012752
    17  H    0.066204   0.055522
    18  H    0.171747   0.001225
    19  H    0.158629  -0.004512
    20  H    0.115431   0.002249
    21  H   -0.075698   0.223253
    22  H    0.196473   0.018961
    23  H    0.126678  -0.023819
    24  H    0.047501   0.013227
    25  H    0.242161   0.005126
 Sum of Mulliken charges =  -1.00000   1.00000

 Dipole moment (field-independent basis, Debye):
    X=              4.4137    Y=             -2.4088    Z=              1.3590  Tot=              5.2087
 Quadrupole moment (field-independent basis, Debye-Ang):
   XX=            -99.2278   YY=            -88.0407   ZZ=            -84.1883
   XY=              0.5135   XZ=              2.5361   YZ=              0.6552

 Summary of Natural Population Analysis:

                                       Natural Population
                Natural  -----------------------------------------------
    Atom  No    Charge         Core      Valence    Rydberg      Total
 -----------------------------------------------------------------------
      C    1   -0.28661      0.99963     2.28056    0.00642     3.28661
      C    2   -0.04410      0.99959     2.03717    0.00734     3.04410
      C    3   -0.28048      0.99963     2.27523    0.00562     3.28048
      C    4   -0.28646      0.99963     2.28113    0.00571     3.28646
      C    5   -0.19670      0.99957     2.18454    0.01259     3.19670
      C    6   -0.06797      0.99946     2.05511    0.01340     3.06797
      C    7   -0.05993      0.99953     2.05130    0.00910     3.05993
      C    8    0.42712      0.99962     1.54667    0.02659     2.57288
      O    9   -0.31555      0.99987     3.30983    0.00586     4.31555
      O   10   -0.13610      0.99985     3.12670    0.00955     4.13610
      O   11   -0.23667      0.99991     3.23033    0.00643     4.23667
      H   12    0.08927      0.00000     0.40996    0.00077     0.41073
      H   13    0.11118      0.00000     0.38802    0.00080     0.38882
      H   14    0.09434      0.00000     0.40495    0.00070     0.40566
      H   15    0.09109      0.00000     0.40802    0.00089     0.40891
      H   16    0.09742      0.00000     0.40166    0.00092     0.40258
      H   17    0.09572      0.00000     0.40323    0.00105     0.40428
      H   18    0.10747      0.00000     0.39171    0.00083     0.39253
      H   19    0.10554      0.00000     0.39372    0.00075     0.39446
      H   20    0.08780      0.00000     0.41137    0.00083     0.41220
      H   21    0.09652      0.00000     0.40190    0.00158     0.40348
      H   22    0.10780      0.00000     0.39110    0.00110     0.39220
      H   23    0.08946      0.00000     0.40969    0.00085     0.41054
      H   24    0.07685      0.00000     0.42215    0.00100     0.42315
      H   25    0.23300      0.00000     0.26354    0.00346     0.26700
 =======================================================================
   * Total *    0.00000     10.99628    31.87958    0.12413    43.00000

 Normal termination of Gaussian 16 at Tue Dec  8 21:44:49 2020.
