 Gaussian 16, Revision A.03,

 -----------------------------------------------------------
 # opt freq B3LYP/6-31G(d) empiricaldispersion=gd3bj scf=xqc
 -----------------------------------------------------------

 -------------------------------
 CID_126954225_JID_2105_neutraal
 -------------------------------
 Symbolic Z-matrix:
 Charge =  0 Multiplicity = 1

 SCF Done:  E(RB3LYP) =  -534.905411497     A.U. after   14 cycles
 SCF Done:  E(RB3LYP) =  -534.911220336     A.U. after   12 cycles
 SCF Done:  E(RB3LYP) =  -534.913249770     A.U. after   14 cycles
 SCF Done:  E(RB3LYP) =  -534.913883152     A.U. after   12 cycles
 SCF Done:  E(RB3LYP) =  -534.914180712     A.U. after   12 cycles
 SCF Done:  E(RB3LYP) =  -534.914262507     A.U. after   10 cycles
 SCF Done:  E(RB3LYP) =  -534.914300376     A.U. after   11 cycles
 SCF Done:  E(RB3LYP) =  -534.914303930     A.U. after    9 cycles
 SCF Done:  E(RB3LYP) =  -534.914304507     A.U. after    8 cycles
 SCF Done:  E(RB3LYP) =  -534.914304606     A.U. after    7 cycles
 SCF Done:  E(RB3LYP) =  -534.914304647     A.U. after    6 cycles
 SCF Done:  E(RB3LYP) =  -534.914304671     A.U. after    7 cycles
 SCF Done:  E(RB3LYP) =  -534.914304679     A.U. after    6 cycles
 Optimization completed.
    -- Stationary point found.
 Normal termination of Gaussian 16 at Wed Dec  9 16:48:28 2020.

 --------------------------------------------------------------------
 #N Geom=AllCheck Guess=TCheck SCRF=Check GenChk RB3LYP/6-31G(d) Freq
 --------------------------------------------------------------------

 Structure from the checkpoint file:  "JID_2105.chk"
 -------------------------------
 CID_126954225_JID_2105_neutraal
 -------------------------------
 Charge =  0 Multiplicity = 1

 SCF Done:  E(RB3LYP) =  -534.914304679     A.U. after    1 cycles

  Exact polarizability: 140.723   8.228 113.535  -4.480  -1.175  65.790
 Approx polarizability: 192.860  12.327 182.441  -9.221  -3.088  99.480

                      1                      2                      3
                      A                      A                      A
 Frequencies --     38.6890                50.0155               101.3096
 Red. masses --      3.6281                 3.2372                 3.0347
 Frc consts  --      0.0032                 0.0048                 0.0184
 IR Inten    --      0.0150                 0.0860                 0.3377

                      4                      5                      6
                      A                      A                      A
 Frequencies --    123.4933               138.9498               162.8418
 Red. masses --      1.9721                 1.3973                 4.0092
 Frc consts  --      0.0177                 0.0159                 0.0626
 IR Inten    --      0.0553                 0.6369                 2.9563

                      7                      8                      9
                      A                      A                      A
 Frequencies --    234.2984               262.3016               306.0911
 Red. masses --      2.8783                 3.4790                 3.8981
 Frc consts  --      0.0931                 0.1410                 0.2152
 IR Inten    --      2.5560                 0.4477                 1.5481

                     10                     11                     12
                      A                      A                      A
 Frequencies --    373.5946               408.0322               473.7853
 Red. masses --      2.6336                 2.4233                 6.3599
 Frc consts  --      0.2166                 0.2377                 0.8411
 IR Inten    --      0.9537                 1.9771                10.4674

                     13                     14                     15
                      A                      A                      A
 Frequencies --    531.2461               573.5374               579.1543
 Red. masses --      4.0071                 5.4109                 3.8292
 Frc consts  --      0.6663                 1.0487                 0.7567
 IR Inten    --      2.2164                 2.4316                 3.8724

                     16                     17                     18
                      A                      A                      A
 Frequencies --    623.4149               781.0779               782.2855
 Red. masses --      9.0294                 1.5268                 5.2816
 Frc consts  --      2.0676                 0.5488                 1.9044
 IR Inten    --     11.4698                 1.0042                 1.1403

                     19                     20                     21
                      A                      A                      A
 Frequencies --    795.9944               830.7848               856.2235
 Red. masses --      2.0400                 1.3633                 2.4724
 Frc consts  --      0.7616                 0.5544                 1.0679
 IR Inten    --      1.7607                 2.9694                 3.4641

                     22                     23                     24
                      A                      A                      A
 Frequencies --    862.3363               904.7010               936.3782
 Red. masses --      1.2657                 5.7513                 1.5137
 Frc consts  --      0.5545                 2.7735                 0.7820
 IR Inten    --     15.5024                 7.7169                 4.4305

                     25                     26                     27
                      A                      A                      A
 Frequencies --    958.7315               965.3192              1005.3304
 Red. masses --      1.3766                 2.5581                 1.7028
 Frc consts  --      0.7455                 1.4044                 1.0140
 IR Inten    --      0.2139                 5.9863                20.4258

                     28                     29                     30
                      A                      A                      A
 Frequencies --   1030.8911              1042.1728              1068.9032
 Red. masses --      5.7317                 2.2071                 1.5282
 Frc consts  --      3.5889                 1.4124                 1.0287
 IR Inten    --    127.9358                14.6632                 1.8094

                     31                     32                     33
                      A                      A                      A
 Frequencies --   1070.1777              1086.1249              1116.9072
 Red. masses --      1.4138                 1.3742                 2.3828
 Frc consts  --      0.9540                 0.9551                 1.7513
 IR Inten    --      5.7200                 1.9157                 0.2116

                     34                     35                     36
                      A                      A                      A
 Frequencies --   1143.3630              1206.3067              1210.3349
 Red. masses --      1.1338                 1.9514                 1.4637
 Frc consts  --      0.8732                 1.6730                 1.2633
 IR Inten    --      0.8549                55.7440                 5.3992

                     37                     38                     39
                      A                      A                      A
 Frequencies --   1211.2227              1238.2461              1256.2845
 Red. masses --      2.3213                 1.7368                 3.1576
 Frc consts  --      2.0064                 1.5690                 2.9362
 IR Inten    --     74.4083                 1.1512                39.9239

                     40                     41                     42
                      A                      A                      A
 Frequencies --   1292.3623              1312.7084              1356.8940
 Red. masses --      1.2136                 2.5220                 2.7709
 Frc consts  --      1.1942                 2.5605                 3.0058
 IR Inten    --      1.5774                23.2013               115.8093

                     43                     44                     45
                      A                      A                      A
 Frequencies --   1375.7461              1435.0783              1439.5935
 Red. masses --      1.3691                 1.3021                 2.1871
 Frc consts  --      1.5268                 1.5799                 2.6705
 IR Inten    --     99.8929                 6.2654               211.2795

                     46                     47                     48
                      A                      A                      A
 Frequencies --   1483.9522              1493.4165              1497.3554
 Red. masses --      2.4529                 1.5860                 1.0886
 Frc consts  --      3.1825                 2.0841                 1.4380
 IR Inten    --    118.3732                11.1922                 1.2544

                     49                     50                     51
                      A                      A                      A
 Frequencies --   1505.1978              1515.2393              1529.4129
 Red. masses --      1.0449                 1.4543                 1.1667
 Frc consts  --      1.3948                 1.9673                 1.6079
 IR Inten    --      7.2228                 8.1688                 0.8748

                     52                     53                     54
                      A                      A                      A
 Frequencies --   1542.1216              1608.9216              1629.1396
 Red. masses --      1.3451                 8.3965                 5.3995
 Frc consts  --      1.8847                12.8061                 8.4434
 IR Inten    --      0.9897                63.3228                11.7890

                     55                     56                     57
                      A                      A                      A
 Frequencies --   3054.5602              3057.9338              3100.2621
 Red. masses --      1.0376                 1.0575                 1.1077
 Frc consts  --      5.7040                 5.8262                 6.2730
 IR Inten    --     14.2046                18.0099                21.5444

                     58                     59                     60
                      A                      A                      A
 Frequencies --   3105.7755              3148.3128              3152.6517
 Red. masses --      1.0999                 1.0514                 1.0585
 Frc consts  --      6.2508                 6.1398                 6.1988
 IR Inten    --     12.8940                20.0907                11.8702

                     61                     62                     63
                      A                      A                      A
 Frequencies --   3161.9477              3167.1541              3181.4715
 Red. masses --      1.1019                 1.0904                 1.0874
 Frc consts  --      6.4906                 6.4441                 6.4849
 IR Inten    --     10.2053                12.0991                 6.4584

                     64                     65                     66
                      A                      A                      A
 Frequencies --   3202.6298              3223.2543              3237.1286
 Red. masses --      1.0970                 1.1193                 1.1158
 Frc consts  --      6.6293                 6.8514                 6.8891
 IR Inten    --     49.7787                 0.4864                23.9455

 - Thermochemistry -
 -------------------
 Temperature   298.150 Kelvin.  Pressure   1.00000 Atm.
 Atom     1 has atomic number  6 and mass  12.00000

 Molecular mass:   164.09496 amu.
 Principal axes and moments of inertia in atomic units:
                           1         2         3
     Eigenvalues --   820.571663663.646644326.47461
           X            1.00000  -0.00282   0.00139
           Y            0.00282   0.99999  -0.00241
           Z           -0.00139   0.00242   1.00000
 This molecule is an asymmetric top.
 Rotational symmetry number  1.
 Warning -- assumption of classical behavior for rotation
           may cause significant error
 Rotational temperatures (Kelvin)      0.10555     0.02364     0.02002
 Rotational constants (GHZ):           2.19937     0.49261     0.41714
 Zero-point vibrational energy     527260.5 (Joules/Mol)
                                  126.01829 (Kcal/Mol)
 Warning -- explicit consideration of  15 degrees of freedom as
           vibrations may cause significant error
 Vibrational temperatures:     55.66    71.96   145.76   177.68   199.92
          (Kelvin)            234.29   337.10   377.39   440.40   537.52
                              587.07   681.67   764.34   825.19   833.27
                              896.95  1123.80  1125.53  1145.26  1195.31
                             1231.91  1240.71  1301.66  1347.24  1379.40
                             1388.88  1446.45  1483.22  1499.45  1537.91
                             1539.75  1562.69  1606.98  1645.04  1735.61
                             1741.40  1742.68  1781.56  1807.51  1859.42
                             1888.69  1952.27  1979.39  2064.76  2071.25
                             2135.08  2148.69  2154.36  2165.64  2180.09
                             2200.48  2218.77  2314.88  2343.97  4394.83
                             4399.68  4460.59  4468.52  4529.72  4535.96
                             4549.34  4556.83  4577.43  4607.87  4637.54
                             4657.51

 Zero-point correction=                           0.200823 (Hartree/Particle)
 Thermal correction to Energy=                    0.212048
 Thermal correction to Enthalpy=                  0.212992
 Thermal correction to Gibbs Free Energy=         0.162490
 Sum of electronic and zero-point Energies=           -534.713482
 Sum of electronic and thermal Energies=              -534.702257
 Sum of electronic and thermal Enthalpies=            -534.701313
 Sum of electronic and thermal Free Energies=         -534.751815

                     E (Thermal)             CV                S
                      KCal/Mol        Cal/Mol-Kelvin    Cal/Mol-Kelvin
 Total                  133.062             41.673            106.290
 Electronic               0.000              0.000              0.000
 Translational            0.889              2.981             41.194
 Rotational               0.889              2.981             30.943
 Vibrational            131.285             35.712             34.153
 Vibration     1          0.594              1.981              5.325
 Vibration     2          0.595              1.978              4.817
 Vibration     3          0.604              1.948              3.429
 Vibration     4          0.610              1.929              3.045
 Vibration     5          0.615              1.914              2.818
 Vibration     6          0.623              1.888              2.517
 Vibration     7          0.654              1.788              1.846
 Vibration     8          0.670              1.742              1.646
 Vibration     9          0.696              1.662              1.383
 Vibration    10          0.745              1.526              1.065
 Vibration    11          0.773              1.453              0.934
 Vibration    12          0.831              1.308              0.727
 Vibration    13          0.886              1.181              0.584
 Vibration    14          0.930              1.088              0.497
 Vibration    15          0.936              1.076              0.487

                           ! Non-Optimized Parameters !
 Normal termination of Gaussian 16 at Wed Dec  9 16:52:54 2020.

 ----------------------------------------------------------------------
 # B3LYP/6-311++G(d,p) empiricaldispersion=gd3bj scf=xqc pop=npa geom=c
 heck
 ----------------------------------------------------------------------

 ---------------------------------------
 CID_126954225_JID_2105_Energie_neutraal
 ---------------------------------------
 Structure from the checkpoint file:  "JID_2105.chk"
 Charge =  0 Multiplicity = 1

 SCF Done:  E(RB3LYP) =  -535.058620337     A.U. after   14 cycles
 Normal termination of Gaussian 16 at Wed Dec  9 16:54:26 2020.

 ----------------------------------------------------------------------
 # B3LYP/6-311++G(d,p) empiricaldispersion=gd3bj scf=xqc pop=npa geom=c
 heck
 ----------------------------------------------------------------------

 -------------------------------------
 CID_126954225_JID_2105_Energie_kation
 -------------------------------------
 Structure from the checkpoint file:  "JID_2105.chk"
 Charge =  1 Multiplicity = 2

 SCF Done:  E(UB3LYP) =  -534.743338072     A.U. after   24 cycles
 Normal termination of Gaussian 16 at Wed Dec  9 16:58:02 2020.
 Gaussian 16:  ES64L-G16RevA.03 25-Dec-2016

 ----------------------------------------------------------------------
 # B3LYP/6-311++G(d,p) empiricaldispersion=gd3bj scf=xqc pop=npa geom=c
 heck
 ----------------------------------------------------------------------

 ------------------------------------
 CID_126954225_JID_2105_Energie_anion
 ------------------------------------
 Structure from the checkpoint file:  "JID_2105.chk"
 Charge = -1 Multiplicity = 2

                         Standard orientation:
 ---------------------------------------------------------------------
 Center     Atomic      Atomic             Coordinates (Angstroms)
 Number     Number       Type             X           Y           Z
 ---------------------------------------------------------------------
      1          6           0       -1.434009    2.367890   -0.089523
      2          6           0       -1.785856    0.910981   -0.014658
      3          7           0       -3.055847    0.550562    0.127786
      4          6           0       -3.331545   -0.766997    0.191479
      5          6           0       -2.332611   -1.722289    0.113029
      6          7           0       -1.037963   -1.383511   -0.030851
      7          6           0       -0.776391   -0.087689   -0.093547
      8          8           0        0.490920    0.347073   -0.234884
      9          6           0        1.525290   -0.654183   -0.328833
     10          6           0        2.835957    0.059830   -0.473467
     11          6           0        3.521908    0.607485    0.752185
     12          6           0        4.086071   -0.603374    0.053570
     13          1           0       -0.931474    2.601793   -1.035485
     14          1           0       -2.343588    2.965539   -0.003921
     15          1           0       -0.737650    2.644663    0.710685
     16          1           0       -4.375234   -1.046707    0.307666
     17          1           0       -2.556560   -2.785272    0.165172
     18          1           0        1.506075   -1.277330    0.572640
     19          1           0        1.312402   -1.306530   -1.182843
     20          1           0        2.936009    0.637840   -1.389435
     21          1           0        4.052133    1.550833    0.662931
     22          1           0        3.030033    0.461979    1.710300
     23          1           0        3.982978   -1.569155    0.541656
     24          1           0        5.001308   -0.493516   -0.520248
 ---------------------------------------------------------------------

 SCF Done:  E(UB3LYP) =  -535.048212327     A.U. after   33 cycles
 SCF Done:  E(UB3LYP) =  -535.048212327     a.u. after    1 cycles

 The electronic state is 2-A.
 Alpha  occ. eigenvalues --  -19.03254 -14.16719 -14.16472 -10.12647 -10.11012
 Alpha  occ. eigenvalues --  -10.07150 -10.06916 -10.06832 -10.06709 -10.06634
 Alpha  occ. eigenvalues --  -10.06568 -10.04479  -0.95648  -0.83134  -0.76371
 Alpha  occ. eigenvalues --   -0.75603  -0.65800  -0.60654  -0.58173  -0.50717
 Alpha  occ. eigenvalues --   -0.49779  -0.49305  -0.46325  -0.41155  -0.40186
 Alpha  occ. eigenvalues --   -0.38841  -0.35808  -0.35315  -0.34476  -0.31039
 Alpha  occ. eigenvalues --   -0.30735  -0.27770  -0.27223  -0.26952  -0.26212
 Alpha  occ. eigenvalues --   -0.25661  -0.22840  -0.22165  -0.19477  -0.18687
 Alpha  occ. eigenvalues --   -0.18152  -0.16617  -0.11493  -0.10877   0.05240
 Alpha virt. eigenvalues --    0.06714   0.08626   0.08651   0.09021   0.09792
 Alpha virt. eigenvalues --    0.10331   0.11485   0.11761   0.12082   0.12735
 Alpha virt. eigenvalues --    0.13264   0.13901   0.14328   0.15576   0.16428

  Beta  occ. eigenvalues --  -19.03252 -14.16345 -14.16047 -10.12659 -10.11009
  Beta  occ. eigenvalues --  -10.07139 -10.06740 -10.06736 -10.06678 -10.06674
  Beta  occ. eigenvalues --  -10.06552 -10.04494  -0.95613  -0.82620  -0.75877
  Beta  occ. eigenvalues --   -0.75368  -0.65567  -0.60597  -0.57941  -0.50466
  Beta  occ. eigenvalues --   -0.49589  -0.49199  -0.46209  -0.41024  -0.40059
  Beta  occ. eigenvalues --   -0.38726  -0.35745  -0.35172  -0.34270  -0.30896
  Beta  occ. eigenvalues --   -0.30328  -0.27716  -0.27116  -0.26445  -0.26156
  Beta  occ. eigenvalues --   -0.25525  -0.22727  -0.21713  -0.19443  -0.18570
  Beta  occ. eigenvalues --   -0.16409  -0.16092  -0.11049  -0.10086
  Beta virt. eigenvalues --    0.07833   0.08673   0.08852   0.09348   0.10018
  Beta virt. eigenvalues --    0.10422   0.10510   0.11575   0.12015   0.12389
  Beta virt. eigenvalues --    0.12827   0.13240   0.13700   0.14423   0.15552

 Mulliken charges and spin densities:
               1          2
     1  C   -0.687666  -0.069334
     2  C   -0.587049   0.241853
     3  N   -0.088294   0.192243
     4  C    0.065259  -0.092441
     5  C   -0.301467   0.188401
     6  N   -0.126552   0.158748
     7  C    0.432522  -0.104782
     8  O   -0.066876   0.004454
     9  C    0.869297  -1.338621
    10  C   -1.606808   1.900176
    11  C    0.229435  -0.602313
    12  C    1.224147  -1.665445
    13  H    0.073740   0.076683
    14  H    0.144970  -0.005747
    15  H    0.140439   0.003841
    16  H    0.140287   0.001484
    17  H    0.099031   0.016398
    18  H    0.174277   0.020210
    19  H    0.179830  -0.008750
    20  H   -0.355608   0.575504
    21  H   -0.122822   0.262370
    22  H   -0.027343   0.163944
    23  H   -0.042107   0.159743
    24  H   -0.760642   0.921383
 Sum of Mulliken charges =  -1.00000   1.00000

 Dipole moment (field-independent basis, Debye):
    X=             -4.6305    Y=             -0.9461    Z=              1.1505  Tot=              4.8642
 Quadrupole moment (field-independent basis, Debye-Ang):
   XX=           -160.2444   YY=            -92.1637   ZZ=            -88.2731
   XY=             -0.1755   XZ=              6.7216   YZ=              0.9938

 Summary of Natural Population Analysis:

                                       Natural Population
                Natural  -----------------------------------------------
    Atom  No    Charge         Core      Valence    Rydberg      Total
 -----------------------------------------------------------------------
      C    1   -0.30000      0.99965     2.29494    0.00541     3.30000
      C    2    0.09896      0.99954     1.88768    0.01381     2.90104
      N    3   -0.17614      0.99968     2.66344    0.01301     3.67614
      C    4   -0.03194      0.99959     2.01831    0.01404     3.03194
      C    5    0.01523      0.99960     1.97139    0.01378     2.98477
      N    6   -0.21343      0.99966     2.70368    0.01009     3.71343
      C    7    0.25319      0.99943     1.73266    0.01472     2.74681
      O    8   -0.27899      0.99985     3.27087    0.00827     4.27899
      C    9   -0.01530      0.99953     2.00120    0.01457     3.01530
      C   10   -0.12532      0.99959     2.11328    0.01245     3.12532
      C   11   -0.19603      0.99962     2.18746    0.00895     3.19603
      C   12   -0.19703      0.99962     2.18726    0.01015     3.19703
      H   13    0.10284      0.00000     0.39548    0.00168     0.39716
      H   14    0.10124      0.00000     0.39688    0.00188     0.39876
      H   15    0.10245      0.00000     0.39607    0.00148     0.39755
      H   16    0.08273      0.00000     0.41571    0.00156     0.41727
      H   17    0.08148      0.00000     0.41705    0.00147     0.41852
      H   18    0.08920      0.00000     0.40886    0.00194     0.41080
      H   19    0.09220      0.00000     0.40619    0.00160     0.40780
      H   20    0.10554      0.00000     0.39285    0.00161     0.39446
      H   21    0.10389      0.00000     0.39480    0.00131     0.39611
      H   22    0.09980      0.00000     0.39927    0.00093     0.40020
      H   23    0.09863      0.00000     0.40047    0.00090     0.40137
      H   24    0.10678      0.00000     0.38949    0.00373     0.39322
 =======================================================================
   * Total *    0.00000     11.99536    31.84530    0.15934    44.00000

 Normal termination of Gaussian 16 at Wed Dec  9 17:03:16 2020.
