 Gaussian 16, Revision A.03,

 -----------------------------------------------------------
 # opt freq B3LYP/6-31G(d) empiricaldispersion=gd3bj scf=xqc
 -----------------------------------------------------------

 -------------------------------
 CID_107413188_JID_6652_neutraal
 -------------------------------
 Symbolic Z-matrix:
 Charge =  0 Multiplicity = 1

 SCF Done:  E(RB3LYP) =  -694.638559469     A.U. after   14 cycles
 SCF Done:  E(RB3LYP) =  -694.644262930     A.U. after   12 cycles
 SCF Done:  E(RB3LYP) =  -694.643953228     A.U. after   12 cycles
 SCF Done:  E(RB3LYP) =  -694.641463500     A.U. after   12 cycles
 SCF Done:  E(RB3LYP) =  -694.641331646     A.U. after   11 cycles
 SCF Done:  E(RB3LYP) =  -694.644501931     A.U. after    8 cycles
 SCF Done:  E(RB3LYP) =  -694.644855500     A.U. after   11 cycles
 SCF Done:  E(RB3LYP) =  -694.644974999     A.U. after   10 cycles
 SCF Done:  E(RB3LYP) =  -694.645047879     A.U. after   10 cycles
 SCF Done:  E(RB3LYP) =  -694.645100919     A.U. after   10 cycles
 SCF Done:  E(RB3LYP) =  -694.647239082     A.U. after    8 cycles
 SCF Done:  E(RB3LYP) =  -694.647239154     A.U. after    9 cycles
 SCF Done:  E(RB3LYP) =  -694.647239360     A.U. after    8 cycles
 SCF Done:  E(RB3LYP) =  -694.647239350     A.U. after    7 cycles
 SCF Done:  E(RB3LYP) =  -694.647239371     A.U. after    7 cycles
 Optimization completed.
    -- Stationary point found.
 Normal termination of Gaussian 16 at Fri Dec 11 01:11:53 2020.

 --------------------------------------------------------------------
 #N Geom=AllCheck Guess=TCheck SCRF=Check GenChk RB3LYP/6-31G(d) Freq
 --------------------------------------------------------------------

 Structure from the checkpoint file:  "JID_6652.chk"
 -------------------------------
 CID_107413188_JID_6652_neutraal
 -------------------------------
 Charge =  0 Multiplicity = 1

 SCF Done:  E(RB3LYP) =  -694.647239371     A.U. after    1 cycles

  Exact polarizability: 182.835   2.507 134.541   3.938   1.450 125.094
 Approx polarizability: 210.529   9.508 207.700  10.979   4.591 195.139

                      1                      2                      3
                      A                      A                      A
 Frequencies --     17.6218                45.0880                48.7949
 Red. masses --      3.0158                 4.0368                 3.6064
 Frc consts  --      0.0006                 0.0048                 0.0051
 IR Inten    --      0.0979                 0.3558                 0.2896

                      4                      5                      6
                      A                      A                      A
 Frequencies --     53.0116                73.5132                93.8148
 Red. masses --      3.4393                 3.0591                 2.1152
 Frc consts  --      0.0057                 0.0097                 0.0110
 IR Inten    --      0.0396                 0.6363                 0.2329

                      7                      8                      9
                      A                      A                      A
 Frequencies --    137.8636               166.4160               190.6861
 Red. masses --      3.5435                 3.1730                 2.1542
 Frc consts  --      0.0397                 0.0518                 0.0461
 IR Inten    --      1.3105                 0.2507                 1.0360

                     10                     11                     12
                      A                      A                      A
 Frequencies --    229.4489               241.7730               261.5878
 Red. masses --      1.4375                 1.0557                 2.9343
 Frc consts  --      0.0446                 0.0364                 0.1183
 IR Inten    --     15.2652                 0.0337                 1.5375

                     13                     14                     15
                      A                      A                      A
 Frequencies --    265.1719               286.7466               320.8812
 Red. masses --      1.8290                 2.4885                 2.5372
 Frc consts  --      0.0758                 0.1206                 0.1539
 IR Inten    --      9.3985                 1.4052                 0.6169

                     16                     17                     18
                      A                      A                      A
 Frequencies --    364.0631               368.4347               397.1491
 Red. masses --      3.2293                 3.1939                 2.3685
 Frc consts  --      0.2522                 0.2554                 0.2201
 IR Inten    --      2.8124                 9.6488                 4.2250

                     19                     20                     21
                      A                      A                      A
 Frequencies --    423.8674               430.9613               517.1416
 Red. masses --      2.7820                 1.6844                 3.6043
 Frc consts  --      0.2945                 0.1843                 0.5679
 IR Inten    --      1.6155                 0.1426                 3.8341

                     22                     23                     24
                      A                      A                      A
 Frequencies --    545.0208               552.3040               575.1805
 Red. masses --      2.9633                 3.2061                 2.5844
 Frc consts  --      0.5186                 0.5762                 0.5037
 IR Inten    --      0.4972                16.7000                14.7800

                     25                     26                     27
                      A                      A                      A
 Frequencies --    617.0811               642.3513               677.3548
 Red. masses --      2.2331                 1.8719                 2.0599
 Frc consts  --      0.5010                 0.4551                 0.5568
 IR Inten    --      3.4527                32.9835                41.2159

                     28                     29                     30
                      A                      A                      A
 Frequencies --    692.6241               763.6271               802.7835
 Red. masses --      3.4957                 2.4312                 1.6376
 Frc consts  --      0.9881                 0.8353                 0.6218
 IR Inten    --     15.0595                21.3996                 1.2478

                     31                     32                     33
                      A                      A                      A
 Frequencies --    825.9130               831.5912               833.3657
 Red. masses --      1.8817                 2.0385                 2.2241
 Frc consts  --      0.7562                 0.8306                 0.9101
 IR Inten    --      1.7480                 1.2101                 2.1530

                     34                     35                     36
                      A                      A                      A
 Frequencies --    864.5597               872.3209               891.4965
 Red. masses --      1.5164                 1.9649                 2.1501
 Frc consts  --      0.6678                 0.8809                 1.0068
 IR Inten    --    148.8152                 8.4041                15.2976

                     37                     38                     39
                      A                      A                      A
 Frequencies --    898.6317               925.4440               931.2002
 Red. masses --      2.0180                 2.3353                 1.7509
 Frc consts  --      0.9601                 1.1784                 0.8946
 IR Inten    --      2.9733                 8.3829                 2.4568

                     40                     41                     42
                      A                      A                      A
 Frequencies --    949.9535               965.5337               979.3974
 Red. masses --      1.7139                 2.1378                 1.7342
 Frc consts  --      0.9112                 1.1742                 0.9801
 IR Inten    --      0.7924                 2.6209                 0.1715

                     43                     44                     45
                      A                      A                      A
 Frequencies --   1000.1447              1010.6039              1040.5069
 Red. masses --      1.5448                 1.5836                 1.8021
 Frc consts  --      0.9104                 0.9529                 1.1495
 IR Inten    --     16.2971                 6.3822                 3.2176

                     46                     47                     48
                      A                      A                      A
 Frequencies --   1044.9591              1066.3406              1069.6307
 Red. masses --      1.7144                 2.4308                 1.8154
 Frc consts  --      1.1029                 1.6285                 1.2238
 IR Inten    --      1.9762                 0.3025                 0.5503

                     49                     50                     51
                      A                      A                      A
 Frequencies --   1079.5332              1098.5052              1115.2234
 Red. masses --      1.6494                 1.9291                 2.1661
 Frc consts  --      1.1325                 1.3716                 1.5872
 IR Inten    --     10.0604                 5.6679                 3.5611

                     52                     53                     54
                      A                      A                      A
 Frequencies --   1153.7341              1155.8215              1175.9046
 Red. masses --      2.4144                 2.3990                 2.2956
 Frc consts  --      1.8935                 1.8882                 1.8702
 IR Inten    --     15.9920                 9.1034                 4.1055

                     55                     56                     57
                      A                      A                      A
 Frequencies --   1206.5169              1223.5803              1236.9975
 Red. masses --      1.7044                 1.3552                 1.5499
 Frc consts  --      1.4618                 1.1954                 1.3973
 IR Inten    --      4.2352                 2.9480                 6.1678

                     58                     59                     60
                      A                      A                      A
 Frequencies --   1238.5178              1256.3661              1267.1350
 Red. masses --      1.5513                 1.6172                 1.3153
 Frc consts  --      1.4020                 1.5040                 1.2443
 IR Inten    --      2.4530                97.1835                 8.6241

                     61                     62                     63
                      A                      A                      A
 Frequencies --   1278.3242              1288.1172              1314.4654
 Red. masses --      1.4039                 1.2969                 1.4449
 Frc consts  --      1.3517                 1.2678                 1.4709
 IR Inten    --     14.5663                 0.1196                 9.6983

                     64                     65                     66
                      A                      A                      A
 Frequencies --   1316.5236              1322.3306              1330.1165
 Red. masses --      1.2762                 1.3082                 1.4276
 Frc consts  --      1.3033                 1.3478                 1.4881
 IR Inten    --      3.8117                 0.6221                 4.7882

                     67                     68                     69
                      A                      A                      A
 Frequencies --   1337.9332              1345.0597              1363.7902
 Red. masses --      1.3350                 1.2892                 1.3398
 Frc consts  --      1.4080                 1.3742                 1.4682
 IR Inten    --     16.5344                 1.9374                 1.6270

                     70                     71                     72
                      A                      A                      A
 Frequencies --   1368.5916              1370.1333              1373.3780
 Red. masses --      1.3330                 1.5049                 1.6211
 Frc consts  --      1.4711                 1.6645                 1.8015
 IR Inten    --     16.4771                 0.2077                30.6509

                     73                     74                     75
                      A                      A                      A
 Frequencies --   1383.5711              1390.6965              1410.5146
 Red. masses --      1.6721                 1.5133                 1.5741
 Frc consts  --      1.8859                 1.7244                 1.8451
 IR Inten    --     67.6527                14.9253                 0.8894

                     76                     77                     78
                      A                      A                      A
 Frequencies --   1422.1777              1441.0168              1501.9385
 Red. masses --      1.4928                 1.2611                 1.4860
 Frc consts  --      1.7789                 1.5429                 1.9751
 IR Inten    --     15.4557                 1.7230                43.1421

                     79                     80                     81
                      A                      A                      A
 Frequencies --   1506.4275              1516.4211              1520.6130
 Red. masses --      1.1059                 1.1152                 1.0867
 Frc consts  --      1.4787                 1.5109                 1.4805
 IR Inten    --      1.4086                 3.1167                 3.3255

                     82                     83                     84
                      A                      A                      A
 Frequencies --   1520.7793              1523.9978              1527.3832
 Red. masses --      1.0842                 1.0945                 1.0524
 Frc consts  --      1.4774                 1.4977                 1.4466
 IR Inten    --      3.5612                 5.6131                 2.1974

                     85                     86                     87
                      A                      A                      A
 Frequencies --   1528.2253              1530.1147              1537.8037
 Red. masses --      1.1133                 1.0541                 1.0975
 Frc consts  --      1.5320                 1.4540                 1.5291
 IR Inten    --      2.4991                 9.4336                 1.0997

                     88                     89                     90
                      A                      A                      A
 Frequencies --   1546.4300              1693.1800              1755.6636
 Red. masses --      1.1062                 1.0999                 7.4326
 Frc consts  --      1.5586                 1.8579                13.4981
 IR Inten    --      9.9953                19.3723               308.5103

                     91                     92                     93
                      A                      A                      A
 Frequencies --   3006.4535              3030.4487              3036.5526
 Red. masses --      1.0828                 1.0708                 1.0641
 Frc consts  --      5.7666                 5.7941                 5.7811
 IR Inten    --     10.5105                14.7499                16.5778

                     94                     95                     96
                      A                      A                      A
 Frequencies --   3038.5256              3041.3311              3048.1281
 Red. masses --      1.0545                 1.0546                 1.0620
 Frc consts  --      5.7363                 5.7474                 5.8134
 IR Inten    --     17.3569                59.8031                24.9351

                     97                     98                     99
                      A                      A                      A
 Frequencies --   3062.4137              3063.1660              3063.4256
 Red. masses --      1.0741                 1.0748                 1.0618
 Frc consts  --      5.9352                 5.9417                 5.8711
 IR Inten    --      5.4854                56.9660                22.0099

                    100                    101                    102
                      A                      A                      A
 Frequencies --   3072.6757              3082.4042              3084.7159
 Red. masses --      1.0666                 1.0666                 1.1029
 Frc consts  --      5.9333                 5.9709                 6.1833
 IR Inten    --     36.3686                34.3067                25.3012

                    103                    104                    105
                      A                      A                      A
 Frequencies --   3095.2936              3099.9144              3102.5230
 Red. masses --      1.0944                 1.1006                 1.0961
 Frc consts  --      6.1778                 6.2311                 6.2163
 IR Inten    --     29.7450                22.0401                24.0112

                    106                    107                    108
                      A                      A                      A
 Frequencies --   3106.4467              3110.6023              3116.0583
 Red. masses --      1.1014                 1.1024                 1.1023
 Frc consts  --      6.2624                 6.2844                 6.3058
 IR Inten    --     77.0750                36.4436                46.8356

                    109                    110                    111
                      A                      A                      A
 Frequencies --   3127.6455              3137.5512              3144.9844
 Red. masses --      1.1015                 1.0912                 1.1023
 Frc consts  --      6.3485                 6.3290                 6.4236
 IR Inten    --     37.1774                11.7298                25.6430

                    112                    113                    114
                      A                      A                      A
 Frequencies --   3485.2743              3571.1683              3589.1435
 Red. masses --      1.0522                 1.0747                 1.0888
 Frc consts  --      7.5306                 8.0750                 8.2636
 IR Inten    --      1.7896                 9.6626                 0.2912

 - Thermochemistry -
 -------------------
 Temperature   298.150 Kelvin.  Pressure   1.00000 Atm.
 Atom     1 has atomic number  6 and mass  12.00000

 Molecular mass:   224.18886 amu.
 Principal axes and moments of inertia in atomic units:
                           1         2         3
     Eigenvalues --  1341.075227931.200218344.45340
           X            0.99998  -0.00628  -0.00284
           Y            0.00629   0.99998   0.00247
           Z            0.00283  -0.00249   0.99999
 This molecule is an asymmetric top.
 Rotational symmetry number  1.
 Warning -- assumption of classical behavior for rotation
           may cause significant error
 Rotational temperatures (Kelvin)      0.06459     0.01092     0.01038
 Rotational constants (GHZ):           1.34574     0.22755     0.21628
 Zero-point vibrational energy     960567.6 (Joules/Mol)
                                  229.58116 (Kcal/Mol)
 Warning -- explicit consideration of  25 degrees of freedom as
           vibrations may cause significant error
 Vibrational temperatures:     25.35    64.87    70.20    76.27   105.77
          (Kelvin)            134.98   198.36   239.44   274.35   330.13
                              347.86   376.37   381.52   412.56   461.68
                              523.81   530.10   571.41   609.85   620.06
                              744.05   784.16   794.64   827.56   887.84
                              924.20   974.56   996.53  1098.69  1155.03
                             1188.30  1196.47  1199.03  1243.91  1255.08
                             1282.66  1292.93  1331.51  1339.79  1366.77
                             1389.19  1409.13  1438.99  1454.03  1497.06
                             1503.46  1534.23  1538.96  1553.21  1580.50
                             1604.56  1659.97  1662.97  1691.86  1735.91
                             1760.46  1779.76  1781.95  1807.63  1823.12
                             1839.22  1853.31  1891.22  1894.18  1902.54
                             1913.74  1924.99  1935.24  1962.19  1969.10
                             1971.32  1975.98  1990.65  2000.90  2029.42
                             2046.20  2073.30  2160.95  2167.41  2181.79
                             2187.82  2188.06  2192.69  2197.56  2198.78
                             2201.49  2212.56  2224.97  2436.11  2526.01
                             4325.62  4360.14  4368.92  4371.76  4375.80
                             4385.58  4406.13  4407.21  4407.59  4420.90
                             4434.89  4438.22  4453.44  4460.09  4463.84
                             4469.48  4475.46  4483.31  4499.98  4514.24
                             4524.93  5014.53  5138.11  5163.98

 Zero-point correction=                           0.365861 (Hartree/Particle)
 Thermal correction to Energy=                    0.382591
 Thermal correction to Enthalpy=                  0.383535
 Thermal correction to Gibbs Free Energy=         0.320047
 Sum of electronic and zero-point Energies=           -694.281379
 Sum of electronic and thermal Energies=              -694.264648
 Sum of electronic and thermal Enthalpies=            -694.263704
 Sum of electronic and thermal Free Energies=         -694.327192

                     E (Thermal)             CV                S
                      KCal/Mol        Cal/Mol-Kelvin    Cal/Mol-Kelvin
 Total                  240.080             64.493            133.622
 Electronic               0.000              0.000              0.000
 Translational            0.889              2.981             42.124
 Rotational               0.889              2.981             32.851
 Vibrational            238.302             58.532             58.647
 Vibration     1          0.593              1.986              6.886
 Vibration     2          0.595              1.979              5.022
 Vibration     3          0.595              1.978              4.866
 Vibration     4          0.596              1.976              4.702
 Vibration     5          0.599              1.966              4.057
 Vibration     6          0.603              1.954              3.579
 Vibration     7          0.614              1.916              2.833
 Vibration     8          0.624              1.884              2.476
 Vibration     9          0.634              1.853              2.221
 Vibration    10          0.652              1.796              1.883
 Vibration    11          0.658              1.776              1.790
 Vibration    12          0.669              1.743              1.651
 Vibration    13          0.671              1.737              1.627
 Vibration    14          0.684              1.698              1.493
 Vibration    15          0.706              1.634              1.306
 Vibration    16          0.738              1.546              1.105
 Vibration    17          0.741              1.537              1.086
 Vibration    18          0.764              1.476              0.973
 Vibration    19          0.786              1.418              0.879
 Vibration    20          0.792              1.403              0.856
 Vibration    21          0.872              1.212              0.617
 Vibration    22          0.900              1.151              0.555
 Vibration    23          0.908              1.135              0.539
 Vibration    24          0.932              1.085              0.494
 Vibration    25          0.977              0.996              0.421

 Optimization completed.
    -- Stationary point found.
 Normal termination of Gaussian 16 at Fri Dec 11 01:27:13 2020.

 ----------------------------------------------------------------------
 # B3LYP/6-311++G(d,p) empiricaldispersion=gd3bj scf=xqc pop=npa geom=c
 heck
 ----------------------------------------------------------------------

 ---------------------------------------
 CID_107413188_JID_6652_Energie_neutraal
 ---------------------------------------
 Structure from the checkpoint file:  "JID_6652.chk"
 Charge =  0 Multiplicity = 1

 SCF Done:  E(RB3LYP) =  -694.849443758     A.U. after   14 cycles
 Normal termination of Gaussian 16 at Fri Dec 11 01:35:10 2020.

 ----------------------------------------------------------------------
 # B3LYP/6-311++G(d,p) empiricaldispersion=gd3bj scf=xqc pop=npa geom=c
 heck
 ----------------------------------------------------------------------

 -------------------------------------
 CID_107413188_JID_6652_Energie_kation
 -------------------------------------
 Structure from the checkpoint file:  "JID_6652.chk"
 Charge =  1 Multiplicity = 2

 SCF Done:  E(UB3LYP) =  -694.541268092     A.U. after   26 cycles
 Normal termination of Gaussian 16 at Fri Dec 11 01:56:11 2020.
 Gaussian 16:  ES64L-G16RevA.03 25-Dec-2016

 ----------------------------------------------------------------------
 # B3LYP/6-311++G(d,p) empiricaldispersion=gd3bj scf=xqc pop=npa geom=c
 heck
 ----------------------------------------------------------------------

 ------------------------------------
 CID_107413188_JID_6652_Energie_anion
 ------------------------------------
 Structure from the checkpoint file:  "JID_6652.chk"
 Charge = -1 Multiplicity = 2

                         Standard orientation:
 ---------------------------------------------------------------------
 Center     Atomic      Atomic             Coordinates (Angstroms)
 Number     Number       Type             X           Y           Z
 ---------------------------------------------------------------------
      1          6           0       -5.311497    1.082851    0.076002
      2          6           0       -4.080215    0.282417   -0.338666
      3          6           0       -4.050679   -1.169931    0.163515
      4          6           0       -2.599677   -1.602861   -0.089008
      5          6           0       -1.740827   -0.336742    0.185511
      6          6           0       -2.748220    0.848586    0.194446
      7          6           0       -0.624499   -0.181034   -0.858851
      8          7           0        0.297424    0.910899   -0.589596
      9          6           0        1.468665    0.944071    0.135229
     10          8           0        1.919245    2.033232    0.480233
     11          6           0        2.212606   -0.381902    0.451464
     12          6           0        3.568137   -0.041226    1.101369
     13          6           0        4.503089    0.360890   -0.060004
     14          6           0        3.845765   -0.218720   -1.345305
     15          6           0        2.668585   -1.078864   -0.849617
     16          7           0        1.462842   -1.287997    1.334475
     17          1           0       -6.230691    0.633274   -0.317002
     18          1           0       -5.397522    1.121380    1.169284
     19          1           0       -5.260636    2.114531   -0.291149
     20          1           0       -4.029909    0.256354   -1.438036
     21          1           0       -4.272404   -1.186760    1.239962
     22          1           0       -4.785885   -1.812724   -0.332906
     23          1           0       -2.487128   -1.902497   -1.140395
     24          1           0       -2.288906   -2.458789    0.519266
     25          1           0       -1.261475   -0.412251    1.167912
     26          1           0       -2.400717    1.707203   -0.393152
     27          1           0       -2.893280    1.212591    1.218876
     28          1           0       -0.062330   -1.111551   -0.955566
     29          1           0       -1.079791   -0.003796   -1.842677
     30          1           0       -0.089905    1.843942   -0.678382
     31          1           0        3.471616    0.743780    1.854018
     32          1           0        3.917921   -0.956688    1.589600
     33          1           0        5.512677   -0.033506    0.093027
     34          1           0        4.581198    1.448431   -0.127428
     35          1           0        4.542998   -0.800818   -1.955873
     36          1           0        3.470809    0.594057   -1.977208
     37          1           0        3.001907   -2.085226   -0.569989
     38          1           0        1.885172   -1.185130   -1.605528
     39          1           0        1.226362   -0.807212    2.201189
     40          1           0        0.586693   -1.589974    0.919631
 ---------------------------------------------------------------------

 SCF Done:  E(UB3LYP) =  -694.837648922     A.U. after   33 cycles
 SCF Done:  E(UB3LYP) =  -694.837648922     a.u. after    1 cycles

 The electronic state is 2-A.
 Alpha  occ. eigenvalues --  -18.99718 -14.24190 -14.21413 -10.17964 -10.12749
 Alpha  occ. eigenvalues --  -10.11584 -10.08214 -10.08145 -10.08099 -10.07794
 Alpha  occ. eigenvalues --  -10.07342 -10.07178 -10.06851 -10.06711 -10.06345
 Alpha  occ. eigenvalues --  -10.06018  -0.94859  -0.83179  -0.81119  -0.74753
 Alpha  occ. eigenvalues --   -0.73345  -0.66720  -0.62885  -0.62587  -0.61437
 Alpha  occ. eigenvalues --   -0.59242  -0.55148  -0.52848  -0.49015  -0.47346
 Alpha  occ. eigenvalues --   -0.46493  -0.45130  -0.41666  -0.40829  -0.40101
 Alpha  occ. eigenvalues --   -0.38939  -0.38704  -0.37205  -0.36866  -0.33839
 Alpha  occ. eigenvalues --   -0.33113  -0.32741  -0.32482  -0.31790  -0.30618
 Alpha  occ. eigenvalues --   -0.29719  -0.27882  -0.27599  -0.26307  -0.25792
 Alpha  occ. eigenvalues --   -0.25405  -0.25040  -0.24351  -0.24228  -0.23335
 Alpha  occ. eigenvalues --   -0.23205  -0.23042  -0.22008  -0.21867  -0.19379
 Alpha  occ. eigenvalues --   -0.16054  -0.14785   0.04227
 Alpha virt. eigenvalues --    0.06124   0.06504   0.07170   0.07496   0.08319
 Alpha virt. eigenvalues --    0.08575   0.09146   0.09570   0.09730   0.10013
 Alpha virt. eigenvalues --    0.10280   0.10677   0.11203   0.11704   0.11712

  Beta  occ. eigenvalues --  -18.99716 -14.24180 -14.21394 -10.17965 -10.12747
  Beta  occ. eigenvalues --  -10.11558 -10.08202 -10.08138 -10.08090 -10.07792
  Beta  occ. eigenvalues --  -10.07338 -10.07159 -10.06826 -10.06689 -10.06320
  Beta  occ. eigenvalues --  -10.05988  -0.94854  -0.83158  -0.81096  -0.74718
  Beta  occ. eigenvalues --   -0.73327  -0.66680  -0.62854  -0.62559  -0.61413
  Beta  occ. eigenvalues --   -0.59186  -0.55090  -0.52816  -0.48996  -0.47272
  Beta  occ. eigenvalues --   -0.46449  -0.45083  -0.41640  -0.40786  -0.40078
  Beta  occ. eigenvalues --   -0.38914  -0.38650  -0.37157  -0.36844  -0.33809
  Beta  occ. eigenvalues --   -0.33093  -0.32710  -0.32455  -0.31757  -0.30594
  Beta  occ. eigenvalues --   -0.29685  -0.27858  -0.27561  -0.26289  -0.25772
  Beta  occ. eigenvalues --   -0.25391  -0.25018  -0.24323  -0.24192  -0.23326
  Beta  occ. eigenvalues --   -0.23148  -0.23008  -0.21957  -0.21829  -0.19365
  Beta  occ. eigenvalues --   -0.16036  -0.14770
  Beta virt. eigenvalues --    0.06123   0.06632   0.07202   0.07774   0.07975
  Beta virt. eigenvalues --    0.08510   0.08770   0.09413   0.09805   0.10064
  Beta virt. eigenvalues --    0.10464   0.10558   0.11052   0.11373   0.11768

 Mulliken charges and spin densities:
               1          2
     1  C    1.419317  -2.182000
     2  C   -1.683542   2.216802
     3  C    0.817470  -1.472854
     4  C   -0.251060  -0.110842
     5  C   -0.285755   1.260987
     6  C    1.754916  -2.650066
     7  C   -0.422888  -0.545259
     8  N   -0.081790   0.058741
     9  C    0.069705  -0.496941
    10  O   -0.284574   0.012303
    11  C    0.161730   0.204508
    12  C   -0.119389  -0.400702
    13  C   -0.386374  -0.058664
    14  C   -0.206695  -0.116484
    15  C    0.107234  -0.345462
    16  N   -0.248025   0.032557
    17  H   -0.218426   0.359696
    18  H    0.009679   0.118838
    19  H   -0.259585   0.398713
    20  H   -0.495952   0.683464
    21  H   -0.123509   0.269942
    22  H   -0.212025   0.380305
    23  H   -0.057899   0.210525
    24  H   -0.390428   0.552958
    25  H    0.210456  -0.015687
    26  H    0.268623  -0.171510
    27  H   -0.368946   0.554164
    28  H    0.004360   0.179477
    29  H   -0.759226   0.991001
    30  H    0.088692   0.224954
    31  H    0.166997   0.022670
    32  H    0.131881   0.030969
    33  H    0.106505   0.016089
    34  H    0.162325   0.008317
    35  H    0.050840   0.109327
    36  H    0.085375   0.081518
    37  H    0.018157   0.153801
    38  H   -0.033746   0.169478
    39  H    0.058889   0.184950
    40  H    0.196681   0.079419
 Sum of Mulliken charges =  -1.00000   1.00000

 Dipole moment (field-independent basis, Debye):
    X=              7.5397    Y=             -0.0313    Z=              1.7706  Tot=              7.7449
 Quadrupole moment (field-independent basis, Debye-Ang):
   XX=           -194.0116   YY=           -148.2053   ZZ=           -141.3269
   XY=             -3.1891   XZ=             -8.3822   YZ=              0.0091

 Summary of Natural Population Analysis:

                                       Natural Population
                Natural  -----------------------------------------------
    Atom  No    Charge         Core      Valence    Rydberg      Total
 -----------------------------------------------------------------------
      C    1   -0.27991      0.99965     2.27518    0.00508     3.27991
      C    2   -0.11437      0.99960     2.10379    0.01098     3.11437
      C    3   -0.18625      0.99962     2.17817    0.00847     3.18625
      C    4   -0.18960      0.99962     2.18146    0.00851     3.18960
      C    5   -0.11748      0.99959     2.10818    0.00971     3.11748
      C    6   -0.18519      0.99960     2.17793    0.00766     3.18519
      C    7   -0.08696      0.99957     2.07576    0.01163     3.08696
      N    8   -0.31818      0.99967     2.80743    0.01108     3.81818
      C    9    0.34156      0.99960     1.63439    0.02444     2.65844
      O   10   -0.32801      0.99988     3.32223    0.00590     4.32801
      C   11    0.02033      0.99950     1.96718    0.01299     2.97967
      C   12   -0.19139      0.99961     2.18287    0.00891     3.19139
      C   13   -0.19426      0.99965     2.18751    0.00711     3.19426
      C   14   -0.19501      0.99965     2.18753    0.00783     3.19501
      C   15   -0.19330      0.99960     2.18385    0.00985     3.19330
      N   16   -0.41763      0.99975     2.90741    0.01047     3.91763
      H   17    0.09966      0.00000     0.39909    0.00124     0.40034
      H   18    0.09494      0.00000     0.40384    0.00122     0.40506
      H   19    0.09940      0.00000     0.39937    0.00123     0.40060
      H   20    0.09512      0.00000     0.40201    0.00287     0.40488
      H   21    0.09300      0.00000     0.40557    0.00143     0.40700
      H   22    0.10242      0.00000     0.39636    0.00123     0.39758
      H   23    0.09695      0.00000     0.40116    0.00189     0.40305
      H   24    0.10143      0.00000     0.39722    0.00135     0.39857
      H   25    0.09561      0.00000     0.40268    0.00171     0.40439
      H   26    0.09794      0.00000     0.40040    0.00166     0.40206
      H   27    0.09850      0.00000     0.40006    0.00144     0.40150
      H   28    0.09637      0.00000     0.40161    0.00201     0.40363
      H   29    0.10171      0.00000     0.39629    0.00200     0.39829
      H   30    0.19339      0.00000     0.30362    0.00298     0.30661
      H   31    0.11071      0.00000     0.38826    0.00103     0.38929
      H   32    0.10073      0.00000     0.39803    0.00124     0.39927
      H   33    0.09368      0.00000     0.40528    0.00105     0.40632
      H   34    0.10394      0.00000     0.39489    0.00116     0.39606
      H   35    0.09827      0.00000     0.40087    0.00086     0.40173
      H   36    0.09950      0.00000     0.39941    0.00108     0.40050
      H   37    0.10232      0.00000     0.39643    0.00125     0.39768
      H   38    0.10419      0.00000     0.39465    0.00116     0.39581
      H   39    0.17729      0.00000     0.32086    0.00185     0.32271
      H   40    0.17859      0.00000     0.31880    0.00261     0.32141
 =======================================================================
   * Total *   -0.00000     15.99416    45.80765    0.19819    62.00000

 Normal termination of Gaussian 16 at Fri Dec 11 02:22:21 2020.
