 Gaussian 16, Revision A.03,

 ----------------------------------------------------------------------
 # opt=(cartesian,calcfc) freq B3LYP/6-31G(d) empiricaldispersion=gd3bj
  scf=xqc
 ----------------------------------------------------------------------

 ------------------------------
 CID_55070953_JID_7493_neutraal
 ------------------------------
 Symbolic Z-matrix:
 Charge =  0 Multiplicity = 1

 SCF Done:  E(RB3LYP) =  -1084.17222620     A.U. after   15 cycles
 SCF Done:  E(RB3LYP) =  -1084.17225423     A.U. after   10 cycles
 SCF Done:  E(RB3LYP) =  -1084.17225470     A.U. after   11 cycles
 SCF Done:  E(RB3LYP) =  -1084.17228027     A.U. after   10 cycles
 SCF Done:  E(RB3LYP) =  -1084.17228619     A.U. after   10 cycles
 SCF Done:  E(RB3LYP) =  -1084.17226211     A.U. after   11 cycles
 SCF Done:  E(RB3LYP) =  -1084.17228244     A.U. after   10 cycles
 SCF Done:  E(RB3LYP) =  -1084.17228742     A.U. after    8 cycles
 SCF Done:  E(RB3LYP) =  -1084.17228988     A.U. after   10 cycles
 SCF Done:  E(RB3LYP) =  -1084.17229528     A.U. after   10 cycles
 SCF Done:  E(RB3LYP) =  -1084.17230362     A.U. after    8 cycles
 SCF Done:  E(RB3LYP) =  -1084.17230384     A.U. after    7 cycles
 SCF Done:  E(RB3LYP) =  -1084.17230371     A.U. after    8 cycles
 SCF Done:  E(RB3LYP) =  -1084.17230384     A.U. after    6 cycles
 SCF Done:  E(RB3LYP) =  -1084.17230384     A.U. after    6 cycles
 SCF Done:  E(RB3LYP) =  -1084.17230384     A.U. after    6 cycles
 Optimization completed.
    -- Stationary point found.
 Normal termination of Gaussian 16 at Mon Jan  4 10:22:44 2021.

 --------------------------------------------------------------------
 #N Geom=AllCheck Guess=TCheck SCRF=Check GenChk RB3LYP/6-31G(d) Freq
 --------------------------------------------------------------------

 Structure from the checkpoint file:  "JID_7493.chk"
 ------------------------------
 CID_55070953_JID_7493_neutraal
 ------------------------------
 Charge =  0 Multiplicity = 1

 SCF Done:  E(RB3LYP) =  -1084.17230384     A.U. after    1 cycles

  Exact polarizability: 239.424   4.487 202.406  -0.117   0.445  92.839
 Approx polarizability: 325.137  20.546 366.755   0.701   3.649 140.442

                      1                      2                      3
                      A                      A                      A
 Frequencies --     20.5749                37.6845                59.1947
 Red. masses --      3.0152                 4.1460                 2.8054
 Frc consts  --      0.0008                 0.0035                 0.0058
 IR Inten    --      0.1603                 1.7523                 1.0907

                      4                      5                      6
                      A                      A                      A
 Frequencies --     68.1398                96.1332               119.1015
 Red. masses --      1.3054                 4.3075                 3.8843
 Frc consts  --      0.0036                 0.0235                 0.0325
 IR Inten    --      1.1071                 2.4895                 0.2849

                      7                      8                      9
                      A                      A                      A
 Frequencies --    170.8302               182.4192               214.3282
 Red. masses --      5.2025                 4.7165                 3.7851
 Frc consts  --      0.0895                 0.0925                 0.1024
 IR Inten    --      4.1793                 6.3330                 4.2886

                     10                     11                     12
                      A                      A                      A
 Frequencies --    225.7037               237.7842               254.1412
 Red. masses --      1.3427                 4.3903                 2.6204
 Frc consts  --      0.0403                 0.1463                 0.0997
 IR Inten    --      0.7023                 0.2422                 2.3823

                     13                     14                     15
                      A                      A                      A
 Frequencies --    262.6356               281.9762               294.0592
 Red. masses --      1.8301                 1.4313                 1.1735
 Frc consts  --      0.0744                 0.0671                 0.0598
 IR Inten    --      3.4061                 2.6003                 1.8548

                     16                     17                     18
                      A                      A                      A
 Frequencies --    307.6933               341.0444               367.0160
 Red. masses --      3.1124                 3.0517                 2.4751
 Frc consts  --      0.1736                 0.2091                 0.1964
 IR Inten    --      1.6656                18.0766                 6.9599

                     19                     20                     21
                      A                      A                      A
 Frequencies --    392.0713               403.4112               446.6503
 Red. masses --      2.2567                 3.7911                 2.4852
 Frc consts  --      0.2044                 0.3635                 0.2921
 IR Inten    --     42.0077                 1.1077                35.1799

                     22                     23                     24
                      A                      A                      A
 Frequencies --    456.9673               480.3163               521.0315
 Red. masses --      2.8899                 1.8613                 3.8971
 Frc consts  --      0.3555                 0.2530                 0.6233
 IR Inten    --      7.2313                35.8655                 4.2678

                     25                     26                     27
                      A                      A                      A
 Frequencies --    555.4691               587.4500               613.0551
 Red. masses --      5.2123                 3.8882                 5.2735
 Frc consts  --      0.9475                 0.7906                 1.1677
 IR Inten    --      6.5004                 8.6570                 1.8576

                     28                     29                     30
                      A                      A                      A
 Frequencies --    640.1651               651.7956               720.6094
 Red. masses --      5.6899                 5.5662                 3.4143
 Frc consts  --      1.3738                 1.3933                 1.0446
 IR Inten    --      1.0686                13.1936                 5.8839

                     31                     32                     33
                      A                      A                      A
 Frequencies --    769.8456               784.0078               823.0990
 Red. masses --      6.9438                 4.8653                 1.4176
 Frc consts  --      2.4247                 1.7620                 0.5659
 IR Inten    --     11.3598                10.0191                26.3881

                     34                     35                     36
                      A                      A                      A
 Frequencies --    834.9443               895.0764               904.0559
 Red. masses --      2.6973                 4.8082                 1.3348
 Frc consts  --      1.1079                 2.2696                 0.6428
 IR Inten    --     13.5926                 1.8503                12.3458

                     37                     38                     39
                      A                      A                      A
 Frequencies --    944.7938               956.4000               980.0969
 Red. masses --      1.7829                 1.6963                 1.1997
 Frc consts  --      0.9377                 0.9142                 0.6790
 IR Inten    --      1.0301                 1.5594                 0.0724

                     40                     41                     42
                      A                      A                      A
 Frequencies --    984.1064              1004.3921              1009.8903
 Red. masses --      1.4178                 4.4664                 4.5198
 Frc consts  --      0.8090                 2.6547                 2.7159
 IR Inten    --      0.0362                15.0904                56.3640

                     43                     44                     45
                      A                      A                      A
 Frequencies --   1031.9929              1052.5266              1062.4113
 Red. masses --      2.0325                 2.4667                 1.4198
 Frc consts  --      1.2753                 1.6100                 0.9442
 IR Inten    --      2.6851                 6.9740                 0.2174

                     46                     47                     48
                      A                      A                      A
 Frequencies --   1063.9238              1076.9493              1115.2325
 Red. masses --      1.5587                 1.6209                 1.8665
 Frc consts  --      1.0395                 1.1076                 1.3677
 IR Inten    --      2.0682                 7.3481                98.2643

                     49                     50                     51
                      A                      A                      A
 Frequencies --   1163.7704              1207.4684              1220.5584
 Red. masses --      1.9338                 2.2536                 2.6613
 Frc consts  --      1.5431                 1.9359                 2.3359
 IR Inten    --      2.9717               114.8617               114.6653

                     52                     53                     54
                      A                      A                      A
 Frequencies --   1244.0687              1253.7341              1267.5857
 Red. masses --      2.6722                 2.7732                 3.5912
 Frc consts  --      2.4367                 2.5683                 3.3997
 IR Inten    --      3.1029                 8.5581                48.4546

                     55                     56                     57
                      A                      A                      A
 Frequencies --   1293.9057              1317.3600              1350.9301
 Red. masses --      4.6958                 3.3191                 2.3342
 Frc consts  --      4.6319                 3.3937                 2.5099
 IR Inten    --     12.7601               111.8491                57.6729

                     58                     59                     60
                      A                      A                      A
 Frequencies --   1386.1837              1397.6513              1428.4056
 Red. masses --      3.3250                 2.4299                 1.2204
 Frc consts  --      3.7643                 2.7966                 1.4671
 IR Inten    --    140.4213                75.1149                11.1839

                     61                     62                     63
                      A                      A                      A
 Frequencies --   1429.6857              1436.2715              1460.2373
 Red. masses --      1.2749                 1.2980                 1.5175
 Frc consts  --      1.5354                 1.5776                 1.9065
 IR Inten    --     43.1011                 7.0675                34.9651

                     64                     65                     66
                      A                      A                      A
 Frequencies --   1463.8648              1502.7920              1503.7753
 Red. masses --      2.8922                 2.1880                 1.0452
 Frc consts  --      3.6516                 2.9114                 1.3925
 IR Inten    --    142.9855                42.5254                 6.7426

                     67                     68                     69
                      A                      A                      A
 Frequencies --   1509.7616              1510.8024              1515.0539
 Red. masses --      1.2801                 1.1761                 1.0529
 Frc consts  --      1.7191                 1.5817                 1.4239
 IR Inten    --     13.5453                 1.6334                 1.6981

                     70                     71                     72
                      A                      A                      A
 Frequencies --   1518.0104              1520.4040              1532.9042
 Red. masses --      2.0394                 1.1104                 1.0601
 Frc consts  --      2.7689                 1.5123                 1.4677
 IR Inten    --    205.8083                 4.6262                 5.5488

                     73                     74                     75
                      A                      A                      A
 Frequencies --   1537.8763              1547.1653              1598.6452
 Red. masses --      1.0904                 1.1079                 6.5805
 Frc consts  --      1.5195                 1.5626                 9.9086
 IR Inten    --      7.2790                 4.1897                86.8644

                     76                     77                     78
                      A                      A                      A
 Frequencies --   1601.2250              1645.2507              3049.1679
 Red. masses --      4.9233                 6.6922                 1.0351
 Frc consts  --      7.4372                10.6729                 5.6703
 IR Inten    --    167.2967               550.7814                20.1206

                     79                     80                     81
                      A                      A                      A
 Frequencies --   3053.6971              3059.8022              3061.8926
 Red. masses --      1.0343                 1.0356                 1.0365
 Frc consts  --      5.6824                 5.7123                 5.7254
 IR Inten    --     22.1771                14.4517                 8.4526

                     82                     83                     84
                      A                      A                      A
 Frequencies --   3114.5660              3121.0809              3124.8378
 Red. masses --      1.1015                 1.1003                 1.1031
 Frc consts  --      6.2955                 6.3152                 6.3464
 IR Inten    --     19.1659                 7.9678                20.2921

                     85                     86                     87
                      A                      A                      A
 Frequencies --   3127.7363              3129.1849              3132.2431
 Red. masses --      1.1035                 1.1033                 1.1028
 Frc consts  --      6.3603                 6.3651                 6.3749
 IR Inten    --      4.9763                17.1111                37.2661

                     88                     89                     90
                      A                      A                      A
 Frequencies --   3133.3469              3154.0358              3188.6822
 Red. masses --      1.1026                 1.1033                 1.0911
 Frc consts  --      6.3783                 6.4665                 6.5363
 IR Inten    --     56.6682                10.7603                34.8651

                     91                     92                     93
                      A                      A                      A
 Frequencies --   3256.3121              3310.0156              3587.6750
 Red. masses --      1.0940                 1.0969                 1.0793
 Frc consts  --      6.8348                 7.0808                 8.1851
 IR Inten    --     17.3796                 0.7851               150.0656

 - Thermochemistry -
 -------------------
 Temperature   298.150 Kelvin.  Pressure   1.00000 Atm.
 Atom     1 has atomic number  6 and mass  12.00000

 Molecular mass:   248.10957 amu.
 Principal axes and moments of inertia in atomic units:
                           1         2         3
     Eigenvalues --  2336.150377225.232499143.33447
           X            0.99986   0.01665  -0.00067
           Y           -0.01665   0.99986  -0.00133
           Z            0.00065   0.00134   1.00000
 This molecule is an asymmetric top.
 Rotational symmetry number  1.
 Warning -- assumption of classical behavior for rotation
           may cause significant error
 Rotational temperatures (Kelvin)      0.03708     0.01199     0.00947
 Rotational constants (GHZ):           0.77253     0.24978     0.19738
 Zero-point vibrational energy     713409.9 (Joules/Mol)
                                  170.50906 (Kcal/Mol)
 Warning -- explicit consideration of  27 degrees of freedom as
           vibrations may cause significant error
 Vibrational temperatures:     29.60    54.22    85.17    98.04   138.31
          (Kelvin)            171.36   245.79   262.46   308.37   324.74
                              342.12   365.65   377.87   405.70   423.09
                              442.70   490.69   528.05   564.10   580.42
                              642.63   657.47   691.07   749.65   799.20
                              845.21   882.05   921.05   937.79  1036.80
                             1107.64  1128.01  1184.26  1201.30  1287.82
                             1300.73  1359.35  1376.05  1410.14  1415.91
                             1445.10  1453.01  1484.81  1514.35  1528.57
                             1530.75  1549.49  1604.57  1674.41  1737.28
                             1756.11  1789.94  1803.84  1823.77  1861.64
                             1895.39  1943.69  1994.41  2010.91  2055.16
                             2057.00  2066.47  2100.96  2106.18  2162.18
                             2163.60  2172.21  2173.71  2179.82  2184.08
                             2187.52  2205.51  2212.66  2226.03  2300.09
                             2303.81  2367.15  4387.07  4393.59  4402.37
                             4405.38  4481.17  4490.54  4495.94  4500.11
                             4502.20  4506.60  4508.19  4537.95  4587.80
                             4685.11  4762.37  5161.86

 Zero-point correction=                           0.271723 (Hartree/Particle)
 Thermal correction to Energy=                    0.288608
 Thermal correction to Enthalpy=                  0.289552
 Thermal correction to Gibbs Free Energy=         0.226086
 Sum of electronic and zero-point Energies=          -1083.900580
 Sum of electronic and thermal Energies=             -1083.883696
 Sum of electronic and thermal Enthalpies=           -1083.882751
 Sum of electronic and thermal Free Energies=        -1083.946218

                     E (Thermal)             CV                S
                      KCal/Mol        Cal/Mol-Kelvin    Cal/Mol-Kelvin
 Total                  181.104             63.527            133.576
 Electronic               0.000              0.000              0.000
 Translational            0.889              2.981             42.427
 Rotational               0.889              2.981             33.400
 Vibrational            179.327             57.565             57.749
 Vibration     1          0.593              1.986              6.578
 Vibration     2          0.594              1.982              5.377
 Vibration     3          0.597              1.974              4.484
 Vibration     4          0.598              1.969              4.206
 Vibration     5          0.603              1.952              3.531
 Vibration     6          0.609              1.933              3.115
 Vibration     7          0.626              1.878              2.426
 Vibration     8          0.630              1.864              2.304
 Vibration     9          0.644              1.819              2.006
 Vibration    10          0.650              1.802              1.913
 Vibration    11          0.656              1.783              1.819
 Vibration    12          0.665              1.756              1.702
 Vibration    13          0.670              1.741              1.644
 Vibration    14          0.681              1.707              1.522
 Vibration    15          0.689              1.685              1.450
 Vibration    16          0.698              1.659              1.375
 Vibration    17          0.721              1.593              1.207
 Vibration    18          0.740              1.540              1.092
 Vibration    19          0.760              1.487              0.992
 Vibration    20          0.769              1.463              0.950
 Vibration    21          0.806              1.368              0.806
 Vibration    22          0.815              1.345              0.775
 Vibration    23          0.837              1.294              0.709
 Vibration    24          0.876              1.203              0.608
 Vibration    25          0.911              1.128              0.533
 Vibration    26          0.945              1.059              0.472
 Vibration    27          0.972              1.004              0.428

 Optimization completed on the basis of negligible forces.
    -- Stationary point found.
 Normal termination of Gaussian 16 at Mon Jan  4 10:33:18 2021.

 ----------------------------------------------------------------------
 # B3LYP/6-311++G(d,p) empiricaldispersion=gd3bj scf=xqc pop=npa geom=c
 heck
 ----------------------------------------------------------------------

 --------------------------------------
 CID_55070953_JID_7493_Energie_neutraal
 --------------------------------------
 Structure from the checkpoint file:  "JID_7493.chk"
 Charge =  0 Multiplicity = 1

 SCF Done:  E(RB3LYP) =  -1084.37795199     A.U. after   16 cycles
 Normal termination of Gaussian 16 at Mon Jan  4 10:38:20 2021.

 ----------------------------------------------------------------------
 # B3LYP/6-311++G(d,p) empiricaldispersion=gd3bj scf=xqc pop=npa geom=c
 heck
 ----------------------------------------------------------------------

 ------------------------------------
 CID_55070953_JID_7493_Energie_kation
 ------------------------------------
 Structure from the checkpoint file:  "JID_7493.chk"
 Charge =  1 Multiplicity = 2

 SCF Done:  E(UB3LYP) =  -1084.10673799     A.U. after   25 cycles
 Normal termination of Gaussian 16 at Mon Jan  4 10:48:57 2021.
 Gaussian 16:  ES64L-G16RevA.03 25-Dec-2016

 ----------------------------------------------------------------------
 # B3LYP/6-311++G(d,p) empiricaldispersion=gd3bj scf=xqc pop=npa geom=c
 heck
 ----------------------------------------------------------------------

 -----------------------------------
 CID_55070953_JID_7493_Energie_anion
 -----------------------------------
 Structure from the checkpoint file:  "JID_7493.chk"
 Charge = -1 Multiplicity = 2

                         Standard orientation:
 ---------------------------------------------------------------------
 Center     Atomic      Atomic             Coordinates (Angstroms)
 Number     Number       Type             X           Y           Z
 ---------------------------------------------------------------------
      1          6           0        5.130245    0.256456   -0.040394
      2          6           0        3.776409   -0.393687   -0.013902
      3          6           0        2.607369    0.362954   -0.076241
      4          6           0        1.406028   -0.350494   -0.041064
      5          7           0        1.369342   -1.690600    0.043838
      6          6           0        2.553162   -2.306619    0.091623
      7          7           0        3.755694   -1.741470    0.069849
      8          7           0        0.144697    0.248597   -0.084810
      9          6           0       -0.309739    1.572230    0.010210
     10         16           0        0.617385    2.969478    0.051113
     11          6           0       -1.735568    1.450959    0.052363
     12          6           0       -2.085868    0.125293   -0.013449
     13          7           0       -0.944686   -0.604360   -0.159505
     14          6           0       -3.433255   -0.558224    0.002399
     15          6           0       -3.657614   -1.264654   -1.352505
     16          6           0       -3.467411   -1.597945    1.143720
     17          6           0       -4.537679    0.485469    0.229091
     18          1           0        5.708862   -0.119726   -0.891159
     19          1           0        5.055231    1.344193   -0.111251
     20          1           0        5.687353   -0.005665    0.865764
     21          1           0        2.610083    1.441433   -0.143499
     22          1           0        2.521921   -3.392245    0.158261
     23          1           0       -2.396252    2.300084    0.111822
     24          1           0       -0.741644   -1.567511    0.082716
     25          1           0       -2.888726   -2.020682   -1.542557
     26          1           0       -4.633898   -1.761646   -1.356993
     27          1           0       -3.633352   -0.543976   -2.176138
     28          1           0       -3.278154   -1.125124    2.112959
     29          1           0       -4.451618   -2.076791    1.181320
     30          1           0       -2.723484   -2.389989    0.998910
     31          1           0       -4.401844    1.007962    1.181601
     32          1           0       -4.549610    1.230272   -0.573215
     33          1           0       -5.514830   -0.007836    0.246942
 ---------------------------------------------------------------------

 SCF Done:  E(UB3LYP) =  -1084.39806317     A.U. after   26 cycles

 The electronic state is 2-A.
 Alpha  occ. eigenvalues --  -88.63388 -14.26779 -14.24806 -14.17088 -14.15994
 Alpha  occ. eigenvalues --  -10.10613 -10.10569 -10.10367 -10.09028 -10.08570
 Alpha  occ. eigenvalues --  -10.07934 -10.07704 -10.07584 -10.07523 -10.04893
 Alpha  occ. eigenvalues --  -10.03611 -10.03610  -7.72154  -5.68563  -5.68009
 Alpha  occ. eigenvalues --   -5.67714  -0.93996  -0.84635  -0.77125  -0.74434
 Alpha  occ. eigenvalues --   -0.71395  -0.67917  -0.64948  -0.60719  -0.60485
 Alpha  occ. eigenvalues --   -0.59633  -0.56188  -0.53513  -0.52054  -0.48899
 Alpha  occ. eigenvalues --   -0.46047  -0.42930  -0.42386  -0.38470  -0.37361
 Alpha  occ. eigenvalues --   -0.36389  -0.35546  -0.34365  -0.33694  -0.32908
 Alpha  occ. eigenvalues --   -0.32021  -0.31524  -0.30672  -0.30484  -0.29055
 Alpha  occ. eigenvalues --   -0.28603  -0.27189  -0.26947  -0.26298  -0.25447
 Alpha  occ. eigenvalues --   -0.25347  -0.24879  -0.21566  -0.19682  -0.17505
 Alpha  occ. eigenvalues --   -0.17063  -0.15273  -0.12680  -0.12233  -0.06309
 Alpha  occ. eigenvalues --   -0.06040   0.03345
 Alpha virt. eigenvalues --    0.06093   0.08411   0.08645   0.08896   0.09324
 Alpha virt. eigenvalues --    0.10219   0.10242   0.11193   0.11517   0.11970
 Alpha virt. eigenvalues --    0.12179   0.12619   0.12635   0.12965   0.13315

  Beta  occ. eigenvalues --  -88.63332 -14.26910 -14.24719 -14.16879 -14.15746
  Beta  occ. eigenvalues --  -10.10639 -10.10421 -10.10198 -10.08619 -10.08204
  Beta  occ. eigenvalues --  -10.07911 -10.07702 -10.07557 -10.07271 -10.04916
  Beta  occ. eigenvalues --  -10.03741 -10.03690  -7.72104  -5.68546  -5.67820
  Beta  occ. eigenvalues --   -5.67682  -0.93855  -0.84240  -0.76690  -0.74089
  Beta  occ. eigenvalues --   -0.71178  -0.67520  -0.64674  -0.60680  -0.60431
  Beta  occ. eigenvalues --   -0.59433  -0.55870  -0.53246  -0.51951  -0.48814
  Beta  occ. eigenvalues --   -0.45854  -0.42685  -0.42128  -0.38345  -0.37144
  Beta  occ. eigenvalues --   -0.36130  -0.35482  -0.34023  -0.33479  -0.32788
  Beta  occ. eigenvalues --   -0.31917  -0.31138  -0.30511  -0.30359  -0.28969
  Beta  occ. eigenvalues --   -0.28585  -0.26882  -0.26484  -0.26118  -0.25232
  Beta  occ. eigenvalues --   -0.25169  -0.24834  -0.21183  -0.18384  -0.16756
  Beta  occ. eigenvalues --   -0.16122  -0.14218  -0.12390  -0.11476  -0.05930
  Beta  occ. eigenvalues --   -0.05518
  Beta virt. eigenvalues --    0.06057   0.08372   0.08487   0.08872   0.09181
  Beta virt. eigenvalues --    0.09300   0.10214   0.10580   0.11299   0.11488
  Beta virt. eigenvalues --    0.12142   0.12251   0.12609   0.12778   0.13290

 Mulliken charges and spin densities:
               1          2
     1  C   -0.525601  -0.036853
     2  C   -0.784075   0.147144
     3  C    1.180898  -0.052061
     4  C   -0.719262   0.211019
     5  N   -0.303405   0.122323
     6  C    0.080257  -0.025783
     7  N   -0.148241   0.126894
     8  N    0.188267  -0.075121
     9  C    0.626185   0.232301
    10  S   -1.257258   0.120120
    11  C   -0.344236  -0.099566
    12  C   -0.262806   0.241027
    13  N    0.186768   0.052918
    14  C    0.476028  -0.002205
    15  C   -0.594856  -0.005687
    16  C   -0.608827  -0.015068
    17  C   -0.572165  -0.003933
    18  H    0.123855   0.017865
    19  H    0.132825  -0.000263
    20  H    0.123308   0.018298
    21  H    0.092132  -0.003845
    22  H    0.165544   0.001624
    23  H    0.154499   0.007596
    24  H    0.337590   0.003291
    25  H    0.149989  -0.002662
    26  H    0.132442   0.006939
    27  H    0.148030   0.003761
    28  H    0.159065   0.005097
    29  H    0.133355   0.007465
    30  H    0.126150  -0.004087
    31  H    0.138617   0.002319
    32  H    0.136305  -0.000155
    33  H    0.128623  -0.000714
 Sum of Mulliken charges =  -1.00000   1.00000

 Dipole moment (field-independent basis, Debye):
    X=             -7.0496    Y=             -4.7371    Z=              0.0120  Tot=              8.4934
 Quadrupole moment (field-independent basis, Debye-Ang):
   XX=           -146.5593   YY=           -148.7695   ZZ=           -120.0184
   XY=              8.1969   XZ=             -1.0927   YZ=             -0.8538

 Summary of Natural Population Analysis:

                                       Natural Population
                Natural  -----------------------------------------------
    Atom  No    Charge         Core      Valence    Rydberg      Total
 -----------------------------------------------------------------------
      C    1   -0.29985      0.99964     2.29490    0.00531     3.29985
      C    2    0.15959      0.99957     1.82801    0.01284     2.84041
      C    3   -0.16776      0.99947     2.16119    0.00709     3.16776
      C    4    0.26442      0.99953     1.72319    0.01286     2.73558
      N    5   -0.26544      0.99967     2.75621    0.00956     3.76544
      C    6    0.13353      0.99968     1.84674    0.02004     2.86647
      N    7   -0.24321      0.99967     2.73141    0.01212     3.74321
      N    8   -0.14440      0.99960     2.63120    0.01360     3.64440
      C    9    0.09415      0.99958     1.89137    0.01490     2.90585
      S   10   -0.14170      4.99959     3.12693    0.01518     8.14170
      C   11   -0.19761      0.99943     2.18885    0.00933     3.19761
      C   12    0.17100      0.99951     1.81584    0.01365     2.82900
      N   13   -0.18708      0.99963     2.67587    0.01157     3.68708
      C   14   -0.06018      0.99956     2.05324    0.00738     3.06018
      C   15   -0.27454      0.99964     2.26936    0.00554     3.27454
      C   16   -0.27639      0.99964     2.27120    0.00555     3.27639
      C   17   -0.28050      0.99965     2.27541    0.00544     3.28050
      H   18    0.10327      0.00000     0.39554    0.00119     0.39673
      H   19    0.09854      0.00000     0.40063    0.00083     0.40146
      H   20    0.10363      0.00000     0.39520    0.00118     0.39637
      H   21    0.12600      0.00000     0.37232    0.00168     0.37400
      H   22    0.07290      0.00000     0.42575    0.00135     0.42710
      H   23    0.10848      0.00000     0.39044    0.00108     0.39152
      H   24    0.21449      0.00000     0.28369    0.00182     0.28551
      H   25    0.10135      0.00000     0.39777    0.00088     0.39865
      H   26    0.09166      0.00000     0.40752    0.00082     0.40834
      H   27    0.10250      0.00000     0.39676    0.00074     0.39750
      H   28    0.10306      0.00000     0.39622    0.00072     0.39694
      H   29    0.09362      0.00000     0.40556    0.00082     0.40638
      H   30    0.09755      0.00000     0.40165    0.00080     0.40245
      H   31    0.10299      0.00000     0.39610    0.00090     0.39701
      H   32    0.10229      0.00000     0.39682    0.00089     0.39771
      H   33    0.09363      0.00000     0.40561    0.00076     0.40637
 =======================================================================
   * Total *   -0.00000     20.99307    44.80849    0.19844    66.00000

 Normal termination of Gaussian 16 at Mon Jan  4 10:59:55 2021.
