 Gaussian 16, Revision A.03,

 -----------------------------------------------------------
 # opt freq B3LYP/6-31G(d) empiricaldispersion=gd3bj scf=xqc
 -----------------------------------------------------------

 -------------------------------
 CID_149287648_JID_4227_neutraal
 -------------------------------
 Symbolic Z-matrix:
 Charge =  0 Multiplicity = 1

 SCF Done:  E(RB3LYP) =  -591.266750050     A.U. after   15 cycles
 SCF Done:  E(RB3LYP) =  -591.270073518     A.U. after   13 cycles
 SCF Done:  E(RB3LYP) =  -591.270495549     A.U. after   12 cycles
 SCF Done:  E(RB3LYP) =  -591.270799175     A.U. after   13 cycles
 SCF Done:  E(RB3LYP) =  -591.271148544     A.U. after   13 cycles
 SCF Done:  E(RB3LYP) =  -591.271149274     A.U. after   14 cycles
 SCF Done:  E(RB3LYP) =  -591.271395756     A.U. after   13 cycles
 SCF Done:  E(RB3LYP) =  -591.271633109     A.U. after   13 cycles
 SCF Done:  E(RB3LYP) =  -591.271765469     A.U. after   12 cycles
 SCF Done:  E(RB3LYP) =  -591.271816671     A.U. after   12 cycles
 SCF Done:  E(RB3LYP) =  -591.272029396     A.U. after   12 cycles
 SCF Done:  E(RB3LYP) =  -591.272033172     A.U. after   10 cycles
 SCF Done:  E(RB3LYP) =  -591.272033897     A.U. after   10 cycles
 SCF Done:  E(RB3LYP) =  -591.272034021     A.U. after    8 cycles
 SCF Done:  E(RB3LYP) =  -591.272034056     A.U. after    8 cycles
 Optimization completed.
    -- Stationary point found.
 Normal termination of Gaussian 16 at Thu Dec 10 09:24:16 2020.

 --------------------------------------------------------------------
 #N Geom=AllCheck Guess=TCheck SCRF=Check GenChk RB3LYP/6-31G(d) Freq
 --------------------------------------------------------------------

 Structure from the checkpoint file:  "JID_4227.chk"
 -------------------------------
 CID_149287648_JID_4227_neutraal
 -------------------------------
 Charge =  0 Multiplicity = 1

 SCF Done:  E(RB3LYP) =  -591.272034056     A.U. after    1 cycles

  Exact polarizability: 244.872  -1.234 120.562  -0.978   0.914  74.889
 Approx polarizability: 353.143  -8.924 198.313  -7.591   5.580 115.118

                      1                      2                      3
                      A                      A                      A
 Frequencies --     49.4492                59.9622                89.2213
 Red. masses --      4.2165                 4.6965                 3.3866
 Frc consts  --      0.0061                 0.0099                 0.0159
 IR Inten    --      1.4023                 5.7656                 6.7923

                      4                      5                      6
                      A                      A                      A
 Frequencies --     98.6597               150.8460               158.4854
 Red. masses --      3.1542                 1.6330                 2.8192
 Frc consts  --      0.0181                 0.0219                 0.0417
 IR Inten    --      3.3389                 0.8416                 2.8324

                      7                      8                      9
                      A                      A                      A
 Frequencies --    189.1919               214.2435               215.2319
 Red. masses --      2.0100                 1.9110                 1.4073
 Frc consts  --      0.0424                 0.0517                 0.0384
 IR Inten    --      1.8488                 1.6729                 3.2670

                     10                     11                     12
                      A                      A                      A
 Frequencies --    238.1601               240.8849               281.9364
 Red. masses --      1.7083                 1.9275                 4.0875
 Frc consts  --      0.0571                 0.0659                 0.1914
 IR Inten    --      0.3699                 0.2908                 0.8681

                     13                     14                     15
                      A                      A                      A
 Frequencies --    339.3012               348.5453               370.1586
 Red. masses --      2.9567                 3.6295                 4.1745
 Frc consts  --      0.2006                 0.2598                 0.3370
 IR Inten    --     15.8940                 4.7949                12.3136

                     16                     17                     18
                      A                      A                      A
 Frequencies --    422.3950               444.8612               477.6419
 Red. masses --      3.1118                 2.6631                 2.7388
 Frc consts  --      0.3271                 0.3105                 0.3681
 IR Inten    --     93.8198                28.7119                54.9836

                     19                     20                     21
                      A                      A                      A
 Frequencies --    519.8615               570.5370               582.9866
 Red. masses --      4.1977                 5.2248                 4.1385
 Frc consts  --      0.6684                 1.0020                 0.8287
 IR Inten    --     20.3047                 6.1366                 8.0361

                     22                     23                     24
                      A                      A                      A
 Frequencies --    596.4172               604.1220               633.7678
 Red. masses --      4.8833                 3.1373                 3.1671
 Frc consts  --      1.0234                 0.6746                 0.7495
 IR Inten    --      0.5486                 0.1313                17.8059

                     25                     26                     27
                      A                      A                      A
 Frequencies --    716.4688               752.4138               779.5570
 Red. masses --      3.9075                 4.3215                 3.7761
 Frc consts  --      1.1818                 1.4414                 1.3520
 IR Inten    --      8.4069                 0.3208                 3.7728

                     28                     29                     30
                      A                      A                      A
 Frequencies --    821.2974               832.0919               857.7716
 Red. masses --      3.0695                 1.8774                 1.4772
 Frc consts  --      1.2199                 0.7659                 0.6404
 IR Inten    --      8.8504                14.1697                23.0006

                     31                     32                     33
                      A                      A                      A
 Frequencies --    941.0177               950.8519              1012.8792
 Red. masses --      1.5465                 2.5382                 1.9315
 Frc consts  --      0.8069                 1.3521                 1.1675
 IR Inten    --      0.2427                 1.1075                12.5207

                     34                     35                     36
                      A                      A                      A
 Frequencies --   1028.5962              1065.2658              1074.0830
 Red. masses --      1.5769                 1.5686                 1.4789
 Frc consts  --      0.9830                 1.0488                 1.0052
 IR Inten    --      1.1764                 0.8708                 2.7027

                     37                     38                     39
                      A                      A                      A
 Frequencies --   1101.3656              1148.0168              1161.1623
 Red. masses --      1.8376                 1.8733                 1.3172
 Frc consts  --      1.3133                 1.4547                 1.0464
 IR Inten    --      6.0789                 6.5190                24.5873

                     40                     41                     42
                      A                      A                      A
 Frequencies --   1195.7673              1211.4036              1234.2585
 Red. masses --      2.1372                 1.5448                 4.2900
 Frc consts  --      1.8005                 1.3357                 3.8506
 IR Inten    --     24.9912                 4.5128                45.6296

                     43                     44                     45
                      A                      A                      A
 Frequencies --   1267.1985              1302.7923              1339.3458
 Red. masses --      2.7589                 1.6061                 5.0627
 Frc consts  --      2.6102                 1.6061                 5.3508
 IR Inten    --      3.2999                67.6686                 9.6376

                     46                     47                     48
                      A                      A                      A
 Frequencies --   1365.7013              1425.8136              1440.9988
 Red. masses --      2.8190                 1.2476                 2.0390
 Frc consts  --      3.0978                 1.4943                 2.4945
 IR Inten    --    120.0972                16.8980                 8.1255

                     49                     50                     51
                      A                      A                      A
 Frequencies --   1444.6135              1489.9482              1502.4898
 Red. masses --      1.3393                 1.2076                 1.0750
 Frc consts  --      1.6467                 1.5795                 1.4299
 IR Inten    --      1.4262                11.5569                 6.8565

                     52                     53                     54
                      A                      A                      A
 Frequencies --   1504.6029              1513.2971              1523.4783
 Red. masses --      1.0581                 1.0763                 1.0831
 Frc consts  --      1.4113                 1.4522                 1.4811
 IR Inten    --      4.0970                20.5810                12.6158

                     55                     56                     57
                      A                      A                      A
 Frequencies --   1527.1426              1540.1092              1549.7804
 Red. masses --      1.1742                 1.6833                 1.4247
 Frc consts  --      1.6135                 2.3524                 2.0161
 IR Inten    --      6.7566                 4.7935                 5.6781

                     58                     59                     60
                      A                      A                      A
 Frequencies --   1561.3941              1624.1326              1668.8665
 Red. masses --      1.5826                 4.4335                 6.0907
 Frc consts  --      2.2733                 6.8904                 9.9945
 IR Inten    --    183.2289                10.0942               170.4970

                     61                     62                     63
                      A                      A                      A
 Frequencies --   1697.9144              2349.3205              2999.7338
 Red. masses --      8.6081                12.6997                 1.0535
 Frc consts  --     14.6214                41.2980                 5.5851
 IR Inten    --     71.8977                12.4768                98.9421

                     64                     65                     66
                      A                      A                      A
 Frequencies --   3049.9969              3060.4143              3083.1685
 Red. masses --      1.0410                 1.0367                 1.0857
 Frc consts  --      5.7056                 5.7211                 6.0807
 IR Inten    --     22.7664                 7.9971                38.5838

                     67                     68                     69
                      A                      A                      A
 Frequencies --   3107.6708              3119.4346              3136.9700
 Red. masses --      1.0951                 1.1003                 1.1023
 Frc consts  --      6.2313                 6.3085                 6.3910
 IR Inten    --     20.8502                 6.0165                 9.0153

                     70                     71                     72
                      A                      A                      A
 Frequencies --   3141.8448              3161.0186              3165.5993
 Red. masses --      1.0995                 1.0894                 1.1021
 Frc consts  --      6.3948                 6.4132                 6.5072
 IR Inten    --     24.7734                25.0247                 2.3204

                     73                     74                     75
                      A                      A                      A
 Frequencies --   3204.7223              3225.8927              3601.0675
 Red. masses --      1.0882                 1.0929                 1.0760
 Frc consts  --      6.5847                 6.7010                 8.2210
 IR Inten    --      5.1840                15.0843                18.3378

 - Thermochemistry -
 -------------------
 Temperature   298.150 Kelvin.  Pressure   1.00000 Atm.
 Atom     1 has atomic number  6 and mass  12.00000

 Molecular mass:   187.11095 amu.
 Principal axes and moments of inertia in atomic units:
                           1         2         3
     Eigenvalues --   930.600285595.632416114.73887
           X            0.99983   0.01691   0.00689
           Y           -0.01684   0.99980  -0.01033
           Z           -0.00706   0.01021   0.99992
 This molecule is an asymmetric top.
 Rotational symmetry number  1.
 Warning -- assumption of classical behavior for rotation
           may cause significant error
 Rotational temperatures (Kelvin)      0.09307     0.01548     0.01416
 Rotational constants (GHZ):           1.93933     0.32253     0.29515
 Zero-point vibrational energy     583045.6 (Joules/Mol)
                                  139.35124 (Kcal/Mol)
 Warning -- explicit consideration of  23 degrees of freedom as
           vibrations may cause significant error
 Vibrational temperatures:     71.15    86.27   128.37   141.95   217.03
          (Kelvin)            228.03   272.20   308.25   309.67   342.66
                              346.58   405.64   488.18   501.48   532.58
                              607.73   640.06   687.22   747.96   820.88
                              838.79   858.11   869.20   911.85  1030.84
                             1082.56  1121.61  1181.66  1197.19  1234.14
                             1353.91  1368.06  1457.31  1479.92  1532.68
                             1545.37  1584.62  1651.74  1670.65  1720.44
                             1742.94  1775.82  1823.22  1874.43  1927.02
                             1964.94  2051.43  2073.28  2078.48  2143.70
                             2161.75  2164.79  2177.30  2191.95  2197.22
                             2215.87  2229.79  2246.50  2336.76  2401.13
                             2442.92  3380.15  4315.95  4388.27  4403.25
                             4435.99  4471.25  4488.17  4513.40  4520.41
                             4548.00  4554.59  4610.88  4641.34  5181.13

 Zero-point correction=                           0.222070 (Hartree/Particle)
 Thermal correction to Energy=                    0.236234
 Thermal correction to Enthalpy=                  0.237178
 Thermal correction to Gibbs Free Energy=         0.181287
 Sum of electronic and zero-point Energies=           -591.049964
 Sum of electronic and thermal Energies=              -591.035800
 Sum of electronic and thermal Enthalpies=            -591.034856
 Sum of electronic and thermal Free Energies=         -591.090747

                     E (Thermal)             CV                S
                      KCal/Mol        Cal/Mol-Kelvin    Cal/Mol-Kelvin
 Total                  148.239             52.698            117.633
 Electronic               0.000              0.000              0.000
 Translational            0.889              2.981             41.586
 Rotational               0.889              2.981             31.832
 Vibrational            146.461             46.736             44.215
 Vibration     1          0.595              1.978              4.839
 Vibration     2          0.597              1.973              4.458
 Vibration     3          0.602              1.957              3.677
 Vibration     4          0.604              1.950              3.481
 Vibration     5          0.618              1.902              2.662
 Vibration     6          0.621              1.893              2.568
 Vibration     7          0.633              1.855              2.236
 Vibration     8          0.644              1.819              2.007
 Vibration     9          0.645              1.818              1.999
 Vibration    10          0.656              1.782              1.817
 Vibration    11          0.658              1.778              1.796
 Vibration    12          0.681              1.707              1.522
 Vibration    13          0.719              1.597              1.215
 Vibration    14          0.726              1.578              1.173
 Vibration    15          0.742              1.534              1.079
 Vibration    16          0.785              1.422              0.884
 Vibration    17          0.804              1.372              0.811
 Vibration    18          0.834              1.300              0.716
 Vibration    19          0.875              1.206              0.610
 Vibration    20          0.927              1.095              0.503
 Vibration    21          0.940              1.068              0.480
 Vibration    22          0.954              1.039              0.456
 Vibration    23          0.963              1.023              0.443

 Optimization completed.
    -- Stationary point found.
 Normal termination of Gaussian 16 at Thu Dec 10 09:30:44 2020.

 ----------------------------------------------------------------------
 # B3LYP/6-311++G(d,p) empiricaldispersion=gd3bj scf=xqc pop=npa geom=c
 heck
 ----------------------------------------------------------------------

 ---------------------------------------
 CID_149287648_JID_4227_Energie_neutraal
 ---------------------------------------
 Structure from the checkpoint file:  "JID_4227.chk"
 Charge =  0 Multiplicity = 1

 SCF Done:  E(RB3LYP) =  -591.431519106     A.U. after   16 cycles
 Normal termination of Gaussian 16 at Thu Dec 10 09:33:51 2020.

 ----------------------------------------------------------------------
 # B3LYP/6-311++G(d,p) empiricaldispersion=gd3bj scf=xqc pop=npa geom=c
 heck
 ----------------------------------------------------------------------

 -------------------------------------
 CID_149287648_JID_4227_Energie_kation
 -------------------------------------
 Structure from the checkpoint file:  "JID_4227.chk"
 Charge =  1 Multiplicity = 2

 SCF Done:  E(UB3LYP) =  -591.165103317     A.U. after   22 cycles
 Normal termination of Gaussian 16 at Thu Dec 10 09:39:50 2020.
 Gaussian 16:  ES64L-G16RevA.03 25-Dec-2016

 ----------------------------------------------------------------------
 # B3LYP/6-311++G(d,p) empiricaldispersion=gd3bj scf=xqc pop=npa geom=c
 heck
 ----------------------------------------------------------------------

 ------------------------------------
 CID_149287648_JID_4227_Energie_anion
 ------------------------------------
 Structure from the checkpoint file:  "JID_4227.chk"
 Charge = -1 Multiplicity = 2

                         Standard orientation:
 ---------------------------------------------------------------------
 Center     Atomic      Atomic             Coordinates (Angstroms)
 Number     Number       Type             X           Y           Z
 ---------------------------------------------------------------------
      1          6           0        0.702411    2.174495   -0.588533
      2          6           0       -0.172541    0.972333   -0.324793
      3          6           0        0.337643   -0.346837   -0.307121
      4          6           0       -0.554989   -1.420780   -0.183039
      5          6           0       -1.913349   -1.221170    0.016468
      6          6           0       -2.434454    0.085671    0.040420
      7          6           0       -1.544740    1.154698   -0.159288
      8          7           0       -3.781020    0.341170    0.262235
      9          6           0       -4.777052   -0.705268    0.137242
     10          7           0        1.690929   -0.669888   -0.530992
     11          6           0        2.627610   -0.235163    0.226925
     12          6           0        2.522922    0.568550    1.501176
     13          6           0        3.979854   -0.604031   -0.150926
     14          7           0        5.083846   -0.857990   -0.411049
     15          1           0        1.075850    2.623746    0.340056
     16          1           0        1.571182    1.916979   -1.201153
     17          1           0        0.136280    2.949176   -1.114680
     18          1           0       -0.153182   -2.428143   -0.228718
     19          1           0       -2.566536   -2.078211    0.132946
     20          1           0       -1.941621    2.168076   -0.189090
     21          1           0       -4.083898    1.251259   -0.056707
     22          1           0       -5.767223   -0.263630    0.272583
     23          1           0       -4.750280   -1.219221   -0.837157
     24          1           0       -4.640504   -1.458137    0.921632
     25          1           0        3.135602    0.102992    2.280514
     26          1           0        2.903441    1.585569    1.352952
     27          1           0        1.484707    0.621515    1.834274
 ---------------------------------------------------------------------

 SCF Done:  E(UB3LYP) =  -591.444278358     A.U. after   33 cycles
 SCF Done:  E(UB3LYP) =  -591.444278362     a.u. after    2 cycles

 The electronic state is 2-A.
 Alpha  occ. eigenvalues --  -14.21829 -14.14572 -14.14100 -10.10532 -10.08975
 Alpha  occ. eigenvalues --  -10.06787 -10.06583 -10.05954 -10.05457 -10.04984
 Alpha  occ. eigenvalues --  -10.04931 -10.04582 -10.04443 -10.04119  -0.83050
 Alpha  occ. eigenvalues --   -0.79095  -0.74599  -0.71792  -0.65319  -0.63702
 Alpha  occ. eigenvalues --   -0.60976  -0.57141  -0.56862  -0.51097  -0.48045
 Alpha  occ. eigenvalues --   -0.45147  -0.41732  -0.38388  -0.37233  -0.34733
 Alpha  occ. eigenvalues --   -0.33166  -0.32563  -0.32036  -0.31404  -0.30070
 Alpha  occ. eigenvalues --   -0.29931  -0.29013  -0.28149  -0.27015  -0.25397
 Alpha  occ. eigenvalues --   -0.24951  -0.23010  -0.21807  -0.21240  -0.19323
 Alpha  occ. eigenvalues --   -0.18032  -0.15392  -0.13123  -0.12888  -0.06869
 Alpha  occ. eigenvalues --    0.04011
 Alpha virt. eigenvalues --    0.05393   0.07759   0.08469   0.09289   0.10024
 Alpha virt. eigenvalues --    0.10247   0.10534   0.11543   0.12421   0.12682
 Alpha virt. eigenvalues --    0.13059   0.13607   0.13937   0.15006   0.15364

  Beta  occ. eigenvalues --  -14.21816 -14.14231 -14.13499 -10.10506 -10.08890
  Beta  occ. eigenvalues --  -10.06607 -10.06381 -10.05903 -10.05458 -10.05001
  Beta  occ. eigenvalues --  -10.04954 -10.04619 -10.04460 -10.04014  -0.82985
  Beta  occ. eigenvalues --   -0.78182  -0.74117  -0.71522  -0.65236  -0.63420
  Beta  occ. eigenvalues --   -0.60645  -0.57086  -0.56785  -0.50616  -0.47764
  Beta  occ. eigenvalues --   -0.44868  -0.41666  -0.38263  -0.36942  -0.34644
  Beta  occ. eigenvalues --   -0.32975  -0.32196  -0.31915  -0.31260  -0.29997
  Beta  occ. eigenvalues --   -0.29481  -0.28926  -0.28084  -0.26882  -0.25221
  Beta  occ. eigenvalues --   -0.24784  -0.22678  -0.21111  -0.20019  -0.18907
  Beta  occ. eigenvalues --   -0.17823  -0.13432  -0.12900  -0.11962  -0.06341
  Beta virt. eigenvalues --    0.05887   0.07682   0.08508   0.09312   0.10062
  Beta virt. eigenvalues --    0.10092   0.10385   0.11061   0.11552   0.12412
  Beta virt. eigenvalues --    0.12685   0.13090   0.13903   0.14256   0.14954

 Mulliken charges and spin densities:
               1          2
     1  C   -0.543494   0.000610
     2  C    1.678622   0.023024
     3  C   -1.873823  -0.013094
     4  C   -0.053930  -0.024071
     5  C    0.648184  -0.313886
     6  C   -0.862716   0.186970
     7  C   -0.350429   0.174222
     8  N   -0.160597   0.062156
     9  C    0.176931  -0.568253
    10  N    0.090863   0.271895
    11  C    0.868023   0.303212
    12  C   -0.667899  -0.027116
    13  C   -0.741858  -0.056433
    14  N   -0.367614   0.186362
    15  H    0.144644   0.006037
    16  H    0.195488   0.005271
    17  H    0.121493   0.003856
    18  H    0.163192  -0.003693
    19  H    0.107479   0.022891
    20  H    0.088796   0.019549
    21  H    0.207784   0.018693
    22  H   -0.370840   0.499998
    23  H    0.024801   0.115446
    24  H    0.072329   0.071693
    25  H    0.151703   0.009056
    26  H    0.124924   0.028862
    27  H    0.127945  -0.003258
 Sum of Mulliken charges =  -1.00000   1.00000

 Dipole moment (field-independent basis, Debye):
    X=             -7.5490    Y=              3.6084    Z=              1.6109  Tot=              8.5207
 Quadrupole moment (field-independent basis, Debye-Ang):
   XX=           -179.3863   YY=            -93.3954   ZZ=            -97.1061
   XY=              9.3891   XZ=             10.1042   YZ=             -3.9114

 Summary of Natural Population Analysis:

                                       Natural Population
                Natural  -----------------------------------------------
    Atom  No    Charge         Core      Valence    Rydberg      Total
 -----------------------------------------------------------------------
      C    1   -0.29537      0.99964     2.29071    0.00502     3.29537
      C    2   -0.01583      0.99947     2.00824    0.00811     3.01583
      C    3    0.05299      0.99941     1.93522    0.01237     2.94701
      C    4   -0.07401      0.99952     2.06527    0.00921     3.07401
      C    5   -0.14382      0.99953     2.13631    0.00798     3.14382
      C    6    0.08969      0.99949     1.89966    0.01115     2.91031
      C    7   -0.12929      0.99949     2.12214    0.00766     3.12929
      N    8   -0.31562      0.99968     2.80528    0.01066     3.81562
      C    9   -0.17959      0.99966     2.17112    0.00881     3.17959
      N   10   -0.13368      0.99961     2.62236    0.01172     3.63368
      C   11    0.13150      0.99948     1.85413    0.01489     2.86850
      C   12   -0.31427      0.99965     2.31030    0.00433     3.31427
      C   13    0.13659      0.99963     1.84433    0.01945     2.86341
      N   14   -0.16276      0.99979     2.65105    0.01192     3.66276
      H   15    0.10039      0.00000     0.39850    0.00111     0.39961
      H   16    0.11165      0.00000     0.38738    0.00097     0.38835
      H   17    0.09451      0.00000     0.40456    0.00093     0.40549
      H   18    0.09972      0.00000     0.39891    0.00137     0.40028
      H   19    0.09702      0.00000     0.40189    0.00109     0.40298
      H   20    0.08822      0.00000     0.41012    0.00165     0.41178
      H   21    0.17873      0.00000     0.31876    0.00251     0.32127
      H   22    0.09542      0.00000     0.40357    0.00101     0.40458
      H   23    0.08462      0.00000     0.41365    0.00173     0.41538
      H   24    0.09100      0.00000     0.40761    0.00139     0.40900
      H   25    0.10415      0.00000     0.39493    0.00092     0.39585
      H   26    0.10338      0.00000     0.39555    0.00108     0.39662
      H   27    0.10466      0.00000     0.39455    0.00079     0.39534
 =======================================================================
   * Total *   -0.00000     13.99407    35.84609    0.15984    50.00000

 Normal termination of Gaussian 16 at Thu Dec 10 09:56:02 2020.
