 Gaussian 16, Revision A.03,

 -----------------------------------------------------------
 # opt freq B3LYP/6-31G(d) empiricaldispersion=gd3bj scf=xqc
 -----------------------------------------------------------

 ------------------------------
 CID_10751164_JID_6475_neutraal
 ------------------------------
 Symbolic Z-matrix:
 Charge =  0 Multiplicity = 1

 SCF Done:  E(RB3LYP) =  -708.302848864     A.U. after   15 cycles
 SCF Done:  E(RB3LYP) =  -708.306845688     A.U. after   14 cycles
 SCF Done:  E(RB3LYP) =  -708.306818307     A.U. after   14 cycles
 SCF Done:  E(RB3LYP) =  -708.308790260     A.U. after   14 cycles
 SCF Done:  E(RB3LYP) =  -708.303735058     A.U. after   15 cycles
 SCF Done:  E(RB3LYP) =  -708.310040620     A.U. after   14 cycles
 SCF Done:  E(RB3LYP) =  -708.310201890     A.U. after   13 cycles
 SCF Done:  E(RB3LYP) =  -708.308406035     A.U. after   13 cycles
 SCF Done:  E(RB3LYP) =  -708.310390721     A.U. after   14 cycles
 SCF Done:  E(RB3LYP) =  -708.310666581     A.U. after   12 cycles
 SCF Done:  E(RB3LYP) =  -708.310723278     A.U. after   12 cycles
 SCF Done:  E(RB3LYP) =  -708.310749585     A.U. after   10 cycles
 SCF Done:  E(RB3LYP) =  -708.310751579     A.U. after   10 cycles
 SCF Done:  E(RB3LYP) =  -708.310752804     A.U. after    8 cycles
 SCF Done:  E(RB3LYP) =  -708.310752860     A.U. after    8 cycles
 SCF Done:  E(RB3LYP) =  -708.310752954     A.U. after    7 cycles
 Optimization completed.
    -- Stationary point found.
 Normal termination of Gaussian 16 at Thu Dec 10 23:12:43 2020.

 --------------------------------------------------------------------
 #N Geom=AllCheck Guess=TCheck SCRF=Check GenChk RB3LYP/6-31G(d) Freq
 --------------------------------------------------------------------

 Structure from the checkpoint file:  "JID_6475.chk"
 ------------------------------
 CID_10751164_JID_6475_neutraal
 ------------------------------
 Charge =  0 Multiplicity = 1

 SCF Done:  E(RB3LYP) =  -708.310752954     A.U. after    1 cycles

  Exact polarizability: 325.822 -29.418 146.580  -5.082  -7.922  75.287
 Approx polarizability: 462.279 -59.990 267.750  -7.644 -25.460 119.977

                      1                      2                      3
                      A                      A                      A
 Frequencies --     33.2598                43.9873                51.9574
 Red. masses --      4.6057                 4.3979                 4.6221
 Frc consts  --      0.0030                 0.0050                 0.0074
 IR Inten    --      0.2965                 0.4226                 0.6850

                      4                      5                      6
                      A                      A                      A
 Frequencies --     66.2728                99.9166               136.6876
 Red. masses --      6.5726                 3.0989                 4.6247
 Frc consts  --      0.0170                 0.0182                 0.0509
 IR Inten    --      0.0785                 1.0738                 1.7108

                      7                      8                      9
                      A                      A                      A
 Frequencies --    168.7458               199.0208               210.9463
 Red. masses --      2.8255                 2.4901                 2.8383
 Frc consts  --      0.0474                 0.0581                 0.0744
 IR Inten    --      1.3659                 0.4538                 1.8771

                     10                     11                     12
                      A                      A                      A
 Frequencies --    229.2815               243.5470               266.4204
 Red. masses --      1.4083                 1.8935                 2.8122
 Frc consts  --      0.0436                 0.0662                 0.1176
 IR Inten    --      0.6630                 0.4465                 0.0679

                     13                     14                     15
                      A                      A                      A
 Frequencies --    323.0192               355.6737               366.8995
 Red. masses --      4.3960                 3.8832                 2.9021
 Frc consts  --      0.2702                 0.2894                 0.2302
 IR Inten    --      1.7733                 0.6906                 0.0314

                     16                     17                     18
                      A                      A                      A
 Frequencies --    423.4955               428.9297               447.5362
 Red. masses --      3.2934                 3.1439                 5.1757
 Frc consts  --      0.3480                 0.3408                 0.6108
 IR Inten    --      0.0361                 0.0707                 2.3616

                     19                     20                     21
                      A                      A                      A
 Frequencies --    473.4836               521.8441               539.6679
 Red. masses --      4.3639                 2.9496                 6.0647
 Frc consts  --      0.5764                 0.4733                 1.0407
 IR Inten    --      6.3044                 6.1326                 2.4484

                     22                     23                     24
                      A                      A                      A
 Frequencies --    551.6434               633.3639               636.0942
 Red. masses --      1.6947                 2.2115                 2.1182
 Frc consts  --      0.3038                 0.5227                 0.5050
 IR Inten    --      0.5083                 1.2235                10.9697

                     25                     26                     27
                      A                      A                      A
 Frequencies --    649.9537               676.8304               708.4661
 Red. masses --      6.3304                 6.4545                 4.1856
 Frc consts  --      1.5756                 1.7421                 1.2378
 IR Inten    --      1.9434                 2.4399                11.0186

                     28                     29                     30
                      A                      A                      A
 Frequencies --    748.1064               775.9488               831.5164
 Red. masses --      3.7814                 4.3233                 4.8582
 Frc consts  --      1.2469                 1.5337                 1.9791
 IR Inten    --     15.7800                 4.0845                22.1663

                     31                     32                     33
                      A                      A                      A
 Frequencies --    852.8085               865.6138               877.3158
 Red. masses --      1.3114                 1.6832                 1.3494
 Frc consts  --      0.5619                 0.7431                 0.6119
 IR Inten    --      2.4924                 6.6638                58.3901

                     34                     35                     36
                      A                      A                      A
 Frequencies --    878.8271               910.1967               951.0228
 Red. masses --      4.4803                 1.7043                 2.2062
 Frc consts  --      2.0388                 0.8319                 1.1756
 IR Inten    --     31.8874                47.1586                 2.6324

                     37                     38                     39
                      A                      A                      A
 Frequencies --    983.5333               994.9368              1026.0665
 Red. masses --      1.3291                 1.3026                 1.4985
 Frc consts  --      0.7575                 0.7597                 0.9295
 IR Inten    --      0.0195                 0.2826                 0.1114

                     40                     41                     42
                      A                      A                      A
 Frequencies --   1031.3326              1036.8037              1067.0020
 Red. masses --      1.7947                 2.2787                 1.3908
 Frc consts  --      1.1247                 1.4432                 0.9329
 IR Inten    --      0.2796                 0.5360                 5.1002

                     43                     44                     45
                      A                      A                      A
 Frequencies --   1076.8310              1124.7070              1139.5644
 Red. masses --      1.5336                 1.8472                 2.8428
 Frc consts  --      1.0478                 1.3767                 2.1751
 IR Inten    --      7.2190                16.0880                91.2323

                     46                     47                     48
                      A                      A                      A
 Frequencies --   1144.1208              1220.6363              1250.8640
 Red. masses --      1.3240                 1.2917                 3.1514
 Frc consts  --      1.0212                 1.1339                 2.9052
 IR Inten    --      8.1771                 8.6218                 2.5216

                     49                     50                     51
                      A                      A                      A
 Frequencies --   1257.7761              1328.7884              1341.9832
 Red. masses --      2.9268                 2.7313                 1.4758
 Frc consts  --      2.7281                 2.8414                 1.5659
 IR Inten    --      6.0075                13.1298                 1.8254

                     52                     53                     54
                      A                      A                      A
 Frequencies --   1371.1288              1392.7312              1413.6058
 Red. masses --      5.6715                13.1043                 1.5164
 Frc consts  --      6.2821                14.9761                 1.7854
 IR Inten    --      6.0569               706.9268                 5.1902

                     55                     56                     57
                      A                      A                      A
 Frequencies --   1433.4386              1446.4072              1460.8185
 Red. masses --      1.2557                 1.5379                 2.2898
 Frc consts  --      1.5202                 1.8957                 2.8790
 IR Inten    --      3.2915                 3.5106                 6.8376

                     58                     59                     60
                      A                      A                      A
 Frequencies --   1491.9777              1514.7083              1516.4095
 Red. masses --      1.3365                 1.0669                 1.0454
 Frc consts  --      1.7528                 1.4422                 1.4163
 IR Inten    --      0.3528                10.9739                 7.7533

                     61                     62                     63
                      A                      A                      A
 Frequencies --   1526.5680              1534.0317              1543.0042
 Red. masses --      1.0616                 1.1496                 2.2564
 Frc consts  --      1.4577                 1.5940                 3.1652
 IR Inten    --     14.2371                 9.5062                 6.7811

                     64                     65                     66
                      A                      A                      A
 Frequencies --   1606.0972              1651.7960              1661.4946
 Red. masses --      9.2404                 5.8778                 8.8158
 Frc consts  --     14.0438                 9.4488                14.3386
 IR Inten    --    108.9984               190.8994                98.0404

                     67                     68                     69
                      A                      A                      A
 Frequencies --   1681.4007              2046.5802              3047.4018
 Red. masses --      6.1027                10.3626                 1.0383
 Frc consts  --     10.1652                25.5726                 5.6810
 IR Inten    --     50.6959                89.3816                17.4339

                     70                     71                     72
                      A                      A                      A
 Frequencies --   3050.3689              3103.2060              3117.3717
 Red. masses --      1.0467                 1.1016                 1.0891
 Frc consts  --      5.7383                 6.2500                 6.2360
 IR Inten    --     15.7918                17.7503                14.4071

                     73                     74                     75
                      A                      A                      A
 Frequencies --   3131.2570              3151.3494              3156.7440
 Red. masses --      1.0578                 1.0997                 1.1016
 Frc consts  --      6.1107                 6.4344                 6.4679
 IR Inten    --     13.5872                16.1549                12.1976

                     76                     77                     78
                      A                      A                      A
 Frequencies --   3189.3123              3196.9742              3198.5323
 Red. masses --      1.0865                 1.1150                 1.0897
 Frc consts  --      6.5116                 6.7141                 6.5686
 IR Inten    --      5.1665                 3.8770                13.5749

                     79                     80                     81
                      A                      A                      A
 Frequencies --   3236.0955              3253.1906              3254.1004
 Red. masses --      1.0886                 1.0924                 1.0938
 Frc consts  --      6.7166                 6.8116                 6.8241
 IR Inten    --      4.1083                 0.2210                 0.9282

 - Thermochemistry -
 -------------------
 Temperature   298.150 Kelvin.  Pressure   1.00000 Atm.
 Atom     1 has atomic number  6 and mass  12.00000

 Molecular mass:   215.09463 amu.
 Principal axes and moments of inertia in atomic units:
                           1         2         3
     Eigenvalues --   995.747769443.87069**********
           X            1.00000  -0.00194  -0.00019
           Y            0.00195   0.99995   0.01007
           Z            0.00017  -0.01007   0.99995
 This molecule is an asymmetric top.
 Rotational symmetry number  1.
 Warning -- assumption of classical behavior for rotation
           may cause significant error
 Rotational temperatures (Kelvin)      0.08698     0.00917     0.00847
 Rotational constants (GHZ):           1.81245     0.19110     0.17648
 Zero-point vibrational energy     607591.4 (Joules/Mol)
                                  145.21783 (Kcal/Mol)
 Warning -- explicit consideration of  22 degrees of freedom as
           vibrations may cause significant error
 Vibrational temperatures:     47.85    63.29    74.76    95.35   143.76
          (Kelvin)            196.66   242.79   286.35   303.50   329.88
                              350.41   383.32   464.75   511.74   527.89
                              609.32   617.13   643.90   681.24   750.82
                              776.46   793.69   911.27   915.20   935.14
                              973.81  1019.32  1076.36  1116.42  1196.37
                             1227.00  1245.43  1262.26  1264.44  1309.57
                             1368.31  1415.09  1431.49  1476.28  1483.86
                             1491.73  1535.18  1549.32  1618.20  1639.58
                             1646.13  1756.22  1799.71  1809.66  1911.83
                             1930.81  1972.75  2003.83  2033.86  2062.40
                             2081.06  2101.79  2146.62  2179.33  2181.77
                             2196.39  2207.13  2220.04  2310.82  2376.57
                             2390.52  2419.16  2944.57  4384.53  4388.80
                             4464.82  4485.20  4505.18  4534.09  4541.85
                             4588.71  4599.73  4601.97  4656.02  4680.62
                             4681.92

 Zero-point correction=                           0.231419 (Hartree/Particle)
 Thermal correction to Energy=                    0.246636
 Thermal correction to Enthalpy=                  0.247580
 Thermal correction to Gibbs Free Energy=         0.187819
 Sum of electronic and zero-point Energies=           -708.079334
 Sum of electronic and thermal Energies=              -708.064117
 Sum of electronic and thermal Enthalpies=            -708.063173
 Sum of electronic and thermal Free Energies=         -708.122934

                     E (Thermal)             CV                S
                      KCal/Mol        Cal/Mol-Kelvin    Cal/Mol-Kelvin
 Total                  154.767             57.160            125.779
 Electronic               0.000              0.000              0.000
 Translational            0.889              2.981             42.001
 Rotational               0.889              2.981             32.930
 Vibrational            152.989             51.198             50.848
 Vibration     1          0.594              1.983              5.625
 Vibration     2          0.595              1.980              5.071
 Vibration     3          0.596              1.977              4.741
 Vibration     4          0.598              1.970              4.261
 Vibration     5          0.604              1.949              3.456
 Vibration     6          0.614              1.917              2.850
 Vibration     7          0.625              1.881              2.449
 Vibration     8          0.637              1.841              2.142
 Vibration     9          0.643              1.824              2.035
 Vibration    10          0.652              1.796              1.885
 Vibration    11          0.659              1.773              1.777
 Vibration    12          0.672              1.735              1.619
 Vibration    13          0.708              1.629              1.295
 Vibration    14          0.731              1.564              1.141
 Vibration    15          0.740              1.540              1.093
 Vibration    16          0.786              1.419              0.880
 Vibration    17          0.790              1.407              0.862
 Vibration    18          0.807              1.366              0.803
 Vibration    19          0.830              1.309              0.728
 Vibration    20          0.877              1.202              0.606
 Vibration    21          0.895              1.162              0.566
 Vibration    22          0.907              1.136              0.541

 Optimization completed.
    -- Stationary point found.
 Normal termination of Gaussian 16 at Thu Dec 10 23:20:29 2020.

 ----------------------------------------------------------------------
 # B3LYP/6-311++G(d,p) empiricaldispersion=gd3bj scf=xqc pop=npa geom=c
 heck
 ----------------------------------------------------------------------

 --------------------------------------
 CID_10751164_JID_6475_Energie_neutraal
 --------------------------------------
 Structure from the checkpoint file:  "JID_6475.chk"
 Charge =  0 Multiplicity = 1

 SCF Done:  E(RB3LYP) =  -708.504442805     A.U. after   16 cycles
 Normal termination of Gaussian 16 at Thu Dec 10 23:23:45 2020.

 ----------------------------------------------------------------------
 # B3LYP/6-311++G(d,p) empiricaldispersion=gd3bj scf=xqc pop=npa geom=c
 heck
 ----------------------------------------------------------------------

 ------------------------------------
 CID_10751164_JID_6475_Energie_kation
 ------------------------------------
 Structure from the checkpoint file:  "JID_6475.chk"
 Charge =  1 Multiplicity = 2

 SCF Done:  E(UB3LYP) =  -708.211705652     A.U. after   23 cycles
 Normal termination of Gaussian 16 at Thu Dec 10 23:29:57 2020.
 Gaussian 16:  ES64L-G16RevA.03 25-Dec-2016

 ----------------------------------------------------------------------
 # B3LYP/6-311++G(d,p) empiricaldispersion=gd3bj scf=xqc pop=npa geom=c
 heck
 ----------------------------------------------------------------------

 -----------------------------------
 CID_10751164_JID_6475_Energie_anion
 -----------------------------------
 Structure from the checkpoint file:  "JID_6475.chk"
 Charge = -1 Multiplicity = 2

                         Standard orientation:
 ---------------------------------------------------------------------
 Center     Atomic      Atomic             Coordinates (Angstroms)
 Number     Number       Type             X           Y           Z
 ---------------------------------------------------------------------
      1          6           0        2.136278   -1.560760   -0.453870
      2          6           0        2.284007   -0.114034   -0.050784
      3          6           0        1.235596    0.721074    0.157663
      4          6           0       -0.197044    0.424264    0.113402
      5          6           0       -1.079241    1.444871   -0.300617
      6          6           0       -2.449357    1.240344   -0.363478
      7          6           0       -2.958080   -0.002652    0.011932
      8          6           0       -2.125953   -1.027116    0.458213
      9          6           0       -0.755512   -0.807877    0.511347
     10          7           0       -4.402746   -0.230842   -0.047904
     11          8           0       -5.114859    0.698788   -0.431441
     12          8           0       -4.823224   -1.339499    0.287541
     13          6           0        3.662656    0.400552    0.092994
     14          6           0        4.703813   -0.381752   -0.128837
     15          6           0        5.750206   -1.132320   -0.336991
     16          6           0        3.907334    1.835824    0.521005
     17          1           0        1.171014   -1.752380   -0.925912
     18          1           0        2.232543   -2.230222    0.410706
     19          1           0        2.926671   -1.841176   -1.155302
     20          1           0        1.454514    1.767630    0.349072
     21          1           0       -0.670155    2.408588   -0.590176
     22          1           0       -3.128006    2.016394   -0.693922
     23          1           0       -2.561571   -1.968842    0.767316
     24          1           0       -0.114239   -1.588810    0.900372
     25          1           0        6.197077   -1.726662    0.459296
     26          1           0        6.221326   -1.200298   -1.316977
     27          1           0        3.485959    2.541179   -0.205360
     28          1           0        3.442332    2.041189    1.492227
     29          1           0        4.978192    2.032489    0.603319
 ---------------------------------------------------------------------

 SCF Done:  E(UB3LYP) =  -708.552757587     A.U. after   25 cycles

 The electronic state is 2-A.
 Alpha  occ. eigenvalues --  -18.96851 -18.96846 -14.35115 -10.09218 -10.08448
 Alpha  occ. eigenvalues --  -10.08328 -10.08121 -10.07167 -10.06865 -10.05863
 Alpha  occ. eigenvalues --  -10.05565 -10.05525 -10.05190 -10.05107 -10.04782
 Alpha  occ. eigenvalues --  -10.04781  -1.04734  -0.87575  -0.74695  -0.73425
 Alpha  occ. eigenvalues --   -0.68290  -0.65365  -0.63965  -0.62699  -0.59201
 Alpha  occ. eigenvalues --   -0.56205  -0.53840  -0.48880  -0.46198  -0.43840
 Alpha  occ. eigenvalues --   -0.40239  -0.39114  -0.38118  -0.36709  -0.35859
 Alpha  occ. eigenvalues --   -0.35662  -0.34669  -0.33259  -0.33150  -0.32094
 Alpha  occ. eigenvalues --   -0.31621  -0.31077  -0.30511  -0.29763  -0.26908
 Alpha  occ. eigenvalues --   -0.26291  -0.24915  -0.23518  -0.22273  -0.19501
 Alpha  occ. eigenvalues --   -0.17691  -0.15827  -0.15632  -0.14296  -0.13754
 Alpha  occ. eigenvalues --   -0.12308  -0.10445   0.00815
 Alpha virt. eigenvalues --    0.06500   0.07153   0.07702   0.08475   0.08987
 Alpha virt. eigenvalues --    0.09515   0.10065   0.10648   0.11029   0.11636
 Alpha virt. eigenvalues --    0.11805   0.12499   0.13121   0.13913   0.14406

  Beta  occ. eigenvalues --  -18.96468 -18.96461 -14.34689 -10.09269 -10.08445
  Beta  occ. eigenvalues --  -10.08355 -10.07940 -10.07038 -10.06643 -10.05878
  Beta  occ. eigenvalues --  -10.05579 -10.05320 -10.05208 -10.05124 -10.04698
  Beta  occ. eigenvalues --  -10.04692  -1.03955  -0.86854  -0.74436  -0.73199
  Beta  occ. eigenvalues --   -0.67956  -0.65047  -0.63794  -0.62482  -0.58918
  Beta  occ. eigenvalues --   -0.56171  -0.53279  -0.48808  -0.45777  -0.43634
  Beta  occ. eigenvalues --   -0.39987  -0.38745  -0.37971  -0.35703  -0.35412
  Beta  occ. eigenvalues --   -0.34429  -0.34265  -0.33133  -0.33012  -0.31978
  Beta  occ. eigenvalues --   -0.31407  -0.30935  -0.30452  -0.29693  -0.26832
  Beta  occ. eigenvalues --   -0.26120  -0.24384  -0.23293  -0.22176  -0.18942
  Beta  occ. eigenvalues --   -0.17619  -0.14880  -0.13903  -0.13646  -0.12454
  Beta  occ. eigenvalues --   -0.11926  -0.09462
  Beta virt. eigenvalues --    0.05884   0.06490   0.07690   0.08512   0.08924
  Beta virt. eigenvalues --    0.09312   0.09553   0.10099   0.10850   0.11528
  Beta virt. eigenvalues --    0.11673   0.11805   0.12549   0.13156   0.14125

 Mulliken charges and spin densities:
               1          2
     1  C   -0.866024  -0.009862
     2  C   -0.167023   0.122664
     3  C   -0.205766  -0.024656
     4  C    1.082244   0.144834
     5  C   -0.096563   0.011404
     6  C   -0.238995   0.113565
     7  C   -0.238179   0.010616
     8  C   -0.462525   0.107748
     9  C   -0.682432  -0.012820
    10  N   -0.262315   0.144345
    11  O   -0.161005   0.144059
    12  O   -0.145678   0.145456
    13  C    0.385822  -0.040224
    14  C    0.204355   0.117784
    15  C   -0.316213  -0.014447
    16  C   -0.675687   0.001867
    17  H    0.137438  -0.000020
    18  H    0.137393   0.010224
    19  H    0.119149   0.002226
    20  H    0.121248   0.005598
    21  H    0.125319   0.003576
    22  H    0.212964  -0.005696
    23  H    0.224048  -0.005012
    24  H    0.125065  -0.000482
    25  H    0.100823   0.015852
    26  H    0.102286   0.013243
    27  H    0.142027  -0.000396
    28  H    0.144262  -0.001249
    29  H    0.153963  -0.000196
 Sum of Mulliken charges =  -1.00000   1.00000

 Dipole moment (field-independent basis, Debye):
    X=             11.1585    Y=              1.2161    Z=              0.3365  Tot=             11.2296
 Quadrupole moment (field-independent basis, Debye-Ang):
   XX=           -201.9391   YY=           -102.5918   ZZ=           -102.0865
   XY=             -2.8545   XZ=             -0.5379   YZ=              0.3371

 Summary of Natural Population Analysis:

                                       Natural Population
                Natural  -----------------------------------------------
    Atom  No    Charge         Core      Valence    Rydberg      Total
 -----------------------------------------------------------------------
      C    1   -0.30223      0.99964     2.29824    0.00434     3.30223
      C    2    0.02638      0.99948     1.96573    0.00842     2.97362
      C    3   -0.09939      0.99943     2.09139    0.00857     3.09939
      C    4    0.00175      0.99951     1.99003    0.00870     2.99825
      C    5   -0.10275      0.99954     2.09495    0.00826     3.10275
      C    6   -0.08175      0.99953     2.07244    0.00978     3.08175
      C    7    0.05964      0.99939     1.92962    0.01135     2.94036
      C    8   -0.08140      0.99953     2.07204    0.00983     3.08140
      C    9   -0.10750      0.99954     2.10011    0.00786     3.10750
      N   10    0.28300      0.99972     2.18990    0.02738     3.21700
      O   11   -0.19629      0.99990     3.18850    0.00789     4.19629
      O   12   -0.19567      0.99990     3.18791    0.00787     4.19567
      C   13   -0.06902      0.99940     2.06211    0.00750     3.06902
      C   14    0.07446      0.99948     1.91701    0.00905     2.92554
      C   15   -0.24605      0.99945     2.24199    0.00461     3.24605
      C   16   -0.28685      0.99964     2.28269    0.00451     3.28685
      H   17    0.10936      0.00000     0.38967    0.00096     0.39064
      H   18    0.10117      0.00000     0.39781    0.00103     0.39883
      H   19    0.10338      0.00000     0.39568    0.00093     0.39662
      H   20    0.09347      0.00000     0.40512    0.00141     0.40653
      H   21    0.09240      0.00000     0.40620    0.00140     0.40760
      H   22    0.11230      0.00000     0.38641    0.00129     0.38770
      H   23    0.11241      0.00000     0.38632    0.00127     0.38759
      H   24    0.09698      0.00000     0.40173    0.00129     0.40302
      H   25    0.09858      0.00000     0.39948    0.00195     0.40142
      H   26    0.09847      0.00000     0.39964    0.00189     0.40153
      H   27    0.10106      0.00000     0.39781    0.00113     0.39894
      H   28    0.10218      0.00000     0.39663    0.00119     0.39782
      H   29    0.10189      0.00000     0.39731    0.00080     0.39811
 =======================================================================
   * Total *    0.00000     15.99308    40.84447    0.16245    57.00000

 Normal termination of Gaussian 16 at Thu Dec 10 23:36:50 2020.
