 Gaussian 16, Revision A.03,

 -----------------------------------------------------------
 # opt freq B3LYP/6-31G(d) empiricaldispersion=gd3bj scf=xqc
 -----------------------------------------------------------

 ------------------------------
 CID_45097056_JID_5280_neutraal
 ------------------------------
 Symbolic Z-matrix:
 Charge =  0 Multiplicity = 1

 SCF Done:  E(RB3LYP) =  -695.901196974     A.U. after   15 cycles
 SCF Done:  E(RB3LYP) =  -695.914102143     A.U. after   13 cycles
 SCF Done:  E(RB3LYP) =  -695.916406184     A.U. after   12 cycles
 SCF Done:  E(RB3LYP) =  -695.917884135     A.U. after   13 cycles
 SCF Done:  E(RB3LYP) =  -695.918833173     A.U. after   13 cycles
 SCF Done:  E(RB3LYP) =  -695.920316992     A.U. after   13 cycles
 SCF Done:  E(RB3LYP) =  -695.922141697     A.U. after   13 cycles
 SCF Done:  E(RB3LYP) =  -695.923008474     A.U. after   13 cycles
 SCF Done:  E(RB3LYP) =  -695.923697992     A.U. after   12 cycles
 SCF Done:  E(RB3LYP) =  -695.923899615     A.U. after   12 cycles
 SCF Done:  E(RB3LYP) =  -695.924812690     A.U. after   10 cycles
 SCF Done:  E(RB3LYP) =  -695.924831914     A.U. after   11 cycles
 SCF Done:  E(RB3LYP) =  -695.924840251     A.U. after    9 cycles
 SCF Done:  E(RB3LYP) =  -695.924844710     A.U. after    9 cycles
 SCF Done:  E(RB3LYP) =  -695.924845001     A.U. after    8 cycles
 SCF Done:  E(RB3LYP) =  -695.924845049     A.U. after    7 cycles
 Optimization completed.
    -- Stationary point found.

 1\1\GINC-NODE377\FOpt\RB3LYP\6-31G(d)\C8H13N7\VSC10255\10-Dec-2020\0\\
 # opt freq B3LYP/6-31G(d) empiricaldispersion=gd3bj scf=xqc\\CID_45097
 056_JID_5280_neutraal\\0,1\C,-1.0641155254,1.6596162502,-1.0675991822\
 C,-0.0176427322,0.9988683141,-0.2182099048\C,0.0151538443,-0.400304696
 1,-0.0285803349\N,1.0051992874,-0.957367475,0.6785858558\N,1.924546848
 4,-0.1953292363,1.2501100149\C,1.8197647426,1.1374392076,1.0900608947\
 N,0.9067192282,1.7774725586,0.3405717263\N,2.7727705179,1.8617238363,1
 .7665407155\N,2.8743920331,3.2371413185,1.6049430761\C,3.6561348706,3.

 Normal termination of Gaussian 16 at Thu Dec 10 15:45:55 2020.

 --------------------------------------------------------------------
 #N Geom=AllCheck Guess=TCheck SCRF=Check GenChk RB3LYP/6-31G(d) Freq
 --------------------------------------------------------------------

 Structure from the checkpoint file:  "JID_5280.chk"
 ------------------------------
 CID_45097056_JID_5280_neutraal
 ------------------------------
 Charge =  0 Multiplicity = 1

 SCF Done:  E(RB3LYP) =  -695.924845049     A.U. after    1 cycles

  Exact polarizability: 180.129  10.515 119.700   8.264  -3.969  89.665
 Approx polarizability: 241.354  21.567 196.145  23.181 -15.166 145.836

                      1                      2                      3
                      A                      A                      A
 Frequencies --     37.2497                43.1197                52.4072
 Red. masses --      4.3847                 4.0383                 3.9027
 Frc consts  --      0.0036                 0.0044                 0.0063
 IR Inten    --      0.0592                 0.3180                 1.3973

                      4                      5                      6
                      A                      A                      A
 Frequencies --     96.6356               122.2181               141.4802
 Red. masses --      4.6519                 1.0441                 2.0211
 Frc consts  --      0.0256                 0.0092                 0.0238
 IR Inten    --      2.1197                 0.3583                 4.7636

                      7                      8                      9
                      A                      A                      A
 Frequencies --    161.9011               174.5146               204.5676
 Red. masses --      1.0868                 4.1170                 4.4688
 Frc consts  --      0.0168                 0.0739                 0.1102
 IR Inten    --      0.3214                 6.8664                 4.0319

                     10                     11                     12
                      A                      A                      A
 Frequencies --    228.3416               287.2933               315.5834
 Red. masses --      3.5246                 2.5024                 3.9434
 Frc consts  --      0.1083                 0.1217                 0.2314
 IR Inten    --      6.0389                 0.9935                 5.6762

                     13                     14                     15
                      A                      A                      A
 Frequencies --    316.8684               344.5569               447.7454
 Red. masses --      4.6877                 4.1626                 6.0246
 Frc consts  --      0.2773                 0.2912                 0.7116
 IR Inten    --      2.4408                 5.4359                 2.7730

                     16                     17                     18
                      A                      A                      A
 Frequencies --    458.0790               480.8101               551.7352
 Red. masses --      3.3934                 1.9618                 3.7805
 Frc consts  --      0.4195                 0.2672                 0.6780
 IR Inten    --      1.6000                97.8662                31.8845

                     19                     20                     21
                      A                      A                      A
 Frequencies --    567.2311               584.9560               630.9617
 Red. masses --      1.7092                 4.2750                 2.3742
 Frc consts  --      0.3240                 0.8618                 0.5569
 IR Inten    --     73.2482                31.6002                46.3635

                     22                     23                     24
                      A                      A                      A
 Frequencies --    643.3540               695.9522               724.6903
 Red. masses --      3.9665                 3.0006                 4.2501
 Frc consts  --      0.9673                 0.8563                 1.3151
 IR Inten    --      9.3123                46.2844                76.1275

                     25                     26                     27
                      A                      A                      A
 Frequencies --    753.7094               776.9370               809.6726
 Red. masses --      6.8860                 2.8159                 6.0736
 Frc consts  --      2.3047                 1.0015                 2.3459
 IR Inten    --      1.0582                52.2335                31.6922

                     28                     29                     30
                      A                      A                      A
 Frequencies --    813.2695               835.7839               868.0033
 Red. masses --      3.3394                 2.6905                 1.5628
 Frc consts  --      1.3013                 1.1073                 0.6937
 IR Inten    --     33.4365                38.4221                 0.9790

                     31                     32                     33
                      A                      A                      A
 Frequencies --    924.5006               976.6328              1010.2387
 Red. masses --      3.3382                 2.1348                 2.8766
 Frc consts  --      1.6810                 1.1997                 1.7297
 IR Inten    --      1.7207                31.5979                 7.2452

                     34                     35                     36
                      A                      A                      A
 Frequencies --   1030.5727              1041.1051              1050.1627
 Red. masses --      2.4316                 3.1150                 1.4252
 Frc consts  --      1.5216                 1.9893                 0.9261
 IR Inten    --      8.4196                23.9960                 3.7658

                     37                     38                     39
                      A                      A                      A
 Frequencies --   1059.7124              1077.9937              1084.5537
 Red. masses --      2.7479                 3.3075                 1.6323
 Frc consts  --      1.8182                 2.2646                 1.1312
 IR Inten    --      9.6540                16.4929                 0.0128

                     40                     41                     42
                      A                      A                      A
 Frequencies --   1124.9874              1169.2689              1205.4533
 Red. masses --      1.7503                 5.4723                 4.4651
 Frc consts  --      1.3052                 4.4081                 3.8228
 IR Inten    --      3.9922                36.5497                31.2827

                     43                     44                     45
                      A                      A                      A
 Frequencies --   1220.4827              1234.9208              1257.3707
 Red. masses --      1.1761                 4.6314                 1.1129
 Frc consts  --      1.0322                 4.1614                 1.0367
 IR Inten    --      6.4792                12.3047                 0.8221

                     46                     47                     48
                      A                      A                      A
 Frequencies --   1311.2607              1325.6366              1340.1682
 Red. masses --      2.7979                 1.6186                 1.3489
 Frc consts  --      2.8344                 1.6758                 1.4274
 IR Inten    --     20.6774                22.0747                 5.9509

                     49                     50                     51
                      A                      A                      A
 Frequencies --   1376.7996              1389.9386              1425.3504
 Red. masses --      2.0513                 2.8840                 1.3226
 Frc consts  --      2.2910                 3.2827                 1.5831
 IR Inten    --    115.1936                69.1862                12.8213

                     52                     53                     54
                      A                      A                      A
 Frequencies --   1442.7104              1464.4270              1475.5203
 Red. masses --      1.3428                 1.6231                 1.7629
 Frc consts  --      1.6467                 2.0508                 2.2613
 IR Inten    --      8.0424                71.3170                33.5210

                     55                     56                     57
                      A                      A                      A
 Frequencies --   1497.1061              1504.6952              1508.0821
 Red. masses --      1.2836                 1.0769                 1.6623
 Frc consts  --      1.6951                 1.4365                 2.2275
 IR Inten    --     48.0000                 6.1066               107.5187

                     58                     59                     60
                      A                      A                      A
 Frequencies --   1516.0058              1518.3466              1535.3074
 Red. masses --      1.2962                 1.0475                 1.1139
 Frc consts  --      1.7551                 1.4228                 1.5470
 IR Inten    --     19.7057                24.5861                 7.8876

                     61                     62                     63
                      A                      A                      A
 Frequencies --   1559.1293              1570.8646              1587.7471
 Red. masses --      1.1614                 3.4244                 4.1358
 Frc consts  --      1.6635                 4.9786                 6.1428
 IR Inten    --      4.0924                86.8844                54.8831

                     64                     65                     66
                      A                      A                      A
 Frequencies --   1613.1574              1744.1096              3030.9812
 Red. masses --      4.9861                 5.8226                 1.0711
 Frc consts  --      7.6448                10.4356                 5.7974
 IR Inten    --    248.2744               365.3443                43.5457

                     67                     68                     69
                      A                      A                      A
 Frequencies --   3038.9966              3044.3858              3051.4796
 Red. masses --      1.0672                 1.0394                 1.0386
 Frc consts  --      5.8068                 5.6756                 5.6978
 IR Inten    --     71.1586                23.3997                 9.1420

                     70                     71                     72
                      A                      A                      A
 Frequencies --   3083.8505              3093.2123              3103.7725
 Red. masses --      1.0952                 1.1007                 1.0997
 Frc consts  --      6.1366                 6.2051                 6.2419
 IR Inten    --     50.2873                18.5982                 7.5443

                     73                     74                     75
                      A                      A                      A
 Frequencies --   3105.6121              3156.7852              3163.0197
 Red. masses --      1.1000                 1.0991                 1.1009
 Frc consts  --      6.2507                 6.4530                 6.4896
 IR Inten    --     50.4337                 6.2234                 7.4698

                     76                     77                     78
                      A                      A                      A
 Frequencies --   3527.1770              3537.6484              3582.3356
 Red. masses --      1.0759                 1.0763                 1.0764
 Frc consts  --      7.8862                 7.9359                 8.1386
 IR Inten    --     39.1153                49.6878                22.2669

 - Thermochemistry -
 -------------------
 Temperature   298.150 Kelvin.  Pressure   1.00000 Atm.
 Atom     1 has atomic number  6 and mass  12.00000

 Molecular mass:   207.12324 amu.
 Principal axes and moments of inertia in atomic units:
                           1         2         3
     Eigenvalues --  1323.007135619.360716224.29444
           X            0.99993   0.00940  -0.00735
           Y           -0.00938   0.99995   0.00198
           Z            0.00737  -0.00191   0.99997
 This molecule is an asymmetric top.
 Rotational symmetry number  1.
 Warning -- assumption of classical behavior for rotation
           may cause significant error
 Rotational temperatures (Kelvin)      0.06547     0.01541     0.01392
 Rotational constants (GHZ):           1.36412     0.32116     0.28995
 Zero-point vibrational energy     603295.9 (Joules/Mol)
                                  144.19119 (Kcal/Mol)
 Warning -- explicit consideration of  20 degrees of freedom as
           vibrations may cause significant error
 Vibrational temperatures:     53.59    62.04    75.40   139.04   175.84
          (Kelvin)            203.56   232.94   251.09   294.33   328.53
                              413.35   454.05   455.90   495.74   644.21
                              659.07   691.78   793.82   816.12   841.62
                              907.81   925.64  1001.32  1042.67  1084.42
                             1117.84  1164.94  1170.11  1202.51  1248.86
                             1330.15  1405.16  1453.51  1482.76  1497.92
                             1510.95  1524.69  1550.99  1560.43  1618.61
                             1682.32  1734.38  1756.00  1776.78  1809.08
                             1886.61  1907.30  1928.20  1980.91  1999.81
                             2050.76  2075.74  2106.98  2122.94  2154.00
                             2164.92  2169.79  2181.19  2184.56  2208.96
                             2243.24  2260.12  2284.41  2320.97  2509.38
                             4360.91  4372.44  4380.19  4390.40  4436.97
                             4450.44  4465.64  4468.28  4541.91  4550.88
                             5074.82  5089.89  5154.18

 Zero-point correction=                           0.229783 (Hartree/Particle)
 Thermal correction to Energy=                    0.243921
 Thermal correction to Enthalpy=                  0.244865
 Thermal correction to Gibbs Free Energy=         0.187558
 Sum of electronic and zero-point Energies=           -695.695062
 Sum of electronic and thermal Energies=              -695.680924
 Sum of electronic and thermal Enthalpies=            -695.679980
 Sum of electronic and thermal Free Energies=         -695.737287

                     E (Thermal)             CV                S
                      KCal/Mol        Cal/Mol-Kelvin    Cal/Mol-Kelvin
 Total                  153.063             52.367            120.612
 Electronic               0.000              0.000              0.000
 Translational            0.889              2.981             41.888
 Rotational               0.889              2.981             32.204
 Vibrational            151.285             46.405             46.520
 Vibration     1          0.594              1.982              5.400
 Vibration     2          0.595              1.980              5.110
 Vibration     3          0.596              1.977              4.724
 Vibration     4          0.603              1.952              3.521
 Vibration     5          0.610              1.931              3.065
 Vibration     6          0.615              1.912              2.784
 Vibration     7          0.622              1.889              2.527
 Vibration     8          0.627              1.874              2.386
 Vibration     9          0.640              1.833              2.092
 Vibration    10          0.651              1.798              1.892
 Vibration    11          0.684              1.697              1.490
 Vibration    12          0.703              1.644              1.333
 Vibration    13          0.704              1.641              1.326
 Vibration    14          0.723              1.586              1.191
 Vibration    15          0.807              1.366              0.803
 Vibration    16          0.816              1.343              0.772
 Vibration    17          0.837              1.293              0.708
 Vibration    18          0.907              1.136              0.541
 Vibration    19          0.923              1.102              0.510
 Vibration    20          0.942              1.064              0.476

                           ! Non-Optimized Parameters !

 1\1\GINC-NODE377\Freq\RB3LYP\6-31G(d)\C8H13N7\VSC10255\10-Dec-2020\0\\
 #N Geom=AllCheck Guess=TCheck SCRF=Check GenChk RB3LYP/6-31G(d) Freq\\
 CID_45097056_JID_5280_neutraal\\0,1\C,-1.0641155254,1.6596162502,-1.06
 75991822\C,-0.0176427322,0.9988683141,-0.2182099048\C,0.0151538443,-0.
 4003046961,-0.0285803349\N,1.0051992874,-0.957367475,0.6785858558\N,1.
 9245468484,-0.1953292363,1.2501100149\C,1.8197647426,1.1374392076,1.09
 00608947\N,0.9067192282,1.7774725586,0.3405717263\N,2.7727705179,1.861
 7238363,1.7665407155\N,2.8743920331,3.2371413185,1.6049430761\C,3.6561

 Normal termination of Gaussian 16 at Thu Dec 10 15:54:28 2020.

 ----------------------------------------------------------------------
 # B3LYP/6-311++G(d,p) empiricaldispersion=gd3bj scf=xqc pop=npa geom=c
 heck
 ----------------------------------------------------------------------

 --------------------------------------
 CID_45097056_JID_5280_Energie_neutraal
 --------------------------------------
 Structure from the checkpoint file:  "JID_5280.chk"
 Charge =  0 Multiplicity = 1

 SCF Done:  E(RB3LYP) =  -696.119132604     A.U. after   15 cycles
 Normal termination of Gaussian 16 at Thu Dec 10 15:57:49 2020.

 ----------------------------------------------------------------------
 # B3LYP/6-311++G(d,p) empiricaldispersion=gd3bj scf=xqc pop=npa geom=c
 heck
 ----------------------------------------------------------------------

 ------------------------------------
 CID_45097056_JID_5280_Energie_kation
 ------------------------------------
 Structure from the checkpoint file:  "JID_5280.chk"
 Charge =  1 Multiplicity = 2

 SCF Done:  E(UB3LYP) =  -695.827817198     A.U. after   28 cycles
 Normal termination of Gaussian 16 at Thu Dec 10 16:05:35 2020.
 Gaussian 16:  ES64L-G16RevA.03 25-Dec-2016

 -----------------------------------
 CID_45097056_JID_5280_Energie_anion
 -----------------------------------
 Structure from the checkpoint file:  "JID_5280.chk"
 Charge = -1 Multiplicity = 2

                         Standard orientation:
 ---------------------------------------------------------------------
 Center     Atomic      Atomic             Coordinates (Angstroms)
 Number     Number       Type             X           Y           Z
 ---------------------------------------------------------------------
      1          6           0        2.328735    2.092308   -1.014701
      2          6           0        2.067555    0.723735   -0.456178
      3          6           0        3.042952    0.022328    0.286349
      4          7           0        2.747222   -1.165583    0.826724
      5          7           0        1.559822   -1.713161    0.619887
      6          6           0        0.682265   -1.033965   -0.142644
      7          7           0        0.864812    0.191207   -0.662892
      8          7           0       -0.501698   -1.697124   -0.363743
      9          7           0       -1.554314   -1.080182   -1.026764
     10          6           0       -2.465080   -0.317879   -0.296937
     11          7           0       -3.725660   -0.318926   -0.526388
     12          6           0       -4.292141    0.690783    0.382556
     13          6           0       -3.076702    1.436166    1.011608
     14          7           0       -1.966925    0.513382    0.706098
     15          6           0        4.419971    0.563813    0.542955
     16          1           0        1.437296    2.457841   -1.527864
     17          1           0        2.605110    2.796489   -0.220561
     18          1           0        3.164951    2.070290   -1.724106
     19          1           0       -0.719580   -2.399688    0.337745
     20          1           0       -2.008456   -1.697801   -1.689018
     21          1           0       -4.888915    0.186434    1.154325
     22          1           0       -4.963932    1.369596   -0.153963
     23          1           0       -2.914673    2.413297    0.536296
     24          1           0       -3.178319    1.590793    2.089702
     25          1           0       -1.073020    0.938557    0.475823
     26          1           0        4.966902    0.736036   -0.392409
     27          1           0        4.386439    1.521255    1.077876
     28          1           0        4.978062   -0.154132    1.147644
 ---------------------------------------------------------------------

 SCF Done:  E(UB3LYP) =  -696.129213043     A.U. after   31 cycles

 The electronic state is 2-A.
 Alpha  occ. eigenvalues --  -14.24443 -14.22655 -14.21195 -14.17099 -14.14817
 Alpha  occ. eigenvalues --  -14.14684 -14.13457 -10.15081 -10.10722 -10.10479
 Alpha  occ. eigenvalues --  -10.09677 -10.04062 -10.03999 -10.03743 -10.03519
 Alpha  occ. eigenvalues --   -0.91407  -0.86848  -0.84334  -0.76009  -0.75028
 Alpha  occ. eigenvalues --   -0.72135  -0.66118  -0.62426  -0.59677  -0.56792
 Alpha  occ. eigenvalues --   -0.52124  -0.49077  -0.48862  -0.46585  -0.43935
 Alpha  occ. eigenvalues --   -0.41924  -0.38676  -0.38048  -0.36803  -0.33183
 Alpha  occ. eigenvalues --   -0.31518  -0.31206  -0.29980  -0.29350  -0.28308
 Alpha  occ. eigenvalues --   -0.27727  -0.27455  -0.26671  -0.26094  -0.25716
 Alpha  occ. eigenvalues --   -0.24847  -0.18981  -0.16886  -0.16266  -0.15958
 Alpha  occ. eigenvalues --   -0.15743  -0.14026  -0.11462  -0.08525  -0.05757
 Alpha  occ. eigenvalues --    0.05038
 Alpha virt. eigenvalues --    0.06875   0.08411   0.09139   0.09535   0.09801
 Alpha virt. eigenvalues --    0.10758   0.11725   0.12104   0.12765   0.13146
 Alpha virt. eigenvalues --    0.13716   0.13908   0.14198   0.14733   0.15190

  Beta  occ. eigenvalues --  -14.24444 -14.22669 -14.21179 -14.17100 -14.14276
  Beta  occ. eigenvalues --  -14.14058 -14.13014 -10.15080 -10.10805 -10.10471
  Beta  occ. eigenvalues --  -10.09673 -10.04202 -10.03739 -10.03569 -10.03542
  Beta  occ. eigenvalues --   -0.91380  -0.86589  -0.83731  -0.75560  -0.74506
  Beta  occ. eigenvalues --   -0.71892  -0.65863  -0.62396  -0.59361  -0.56385
  Beta  occ. eigenvalues --   -0.52098  -0.48798  -0.48484  -0.46485  -0.43816
  Beta  occ. eigenvalues --   -0.41725  -0.38552  -0.37946  -0.36539  -0.33159
  Beta  occ. eigenvalues --   -0.31184  -0.30834  -0.29851  -0.29328  -0.28273
  Beta  occ. eigenvalues --   -0.27572  -0.27012  -0.26598  -0.25936  -0.25148
  Beta  occ. eigenvalues --   -0.24592  -0.17604  -0.16777  -0.15756  -0.15298
  Beta  occ. eigenvalues --   -0.13820  -0.13155  -0.11334  -0.07321  -0.04980
  Beta virt. eigenvalues --    0.06920   0.08381   0.09141   0.09474   0.09756
  Beta virt. eigenvalues --    0.10673   0.11485   0.12094   0.12698   0.13077
  Beta virt. eigenvalues --    0.13400   0.13746   0.13929   0.14200   0.14713

 Mulliken charges and spin densities:
               1          2
     1  C   -0.590693  -0.129710
     2  C    0.016903   0.332035
     3  C    0.164790  -0.101632
     4  N   -0.116122   0.362757
     5  N   -0.231971   0.168116
     6  C   -0.259574  -0.000710
     7  N   -0.156186   0.236893
     8  N   -0.169977   0.001062
     9  N   -0.121104   0.009660
    10  C   -0.138454  -0.015149
    11  N   -0.189983   0.013976
    12  C   -0.140554  -0.133542
    13  C   -0.085873  -0.194860
    14  N   -0.156749   0.039272
    15  C   -0.530880  -0.019690
    16  H    0.126895   0.001968
    17  H    0.049300   0.076734
    18  H    0.118464   0.004683
    19  H    0.275128  -0.003372
    20  H    0.304850   0.001979
    21  H    0.100033   0.023813
    22  H    0.050705   0.088972
    23  H    0.006107   0.118315
    24  H    0.087538   0.066749
    25  H    0.232861   0.063053
    26  H    0.112278  -0.003443
    27  H    0.112004  -0.003438
    28  H    0.130265  -0.004492
 Sum of Mulliken charges =  -1.00000   1.00000

 Dipole moment (field-independent basis, Debye):
    X=             -3.7466    Y=              2.8295    Z=             -0.4328  Tot=              4.7149
 Quadrupole moment (field-independent basis, Debye-Ang):
   XX=           -138.0795   YY=           -107.3489   ZZ=           -102.5156
   XY=              8.2401   XZ=             -9.8715   YZ=              5.9970

 Summary of Natural Population Analysis:

                                       Natural Population
                Natural  -----------------------------------------------
    Atom  No    Charge         Core      Valence    Rydberg      Total
 -----------------------------------------------------------------------
      C    1   -0.30325      0.99965     2.29850    0.00510     3.30325
      C    2    0.17973      0.99952     1.80781    0.01293     2.82027
      C    3    0.01471      0.99951     1.97185    0.01393     2.98529
      N    4   -0.02044      0.99968     2.50168    0.01908     3.52044
      N    5   -0.13115      0.99968     2.61353    0.01794     3.63115
      C    6    0.26129      0.99961     1.72026    0.01883     2.73871
      N    7   -0.22993      0.99964     2.71828    0.01202     3.72993
      N    8   -0.23547      0.99965     2.72047    0.01535     3.73547
      N    9   -0.21874      0.99965     2.70754    0.01155     3.71874
      C   10    0.30467      0.99960     1.67824    0.01749     2.69533
      N   11   -0.30521      0.99966     2.79297    0.01257     3.80521
      C   12   -0.09998      0.99965     2.08978    0.01055     3.09998
      C   13   -0.09683      0.99966     2.08655    0.01061     3.09683
      N   14   -0.33747      0.99968     2.82844    0.00935     3.83747
      C   15   -0.29337      0.99965     2.28859    0.00513     3.29337
      H   16    0.10245      0.00000     0.39544    0.00211     0.39755
      H   17    0.09823      0.00000     0.39998    0.00180     0.40177
      H   18    0.09924      0.00000     0.39958    0.00117     0.40076
      H   19    0.18362      0.00000     0.31454    0.00184     0.31638
      H   20    0.18511      0.00000     0.31313    0.00176     0.31489
      H   21    0.08455      0.00000     0.41353    0.00192     0.41545
      H   22    0.08787      0.00000     0.40991    0.00222     0.41213
      H   23    0.08629      0.00000     0.41221    0.00150     0.41371
      H   24    0.09052      0.00000     0.40829    0.00119     0.40948
      H   25    0.20741      0.00000     0.28925    0.00334     0.29259
      H   26    0.09155      0.00000     0.40725    0.00120     0.40845
      H   27    0.09146      0.00000     0.40691    0.00163     0.40854
      H   28    0.10310      0.00000     0.39328    0.00362     0.39690
 =======================================================================
   * Total *    0.00000     14.99449    39.78779    0.21773    55.00000

 Normal termination of Gaussian 16 at Thu Dec 10 16:14:31 2020.
