 Gaussian 16, Revision A.03,

 -----------------------------------------------------------
 # opt freq B3LYP/6-31G(d) empiricaldispersion=gd3bj scf=xqc
 -----------------------------------------------------------

 -------------------------------
 CID_12439030_JID_10624_neutraal
 -------------------------------
 Symbolic Z-matrix:
 Charge =  0 Multiplicity = 1

 SCF Done:  E(RB3LYP) =  -1180.03023143     A.U. after   15 cycles
 SCF Done:  E(RB3LYP) =  -1180.03581030     A.U. after   13 cycles
 SCF Done:  E(RB3LYP) =  -1180.03679303     A.U. after   13 cycles
 SCF Done:  E(RB3LYP) =  -1180.03714207     A.U. after   12 cycles
 SCF Done:  E(RB3LYP) =  -1180.03727036     A.U. after   11 cycles
 SCF Done:  E(RB3LYP) =  -1180.03730115     A.U. after   11 cycles
 SCF Done:  E(RB3LYP) =  -1180.03731225     A.U. after   10 cycles
 SCF Done:  E(RB3LYP) =  -1180.03731434     A.U. after    8 cycles
 SCF Done:  E(RB3LYP) =  -1180.03731476     A.U. after    8 cycles
 Optimization completed.
    -- Stationary point found.
 Normal termination of Gaussian 16 at Sat Dec 12 16:01:34 2020.

 --------------------------------------------------------------------
 #N Geom=AllCheck Guess=TCheck SCRF=Check GenChk RB3LYP/6-31G(d) Freq
 --------------------------------------------------------------------

 Structure from the checkpoint file:  "JID_10624.chk"
 -------------------------------
 CID_12439030_JID_10624_neutraal
 -------------------------------
 Charge =  0 Multiplicity = 1

 SCF Done:  E(RB3LYP) =  -1180.03731476     A.U. after    1 cycles

  Exact polarizability: 260.649   2.757 199.967  -5.074  20.126 131.003
 Approx polarizability: 387.260   9.978 353.206 -16.634  46.716 221.391

                      1                      2                      3
                      A                      A                      A
 Frequencies --     36.2468                54.3790                80.3691
 Red. masses --      5.3679                 4.1771                 4.8101
 Frc consts  --      0.0042                 0.0073                 0.0183
 IR Inten    --      0.0938                 0.0510                 1.5347

                      4                      5                      6
                      A                      A                      A
 Frequencies --    105.5305               108.3703               145.1287
 Red. masses --      6.6763                 4.3142                 4.2893
 Frc consts  --      0.0438                 0.0299                 0.0532
 IR Inten    --      0.6106                 1.0436                 0.7631

                      7                      8                      9
                      A                      A                      A
 Frequencies --    181.1548               184.9228               218.6858
 Red. masses --      5.8651                 1.1073                 3.8957
 Frc consts  --      0.1134                 0.0223                 0.1098
 IR Inten    --      0.3543                 0.2947                 1.0061

                     10                     11                     12
                      A                      A                      A
 Frequencies --    257.4794               270.9972               284.1867
 Red. masses --      6.9134                 3.7618                 4.5037
 Frc consts  --      0.2700                 0.1628                 0.2143
 IR Inten    --      0.2075                 0.9307                 2.9988

                     13                     14                     15
                      A                      A                      A
 Frequencies --    327.1861               341.2769               371.9414
 Red. masses --      3.6884                 3.8129                 7.4289
 Frc consts  --      0.2326                 0.2616                 0.6055
 IR Inten    --      1.5943                 1.9200                 0.9811

                     16                     17                     18
                      A                      A                      A
 Frequencies --    407.3996               420.3814               445.0369
 Red. masses --      4.7510                 3.0249                 5.0708
 Frc consts  --      0.4646                 0.3150                 0.5917
 IR Inten    --      2.9552                 0.0730                 0.6417

                     19                     20                     21
                      A                      A                      A
 Frequencies --    465.2910               502.3358               529.5452
 Red. masses --      5.5405                 4.9266                 4.2229
 Frc consts  --      0.7067                 0.7325                 0.6977
 IR Inten    --      1.2131                 3.2503                 1.2464

                     22                     23                     24
                      A                      A                      A
 Frequencies --    563.2757               626.4199               634.0970
 Red. masses --      4.6985                 6.0434                 5.4110
 Frc consts  --      0.8783                 1.3972                 1.2818
 IR Inten    --      1.1885                 6.1025                 1.5615

                     25                     26                     27
                      A                      A                      A
 Frequencies --    639.3432               656.0292               679.1196
 Red. masses --      5.3344                 4.0470                 5.2773
 Frc consts  --      1.2847                 1.0262                 1.4340
 IR Inten    --      5.6362                22.5057                 3.0037

                     28                     29                     30
                      A                      A                      A
 Frequencies --    691.3115               699.9876               712.3632
 Red. masses --      4.6182                 2.6420                 1.8138
 Frc consts  --      1.3004                 0.7627                 0.5423
 IR Inten    --      3.1026                13.0392                22.7545

                     31                     32                     33
                      A                      A                      A
 Frequencies --    720.7272               752.6410               791.1842
 Red. masses --      4.3240                 2.0725                 2.4875
 Frc consts  --      1.3234                 0.6917                 0.9174
 IR Inten    --      0.1803                37.9608                12.2705

                     34                     35                     36
                      A                      A                      A
 Frequencies --    800.3509               821.9116               838.5360
 Red. masses --      4.2451                 4.7495                 1.5251
 Frc consts  --      1.6021                 1.8904                 0.6318
 IR Inten    --     17.4023                 1.5668                11.5863

                     37                     38                     39
                      A                      A                      A
 Frequencies --    863.1978               887.4168               896.4884
 Red. masses --      1.2459                 1.3126                 4.2254
 Frc consts  --      0.5470                 0.6090                 2.0008
 IR Inten    --      2.5888                 3.0369                17.4172

                     40                     41                     42
                      A                      A                      A
 Frequencies --    938.9709               944.9662               976.1437
 Red. masses --      2.2010                 1.8497                 1.3464
 Frc consts  --      1.1433                 0.9731                 0.7559
 IR Inten    --     10.2749                 5.0982                 2.0780

                     43                     44                     45
                      A                      A                      A
 Frequencies --    999.4845              1002.3834              1008.6873
 Red. masses --      1.3470                 2.1165                 4.1264
 Frc consts  --      0.7928                 1.2530                 2.4736
 IR Inten    --      1.6445                32.4962                17.5103

                     46                     47                     48
                      A                      A                      A
 Frequencies --   1015.5589              1022.7557              1061.5295
 Red. masses --      2.6640                 5.8303                 2.1945
 Frc consts  --      1.6188                 3.5933                 1.4570
 IR Inten    --      1.3977                 0.8456                 5.9198

                     49                     50                     51
                      A                      A                      A
 Frequencies --   1064.0710              1074.2438              1112.8009
 Red. masses --      2.7657                 1.4596                 1.6644
 Frc consts  --      1.8450                 0.9924                 1.2144
 IR Inten    --      5.6795                 4.5579                 3.5750

                     52                     53                     54
                      A                      A                      A
 Frequencies --   1119.4152              1128.2502              1177.0413
 Red. masses --      1.3576                 3.4865                 2.5983
 Frc consts  --      1.0023                 2.6149                 2.1209
 IR Inten    --      0.4584                 9.0794                 6.5963

                     55                     56                     57
                      A                      A                      A
 Frequencies --   1186.6764              1194.8078              1214.4558
 Red. masses --      2.3263                 1.1000                 1.1432
 Frc consts  --      1.9301                 0.9252                 0.9934
 IR Inten    --      8.3802                 0.2897                12.8399

                     58                     59                     60
                      A                      A                      A
 Frequencies --   1245.1213              1279.0974              1306.7038
 Red. masses --      1.4757                 2.3347                 2.4431
 Frc consts  --      1.3480                 2.2506                 2.4578
 IR Inten    --     14.3337                30.4330                52.0154

                     61                     62                     63
                      A                      A                      A
 Frequencies --   1335.8462              1349.4959              1352.0501
 Red. masses --      2.3929                 2.3395                 4.7278
 Frc consts  --      2.5158                 2.5102                 5.0921
 IR Inten    --     29.4105                21.5021                16.3670

                     64                     65                     66
                      A                      A                      A
 Frequencies --   1367.4034              1370.0102              1413.0683
 Red. masses --      1.9668                 1.7400                 2.3667
 Frc consts  --      2.1667                 1.9242                 2.7844
 IR Inten    --     25.9954                21.0681                27.8856

                     67                     68                     69
                      A                      A                      A
 Frequencies --   1440.7188              1475.9930              1487.9049
 Red. masses --      1.3958                 7.6981                 6.6146
 Frc consts  --      1.7071                 9.8810                 8.6279
 IR Inten    --     12.7904                54.0774                92.0261

                     70                     71                     72
                      A                      A                      A
 Frequencies --   1494.8821              1505.2604              1513.3335
 Red. masses --      2.2628                 1.1199                 1.0960
 Frc consts  --      2.9793                 1.4951                 1.4789
 IR Inten    --     11.0685                 7.1237                 7.1502

                     73                     74                     75
                      A                      A                      A
 Frequencies --   1521.9391              1544.3374              1565.1643
 Red. masses --      1.1693                 2.2589                 4.6155
 Frc consts  --      1.5958                 3.1742                 6.6617
 IR Inten    --      8.6633                 2.2926                53.7646

                     76                     77                     78
                      A                      A                      A
 Frequencies --   1589.3206              1630.9370              1637.9606
 Red. masses --      7.0116                 6.8434                 5.6790
 Frc consts  --     10.4350                10.7250                 8.9770
 IR Inten    --     49.8525                21.2735                10.0396

                     79                     80                     81
                      A                      A                      A
 Frequencies --   1660.7704              1671.1171              2987.0899
 Red. masses --      6.2618                 7.8692                 1.0717
 Frc consts  --     10.1759                12.9478                 5.6341
 IR Inten    --     38.3948                59.4359                34.0107

                     82                     83                     84
                      A                      A                      A
 Frequencies --   3044.6390              3102.1106              3118.6790
 Red. masses --      1.0440                 1.0955                 1.0909
 Frc consts  --      5.7019                 6.2113                 6.2512
 IR Inten    --     25.6698                13.6124                28.3326

                     85                     86                     87
                      A                      A                      A
 Frequencies --   3161.0113              3185.9493              3196.4938
 Red. masses --      1.0991                 1.0853                 1.0892
 Frc consts  --      6.4702                 6.4906                 6.5572
 IR Inten    --      6.9637                 0.2178                12.9447

                     88                     89                     90
                      A                      A                      A
 Frequencies --   3207.5837              3218.0681              3228.0963
 Red. masses --      1.0935                 1.0944                 1.0931
 Frc consts  --      6.6284                 6.6775                 6.7114
 IR Inten    --     37.7772                10.7744                 5.6481

                     91                     92                     93
                      A                      A                      A
 Frequencies --   3253.3630              3263.5850              3274.4585
 Red. masses --      1.0888                 1.0972                 1.0995
 Frc consts  --      6.7902                 6.8855                 6.9456
 IR Inten    --      1.8546                 7.8514                 0.4956

 - Thermochemistry -
 -------------------
 Temperature   298.150 Kelvin.  Pressure   1.00000 Atm.
 Atom     1 has atomic number  6 and mass  12.00000

 Molecular mass:   279.08302 amu.
 Principal axes and moments of inertia in atomic units:
                           1         2         3
     Eigenvalues --  3234.424547757.332719300.69869
           X            0.99989  -0.01498  -0.00139
           Y            0.01502   0.99916   0.03813
           Z            0.00082  -0.03815   0.99927
 This molecule is an asymmetric top.
 Rotational symmetry number  1.
 Warning -- assumption of classical behavior for rotation
           may cause significant error
 Rotational temperatures (Kelvin)      0.02678     0.01117     0.00931
 Rotational constants (GHZ):           0.55798     0.23265     0.19404
 Zero-point vibrational energy     677409.7 (Joules/Mol)
                                  161.90480 (Kcal/Mol)
 Warning -- explicit consideration of  22 degrees of freedom as
           vibrations may cause significant error
 Vibrational temperatures:     52.15    78.24   115.63   151.83   155.92
          (Kelvin)            208.81   260.64   266.06   314.64   370.46
                              389.90   408.88   470.75   491.02   535.14
                              586.16   604.84   640.31   669.45   722.75
                              761.90   810.43   901.28   912.32   919.87
                              943.88   977.10   994.64  1007.13  1024.93
                             1036.97  1082.88  1138.34  1151.53  1182.55
                             1206.47  1241.95  1276.79  1289.85  1350.97
                             1359.60  1404.45  1438.04  1442.21  1451.28
                             1461.16  1471.52  1527.30  1530.96  1545.60
                             1601.07  1610.59  1623.30  1693.50  1707.36
                             1719.06  1747.33  1791.45  1840.34  1880.06
                             1921.98  1941.62  1945.30  1967.39  1971.14
                             2033.09  2072.87  2123.62  2140.76  2150.80
                             2165.73  2177.35  2189.73  2221.96  2251.92
                             2286.68  2346.55  2356.66  2389.48  2404.36
                             4297.76  4380.56  4463.25  4487.08  4547.99
                             4583.87  4599.04  4615.00  4630.08  4644.51
                             4680.86  4695.57  4711.22

 Zero-point correction=                           0.258012 (Hartree/Particle)
 Thermal correction to Energy=                    0.273665
 Thermal correction to Enthalpy=                  0.274609
 Thermal correction to Gibbs Free Energy=         0.214616
 Sum of electronic and zero-point Energies=          -1179.779303
 Sum of electronic and thermal Energies=             -1179.763649
 Sum of electronic and thermal Enthalpies=           -1179.762705
 Sum of electronic and thermal Free Energies=        -1179.822699

                     E (Thermal)             CV                S
                      KCal/Mol        Cal/Mol-Kelvin    Cal/Mol-Kelvin
 Total                  171.728             62.810            126.267
 Electronic               0.000              0.000              0.000
 Translational            0.889              2.981             42.777
 Rotational               0.889              2.981             33.811
 Vibrational            169.950             56.848             49.678
 Vibration     1          0.594              1.982              5.454
 Vibration     2          0.596              1.976              4.651
 Vibration     3          0.600              1.962              3.882
 Vibration     4          0.605              1.945              3.350
 Vibration     5          0.606              1.943              3.298
 Vibration     6          0.617              1.908              2.735
 Vibration     7          0.630              1.865              2.316
 Vibration     8          0.631              1.860              2.278
 Vibration     9          0.646              1.813              1.970
 Vibration    10          0.667              1.750              1.679
 Vibration    11          0.675              1.727              1.590
 Vibration    12          0.683              1.703              1.508
 Vibration    13          0.711              1.621              1.274
 Vibration    14          0.721              1.593              1.206
 Vibration    15          0.744              1.530              1.072
 Vibration    16          0.772              1.454              0.936
 Vibration    17          0.783              1.426              0.891
 Vibration    18          0.804              1.372              0.811
 Vibration    19          0.823              1.327              0.751
 Vibration    20          0.858              1.245              0.652
 Vibration    21          0.885              1.185              0.588
 Vibration    22          0.919              1.111              0.517

 Optimization completed.
    -- Stationary point found.
 Normal termination of Gaussian 16 at Sat Dec 12 16:20:32 2020.

 ----------------------------------------------------------------------
 # B3LYP/6-311++G(d,p) empiricaldispersion=gd3bj scf=xqc pop=npa geom=c
 heck
 ----------------------------------------------------------------------

 ---------------------------------------
 CID_12439030_JID_10624_Energie_neutraal
 ---------------------------------------
 Structure from the checkpoint file:  "JID_10624.chk"
 Charge =  0 Multiplicity = 1

 SCF Done:  E(RB3LYP) =  -1180.25750140     A.U. after   16 cycles
 Normal termination of Gaussian 16 at Sat Dec 12 16:29:00 2020.

 ----------------------------------------------------------------------
 # B3LYP/6-311++G(d,p) empiricaldispersion=gd3bj scf=xqc pop=npa geom=c
 heck
 ----------------------------------------------------------------------

 -------------------------------------
 CID_12439030_JID_10624_Energie_kation
 -------------------------------------
 Structure from the checkpoint file:  "JID_10624.chk"
 Charge =  1 Multiplicity = 2

 SCF Done:  E(UB3LYP) =  -1179.97248150     A.U. after   31 cycles
 Normal termination of Gaussian 16 at Sat Dec 12 16:51:53 2020.
 Gaussian 16:  ES64L-G16RevA.03 25-Dec-2016

 ----------------------------------------------------------------------
 # B3LYP/6-311++G(d,p) empiricaldispersion=gd3bj scf=xqc pop=npa geom=c
 heck
 ----------------------------------------------------------------------

 ------------------------------------
 CID_12439030_JID_10624_Energie_anion
 ------------------------------------
 Structure from the checkpoint file:  "JID_10624.chk"
 Charge = -1 Multiplicity = 2

                         Standard orientation:
 ---------------------------------------------------------------------
 Center     Atomic      Atomic             Coordinates (Angstroms)
 Number     Number       Type             X           Y           Z
 ---------------------------------------------------------------------
      1          6           0       -3.751539    0.743147    1.761043
      2          6           0       -3.258577   -0.386691    0.919770
      3          7           0       -3.740099   -1.610833    0.942560
      4          6           0       -2.982709   -2.345186    0.051786
      5          6           0       -2.021132   -1.564998   -0.528337
      6          7           0       -2.197348   -0.294470    0.028738
      7          6           0       -1.379474    0.803979   -0.278767
      8          6           0       -0.016072    0.678052   -0.506120
      9          6           0        0.804139   -0.549566   -0.486854
     10          7           0        0.402946   -1.696089   -0.912071
     11          6           0       -0.929775   -1.792682   -1.516323
     12          6           0        2.194798   -0.463200    0.043232
     13          6           0        3.183591   -1.301759   -0.492569
     14          6           0        4.484417   -1.261503   -0.001130
     15          6           0        4.814775   -0.390733    1.040912
     16          6           0        3.834960    0.435949    1.590085
     17          6           0        2.532759    0.403438    1.092407
     18         16           0        0.678111    2.244486   -0.871842
     19          6           0       -0.856722    3.023209   -0.712675
     20          6           0       -1.855206    2.146031   -0.395875
     21          1           0       -4.356279    0.322174    2.566587
     22          1           0       -4.384013    1.441239    1.197720
     23          1           0       -2.927354    1.318317    2.196838
     24          1           0       -3.173268   -3.395843   -0.119224
     25          1           0       -1.017580   -1.067785   -2.342960
     26          1           0       -1.037916   -2.794343   -1.939253
     27          1           0        2.907929   -1.978669   -1.293620
     28          1           0        5.244024   -1.908126   -0.431225
     29          1           0        5.831014   -0.359749    1.423715
     30          1           0        4.081135    1.104456    2.410052
     31          1           0        1.770848    1.035024    1.536639
     32          1           0       -0.944202    4.087854   -0.881658
     33          1           0       -2.891993    2.428486   -0.272254
 ---------------------------------------------------------------------

 SCF Done:  E(UB3LYP) =  -1180.27887070     A.U. after   26 cycles

 The electronic state is 2-A.
 Alpha  occ. eigenvalues --  -88.74268 -14.25187 -14.17357 -14.13566 -10.11125
 Alpha  occ. eigenvalues --  -10.08517 -10.07724 -10.07377 -10.07274 -10.06858
 Alpha  occ. eigenvalues --  -10.06824 -10.06222 -10.05950 -10.05872 -10.05653
 Alpha  occ. eigenvalues --  -10.05582 -10.05349 -10.05116 -10.04985 -10.04390
 Alpha  occ. eigenvalues --   -7.82936  -5.79234  -5.78865  -5.78541  -0.90036
 Alpha  occ. eigenvalues --   -0.79355  -0.76797  -0.74164  -0.73159  -0.67060
 Alpha  occ. eigenvalues --   -0.64379  -0.62699  -0.61754  -0.60984  -0.59154
 Alpha  occ. eigenvalues --   -0.55247  -0.50585  -0.48516  -0.48368  -0.48134
 Alpha  occ. eigenvalues --   -0.44736  -0.43276  -0.41223  -0.39664  -0.36838
 Alpha  occ. eigenvalues --   -0.35064  -0.34947  -0.33650  -0.33090  -0.32626
 Alpha  occ. eigenvalues --   -0.32013  -0.30440  -0.30244  -0.29694  -0.29264
 Alpha  occ. eigenvalues --   -0.29026  -0.28038  -0.27172  -0.25989  -0.25572
 Alpha  occ. eigenvalues --   -0.24963  -0.22746  -0.22503  -0.21963  -0.18727
 Alpha  occ. eigenvalues --   -0.18081  -0.15820  -0.13948  -0.13143  -0.12691
 Alpha  occ. eigenvalues --   -0.11764  -0.09997  -0.09480   0.03107
 Alpha virt. eigenvalues --    0.07611   0.07980   0.08779   0.08988   0.09399
 Alpha virt. eigenvalues --    0.09662   0.10346   0.10676   0.10945   0.11662
 Alpha virt. eigenvalues --    0.11933   0.12286   0.12659   0.13302   0.13675

  Beta  occ. eigenvalues --  -88.74210 -14.25211 -14.17332 -14.12922 -10.11100
  Beta  occ. eigenvalues --  -10.08300 -10.07660 -10.07377 -10.07302 -10.06728
  Beta  occ. eigenvalues --  -10.06586 -10.06074 -10.05962 -10.05955 -10.05689
  Beta  occ. eigenvalues --  -10.05581 -10.05232 -10.05090 -10.04947 -10.04300
  Beta  occ. eigenvalues --   -7.82883  -5.79205  -5.78837  -5.78357  -0.89973
  Beta  occ. eigenvalues --   -0.78948  -0.76205  -0.73948  -0.72979  -0.66959
  Beta  occ. eigenvalues --   -0.64096  -0.62586  -0.61503  -0.60788  -0.58873
  Beta  occ. eigenvalues --   -0.55107  -0.50228  -0.48412  -0.48219  -0.47963
  Beta  occ. eigenvalues --   -0.44344  -0.43095  -0.41093  -0.39575  -0.36610
  Beta  occ. eigenvalues --   -0.34947  -0.34788  -0.33506  -0.32930  -0.32517
  Beta  occ. eigenvalues --   -0.31799  -0.30375  -0.30062  -0.29521  -0.29110
  Beta  occ. eigenvalues --   -0.28858  -0.27987  -0.26951  -0.25741  -0.25074
  Beta  occ. eigenvalues --   -0.24659  -0.22515  -0.22416  -0.21788  -0.17861
  Beta  occ. eigenvalues --   -0.17077  -0.15720  -0.13640  -0.12564  -0.12071
  Beta  occ. eigenvalues --   -0.10812  -0.09131  -0.08353
  Beta virt. eigenvalues --    0.07592   0.07957   0.08618   0.08969   0.09326
  Beta virt. eigenvalues --    0.09677   0.09897   0.10404   0.10915   0.11013
  Beta virt. eigenvalues --    0.11649   0.12039   0.12329   0.12764   0.13422

 Mulliken charges and spin densities:
               1          2
     1  C   -0.636612  -0.003429
     2  C    0.092646   0.012092
     3  N   -0.102505   0.012533
     4  C   -0.342939  -0.004686
     5  C    0.441108  -0.042649
     6  N    0.341978  -0.006615
     7  C   -0.927764   0.123537
     8  C    0.610517   0.088330
     9  C   -0.390772   0.074197
    10  N    0.058298   0.327483
    11  C   -0.605718   0.049869
    12  C    0.441940  -0.052610
    13  C    0.207169   0.097347
    14  C   -0.421279  -0.014820
    15  C   -0.399216   0.085583
    16  C   -0.264027  -0.023344
    17  C   -0.427805   0.056326
    18  S   -0.680319   0.069541
    19  C   -0.435859   0.183541
    20  C    0.523246  -0.043534
    21  H    0.156538   0.000862
    22  H    0.135264   0.001227
    23  H    0.155186   0.000837
    24  H    0.125645   0.007742
    25  H    0.144934   0.012419
    26  H    0.170296   0.003249
    27  H    0.177096  -0.006102
    28  H    0.130765   0.003144
    29  H    0.102994  -0.007222
    30  H    0.138520   0.000949
    31  H    0.157990   0.002385
    32  H    0.200790  -0.012593
    33  H    0.121895   0.004413
 Sum of Mulliken charges =  -1.00000   1.00000

 Dipole moment (field-independent basis, Debye):
    X=             -0.2790    Y=              3.3708    Z=             -0.0959  Tot=              3.3837
 Quadrupole moment (field-independent basis, Debye-Ang):
   XX=           -170.1325   YY=           -144.6533   ZZ=           -135.6013
   XY=             -8.3738   XZ=              3.5228   YZ=              6.8590

 Summary of Natural Population Analysis:

                                       Natural Population
                Natural  -----------------------------------------------
    Atom  No    Charge         Core      Valence    Rydberg      Total
 -----------------------------------------------------------------------
      C    1   -0.30566      0.99964     2.30191    0.00411     3.30566
      C    2    0.18805      0.99964     1.79382    0.01849     2.81195
      N    3   -0.26105      0.99969     2.75076    0.01060     3.76105
      C    4   -0.04624      0.99951     2.03342    0.01332     3.04624
      C    5    0.08177      0.99953     1.90771    0.01099     2.91823
      N    6   -0.20611      0.99957     2.69687    0.00967     3.70611
      C    7    0.08455      0.99939     1.90301    0.01305     2.91545
      C    8   -0.10389      0.99942     2.09321    0.01126     3.10389
      C    9    0.11328      0.99948     1.86931    0.01792     2.88672
      N   10   -0.13389      0.99966     2.62085    0.01338     3.63389
      C   11   -0.12234      0.99958     2.11263    0.01013     3.12234
      C   12   -0.02212      0.99948     2.01206    0.01058     3.02212
      C   13   -0.06879      0.99953     2.06080    0.00845     3.06879
      C   14   -0.11799      0.99957     2.10929    0.00912     3.11799
      C   15   -0.09101      0.99957     2.08192    0.00952     3.09101
      C   16   -0.11211      0.99957     2.10321    0.00932     3.11211
      C   17   -0.08804      0.99953     2.08067    0.00784     3.08804
      S   18    0.22792      4.99943     2.75127    0.02138     7.77208
      C   19   -0.14571      0.99956     2.13504    0.01111     3.14571
      C   20   -0.15878      0.99951     2.15054    0.00873     3.15878
      H   21    0.10977      0.00000     0.38937    0.00086     0.39023
      H   22    0.09856      0.00000     0.40035    0.00109     0.40144
      H   23    0.10793      0.00000     0.39121    0.00086     0.39207
      H   24    0.09267      0.00000     0.40634    0.00099     0.40733
      H   25    0.09553      0.00000     0.40234    0.00212     0.40447
      H   26    0.09643      0.00000     0.40236    0.00121     0.40357
      H   27    0.10735      0.00000     0.39158    0.00107     0.39265
      H   28    0.09252      0.00000     0.40647    0.00102     0.40748
      H   29    0.09036      0.00000     0.40863    0.00101     0.40964
      H   30    0.09267      0.00000     0.40630    0.00104     0.40733
      H   31    0.10283      0.00000     0.39577    0.00140     0.39717
      H   32    0.09915      0.00000     0.39995    0.00090     0.40085
      H   33    0.10238      0.00000     0.39650    0.00112     0.39762
 =======================================================================
   * Total *    0.00000     23.99086    48.76547    0.24367    73.00000

 Normal termination of Gaussian 16 at Sat Dec 12 17:11:16 2020.
