 Gaussian 16, Revision A.03,

 -----------------------------------------------------------
 # opt freq B3LYP/6-31G(d) empiricaldispersion=gd3bj scf=xqc
 -----------------------------------------------------------

 ------------------------------
 CID_13460035_JID_2534_neutraal
 ------------------------------
 Symbolic Z-matrix:
 Charge =  0 Multiplicity = 1

 SCF Done:  E(RB3LYP) =  -614.234315763     A.U. after   14 cycles
 SCF Done:  E(RB3LYP) =  -614.237463106     A.U. after   12 cycles
 SCF Done:  E(RB3LYP) =  -614.236585583     A.U. after   12 cycles
 SCF Done:  E(RB3LYP) =  -614.237797982     A.U. after   12 cycles
 SCF Done:  E(RB3LYP) =  -614.237832399     A.U. after   11 cycles
 SCF Done:  E(RB3LYP) =  -614.237844424     A.U. after   10 cycles
 SCF Done:  E(RB3LYP) =  -614.237878171     A.U. after   10 cycles
 SCF Done:  E(RB3LYP) =  -614.237885172     A.U. after   10 cycles
 SCF Done:  E(RB3LYP) =  -614.237889772     A.U. after   10 cycles
 SCF Done:  E(RB3LYP) =  -614.237898344     A.U. after   12 cycles
 SCF Done:  E(RB3LYP) =  -614.237901358     A.U. after   10 cycles
 SCF Done:  E(RB3LYP) =  -614.237901907     A.U. after    9 cycles
 SCF Done:  E(RB3LYP) =  -614.237901939     A.U. after    6 cycles
 Optimization completed.
    -- Stationary point found.

 1\1\GINC-NODE356\FOpt\RB3LYP\6-31G(d)\C8H14O4\VSC10255\09-Dec-2020\0\\
 # opt freq B3LYP/6-31G(d) empiricaldispersion=gd3bj scf=xqc\\CID_13460
 035_JID_2534_neutraal\\0,1\C,1.0153656758,-0.0571937138,-0.0186995544\
 C,0.6906194345,-1.5256169887,0.2651806741\C,1.1555216592,-2.0412892581
 ,1.6538231186\C,0.6365727036,-1.1590237593,2.8056872449\C,0.6495257327
 ,-3.4818970359,1.7711468968\O,1.2793297815,-4.4600337857,1.4316658139\
 O,-0.6142126283,-3.5350243388,2.2379640462\C,-1.1847219537,-4.85279755
 92,2.3034537311\C,2.6863158926,-2.1328225034,1.697171135\O,3.435736235

 Normal termination of Gaussian 16 at Wed Dec  9 17:45:29 2020.

 --------------------------------------------------------------------
 #N Geom=AllCheck Guess=TCheck SCRF=Check GenChk RB3LYP/6-31G(d) Freq
 --------------------------------------------------------------------

 Structure from the checkpoint file:  "JID_2534.chk"
 ------------------------------
 CID_13460035_JID_2534_neutraal
 ------------------------------
 Charge =  0 Multiplicity = 1

 SCF Done:  E(RB3LYP) =  -614.237901939     A.U. after    1 cycles

  Exact polarizability: 101.626  -0.043  96.886  -3.341  -0.827  81.985
 Approx polarizability: 129.955   0.065 128.807 -12.541   1.076 129.186

                      1                      2                      3
                      A                      A                      A
 Frequencies --     18.6949                65.9833                87.8128
 Red. masses --      5.6210                 4.8785                 3.1308
 Frc consts  --      0.0012                 0.0125                 0.0142
 IR Inten    --      1.0511                 2.3120                 1.0386

                      4                      5                      6
                      A                      A                      A
 Frequencies --    114.6501               121.8139               138.8004
 Red. masses --      2.2896                 1.8591                 1.1515
 Frc consts  --      0.0177                 0.0163                 0.0131
 IR Inten    --      1.1966                 0.3019                 0.0162

                      7                      8                      9
                      A                      A                      A
 Frequencies --    143.7504               172.9095               193.8317
 Red. masses --      1.3995                 2.1248                 2.9088
 Frc consts  --      0.0170                 0.0374                 0.0644
 IR Inten    --      0.1597                 1.4853                 1.9111

                     10                     11                     12
                      A                      A                      A
 Frequencies --    217.9853               241.4478               266.5991
 Red. masses --      3.9302                 1.2769                 2.5677
 Frc consts  --      0.1100                 0.0439                 0.1075
 IR Inten    --      1.4824                 1.2979                 4.1715

                     13                     14                     15
                      A                      A                      A
 Frequencies --    284.4415               317.5807               329.6309
 Red. masses --      1.7268                 2.6657                 3.1871
 Frc consts  --      0.0823                 0.1584                 0.2040
 IR Inten    --      2.7453                 5.2406                10.6085

                     16                     17                     18
                      A                      A                      A
 Frequencies --    340.4483               351.5671               412.1967
 Red. masses --      2.5879                 3.7559                 6.7498
 Frc consts  --      0.1767                 0.2735                 0.6757
 IR Inten    --      5.3339                 7.7049                10.5440

                     19                     20                     21
                      A                      A                      A
 Frequencies --    471.5846               576.2560               698.0772
 Red. masses --      4.8616                 3.5197                 3.8462
 Frc consts  --      0.6370                 0.6886                 1.1043
 IR Inten    --      4.6302                 7.1206                11.3558

                     22                     23                     24
                      A                      A                      A
 Frequencies --    751.9262               769.9280               805.2912
 Red. masses --      7.1709                 3.3282                 1.5653
 Frc consts  --      2.3888                 1.1624                 0.5981
 IR Inten    --      2.6522                 2.5624                 6.2018

                     25                     26                     27
                      A                      A                      A
 Frequencies --    825.3608               896.6928               922.5403
 Red. masses --      4.5664                 2.7062                 2.4903
 Frc consts  --      1.8328                 1.2820                 1.2487
 IR Inten    --     12.5987                10.8016                 8.1580

                     28                     29                     30
                      A                      A                      A
 Frequencies --   1017.0958              1023.3776              1028.7478
 Red. masses --      2.3413                 3.5738                 2.2051
 Frc consts  --      1.4270                 2.2052                 1.3750
 IR Inten    --      4.6784                 8.0673                11.1826

                     31                     32                     33
                      A                      A                      A
 Frequencies --   1052.8299              1092.3165              1164.1521
 Red. masses --      2.6507                 1.8553                 2.8090
 Frc consts  --      1.7311                 1.3043                 2.2429
 IR Inten    --     10.1903                44.5157               187.0725

                     34                     35                     36
                      A                      A                      A
 Frequencies --   1185.3526              1186.1720              1191.8616
 Red. masses --      1.3656                 1.2797                 2.6097
 Frc consts  --      1.1305                 1.0609                 2.1842
 IR Inten    --     11.8571                 1.0316               100.3524

                     37                     38                     39
                      A                      A                      A
 Frequencies --   1203.8142              1222.6374              1227.6723
 Red. masses --      2.2214                 1.5768                 1.7728
 Frc consts  --      1.8967                 1.3888                 1.5742
 IR Inten    --     17.3995                18.2970                45.2385

                     40                     41                     42
                      A                      A                      A
 Frequencies --   1287.8678              1301.9858              1358.1563
 Red. masses --      4.1940                 3.6806                 1.4058
 Frc consts  --      4.0984                 3.6761                 1.5278
 IR Inten    --    208.2417               264.8275                23.0698

                     43                     44                     45
                      A                      A                      A
 Frequencies --   1390.3834              1436.8569              1441.1131
 Red. masses --      1.3728                 1.2573                 1.2069
 Frc consts  --      1.5636                 1.5294                 1.4768
 IR Inten    --      1.1746                 2.0930                 7.1888

                     46                     47                     48
                      A                      A                      A
 Frequencies --   1490.8694              1492.2819              1512.2586
 Red. masses --      1.1953                 1.2056                 1.0482
 Frc consts  --      1.5653                 1.5818                 1.4123
 IR Inten    --      5.7031                 4.0874                 6.4812

                     49                     50                     51
                      A                      A                      A
 Frequencies --   1512.7752              1514.1767              1521.8962
 Red. masses --      1.0479                 1.0719                 1.0475
 Frc consts  --      1.4129                 1.4480                 1.4295
 IR Inten    --      6.6238                 2.0829                 5.1164

                     52                     53                     54
                      A                      A                      A
 Frequencies --   1523.8669              1525.0490              1530.0230
 Red. masses --      1.0461                 1.0498                 1.0668
 Frc consts  --      1.4312                 1.4386                 1.4714
 IR Inten    --     10.5125                10.5406                21.0595

                     55                     56                     57
                      A                      A                      A
 Frequencies --   1541.2106              1543.1644              1813.5568
 Red. masses --      1.0459                 1.0531                11.7953
 Frc consts  --      1.4637                 1.4775                22.8571
 IR Inten    --      7.9441                 3.6650               170.0835

                     58                     59                     60
                      A                      A                      A
 Frequencies --   1830.6261              3059.5483              3061.8157
 Red. masses --     11.6029                 1.0619                 1.0387
 Frc consts  --     22.9096                 5.8565                 5.7369
 IR Inten    --    220.6377                23.4800                21.8231

                     61                     62                     63
                      A                      A                      A
 Frequencies --   3077.6194              3078.3567              3078.4614
 Red. masses --      1.0293                 1.0354                 1.0293
 Frc consts  --      5.7441                 5.7809                 5.7472
 IR Inten    --     36.5836                15.7179                25.9156

                     64                     65                     66
                      A                      A                      A
 Frequencies --   3108.3229              3124.3253              3148.7875
 Red. masses --      1.1005                 1.1003                 1.1023
 Frc consts  --      6.2647                 6.3282                 6.4394
 IR Inten    --      3.8325                37.3706                24.0019

                     67                     68                     69
                      A                      A                      A
 Frequencies --   3151.4144              3154.0475              3154.5181
 Red. masses --      1.1023                 1.1076                 1.1076
 Frc consts  --      6.4501                 6.4919                 6.4939
 IR Inten    --     13.3039                19.4322                17.8200

                     70                     71                     72
                      A                      A                      A
 Frequencies --   3162.9947              3184.3596              3185.8553
 Red. masses --      1.1035                 1.1074                 1.1075
 Frc consts  --      6.5045                 6.6160                 6.6228
 IR Inten    --     15.3140                16.7275                16.1744

 - Thermochemistry -
 -------------------
 Temperature   298.150 Kelvin.  Pressure   1.00000 Atm.
 Atom     1 has atomic number  6 and mass  12.00000

 Molecular mass:   174.08921 amu.
 Principal axes and moments of inertia in atomic units:
                           1         2         3
     Eigenvalues --  1594.864172350.753463151.11444
           X            0.99998  -0.00248   0.00609
           Y            0.00249   0.99999  -0.00256
           Z           -0.00609   0.00258   0.99998
 This molecule is an asymmetric top.
 Rotational symmetry number  1.
 Warning -- assumption of classical behavior for rotation
           may cause significant error
 Rotational temperatures (Kelvin)      0.05431     0.03685     0.02749
 Rotational constants (GHZ):           1.13160     0.76773     0.57273
 Zero-point vibrational energy     576793.7 (Joules/Mol)
                                  137.85700 (Kcal/Mol)
 Warning -- explicit consideration of  20 degrees of freedom as
           vibrations may cause significant error
 Vibrational temperatures:     26.90    94.94   126.34   164.96   175.26
          (Kelvin)            199.70   206.82   248.78   278.88   313.63
                              347.39   383.58   409.25   456.93   474.27
                              489.83   505.83   593.06   678.51   829.10
                             1004.38  1081.85  1107.75  1158.63  1187.51
                             1290.14  1327.33  1463.37  1472.41  1480.14
                             1514.79  1571.60  1674.96  1705.46  1706.64
                             1714.82  1732.02  1759.10  1766.35  1852.95
                             1873.27  1954.08  2000.45  2067.32  2073.44
                             2145.03  2147.06  2175.80  2176.55  2178.56
                             2189.67  2192.50  2194.21  2201.36  2217.46
                             2220.27  2609.30  2633.86  4402.01  4405.27
                             4428.01  4429.07  4429.22  4472.18  4495.21
                             4530.40  4534.18  4537.97  4538.65  4550.84
                             4581.58  4583.74

 Zero-point correction=                           0.219689 (Hartree/Particle)
 Thermal correction to Energy=                    0.233971
 Thermal correction to Enthalpy=                  0.234915
 Thermal correction to Gibbs Free Energy=         0.178006
 Sum of electronic and zero-point Energies=           -614.018213
 Sum of electronic and thermal Energies=              -614.003931
 Sum of electronic and thermal Enthalpies=            -614.002987
 Sum of electronic and thermal Free Energies=         -614.059896

                     E (Thermal)             CV                S
                      KCal/Mol        Cal/Mol-Kelvin    Cal/Mol-Kelvin
 Total                  146.819             49.731            119.776
 Electronic               0.000              0.000              0.000
 Translational            0.889              2.981             41.371
 Rotational               0.889              2.981             30.847
 Vibrational            145.042             43.769             47.558
 Vibration     1          0.593              1.986              6.768
 Vibration     2          0.597              1.970              4.270
 Vibration     3          0.601              1.958              3.708
 Vibration     4          0.608              1.937              3.189
 Vibration     5          0.609              1.931              3.071
 Vibration     6          0.614              1.915              2.820
 Vibration     7          0.616              1.909              2.753
 Vibration     8          0.626              1.876              2.404
 Vibration     9          0.635              1.848              2.191
 Vibration    10          0.646              1.814              1.976
 Vibration    11          0.658              1.777              1.792
 Vibration    12          0.672              1.734              1.618
 Vibration    13          0.683              1.703              1.507
 Vibration    14          0.704              1.640              1.323
 Vibration    15          0.712              1.616              1.262
 Vibration    16          0.720              1.595              1.210
 Vibration    17          0.728              1.572              1.159
 Vibration    18          0.776              1.444              0.919
 Vibration    19          0.829              1.313              0.733
 Vibration    20          0.933              1.083              0.492

                           ! Non-Optimized Parameters !

 1\1\GINC-NODE356\Freq\RB3LYP\6-31G(d)\C8H14O4\VSC10255\09-Dec-2020\0\\
 #N Geom=AllCheck Guess=TCheck SCRF=Check GenChk RB3LYP/6-31G(d) Freq\\
 CID_13460035_JID_2534_neutraal\\0,1\C,1.0153656758,-0.0571937138,-0.01
 86995544\C,0.6906194345,-1.5256169887,0.2651806741\C,1.1555216592,-2.0
 412892581,1.6538231186\C,0.6365727036,-1.1590237593,2.8056872449\C,0.6
 495257327,-3.4818970359,1.7711468968\O,1.2793297815,-4.4600337857,1.43
 16658139\O,-0.6142126283,-3.5350243388,2.2379640462\C,-1.1847219537,-4
 .8527975592,2.3034537311\C,2.6863158926,-2.1328225034,1.697171135\O,3.

 Normal termination of Gaussian 16 at Wed Dec  9 17:51:57 2020.

 ----------------------------------------------------------------------
 # B3LYP/6-311++G(d,p) empiricaldispersion=gd3bj scf=xqc pop=npa geom=c
 heck
 ----------------------------------------------------------------------

 --------------------------------------
 CID_13460035_JID_2534_Energie_neutraal
 --------------------------------------
 Structure from the checkpoint file:  "JID_2534.chk"
 Charge =  0 Multiplicity = 1

 SCF Done:  E(RB3LYP) =  -614.422105150     A.U. after   14 cycles
 Normal termination of Gaussian 16 at Wed Dec  9 17:54:27 2020.

 ----------------------------------------------------------------------
 # B3LYP/6-311++G(d,p) empiricaldispersion=gd3bj scf=xqc pop=npa geom=c
 heck
 ----------------------------------------------------------------------

 ------------------------------------
 CID_13460035_JID_2534_Energie_kation
 ------------------------------------
 Structure from the checkpoint file:  "JID_2534.chk"
 Charge =  1 Multiplicity = 2

 SCF Done:  E(UB3LYP) =  -614.067215893     A.U. after   23 cycles
 Normal termination of Gaussian 16 at Wed Dec  9 17:59:14 2020.
 Gaussian 16:  ES64L-G16RevA.03 25-Dec-2016

 -----------------------------------
 CID_13460035_JID_2534_Energie_anion
 -----------------------------------
 Structure from the checkpoint file:  "JID_2534.chk"
 Charge = -1 Multiplicity = 2

                         Standard orientation:
 ---------------------------------------------------------------------
 Center     Atomic      Atomic             Coordinates (Angstroms)
 Number     Number       Type             X           Y           Z
 ---------------------------------------------------------------------
      1          6           0        0.850240    2.934339   -0.156693
      2          6           0       -0.143267    1.845878   -0.569621
      3          6           0       -0.017473    0.513413    0.217204
      4          6           0       -0.082488    0.729475    1.741534
      5          6           0       -1.152537   -0.388395   -0.276272
      6          8           0       -1.057235   -1.168586   -1.198698
      7          8           0       -2.300186   -0.166183    0.395517
      8          6           0       -3.431934   -0.923777   -0.064369
      9          6           0        1.282317   -0.205362   -0.166849
     10          8           0        2.071711    0.159777   -1.008122
     11          8           0        1.445835   -1.320422    0.573780
     12          6           0        2.597658   -2.110829    0.241045
     13          1           0        0.696788    3.257188    0.878253
     14          1           0        0.722773    3.813721   -0.797111
     15          1           0        1.879897    2.585035   -0.266834
     16          1           0       -1.168140    2.210940   -0.431833
     17          1           0       -0.016818    1.618822   -1.632491
     18          1           0       -0.966005    1.318227    1.999627
     19          1           0       -0.132147   -0.224587    2.269828
     20          1           0        0.806025    1.264303    2.088339
     21          1           0       -3.649298   -0.688154   -1.109241
     22          1           0       -3.234292   -1.994815    0.024533
     23          1           0       -4.260852   -0.628849    0.579044
     24          1           0        2.536604   -2.446891   -0.796998
     25          1           0        3.513329   -1.529418    0.375831
     26          1           0        2.576041   -2.960652    0.923360
 ---------------------------------------------------------------------

 SCF Done:  E(UB3LYP) =  -614.406487748     A.U. after   32 cycles

 The electronic state is 2-A.
 Alpha  occ. eigenvalues --  -19.07470 -19.07411 -19.01955 -19.01806 -10.20783
 Alpha  occ. eigenvalues --  -10.20749 -10.12769 -10.12357 -10.11469 -10.08003
 Alpha  occ. eigenvalues --  -10.06910 -10.06392  -1.01916  -1.01244  -0.92886
 Alpha  occ. eigenvalues --   -0.92764  -0.73989  -0.65533  -0.63916  -0.61459
 Alpha  occ. eigenvalues --   -0.57426  -0.51486  -0.48924  -0.45829  -0.43221
 Alpha  occ. eigenvalues --   -0.40007  -0.38972  -0.38620  -0.38002  -0.37514
 Alpha  occ. eigenvalues --   -0.35372  -0.33933  -0.32782  -0.31578  -0.30777
 Alpha  occ. eigenvalues --   -0.29580  -0.29090  -0.28463  -0.27406  -0.26477
 Alpha  occ. eigenvalues --   -0.25686  -0.25034  -0.23940  -0.21639  -0.21182
 Alpha  occ. eigenvalues --   -0.18779  -0.18286   0.04485
 Alpha virt. eigenvalues --    0.06318   0.06842   0.08190   0.08753   0.09111
 Alpha virt. eigenvalues --    0.09443   0.09925   0.10164   0.10529   0.10848
 Alpha virt. eigenvalues --    0.11626   0.12375   0.13019   0.13064   0.14183

  Beta  occ. eigenvalues --  -19.07459 -19.07405 -19.01945 -19.01794 -10.20776
  Beta  occ. eigenvalues --  -10.20745 -10.12734 -10.12307 -10.11469 -10.07991
  Beta  occ. eigenvalues --  -10.06880 -10.06370  -1.01900  -1.01228  -0.92870
  Beta  occ. eigenvalues --   -0.92744  -0.73969  -0.65499  -0.63859  -0.61400
  Beta  occ. eigenvalues --   -0.57374  -0.51435  -0.48861  -0.45801  -0.43203
  Beta  occ. eigenvalues --   -0.39976  -0.38936  -0.38585  -0.37974  -0.37481
  Beta  occ. eigenvalues --   -0.35344  -0.33884  -0.32743  -0.31545  -0.30739
  Beta  occ. eigenvalues --   -0.29548  -0.29059  -0.28426  -0.27362  -0.26446
  Beta  occ. eigenvalues --   -0.25651  -0.25006  -0.23916  -0.21611  -0.21153
  Beta  occ. eigenvalues --   -0.18762  -0.18269
  Beta virt. eigenvalues --    0.06700   0.07420   0.07613   0.08671   0.08881
  Beta virt. eigenvalues --    0.09606   0.10138   0.10321   0.10575   0.11059
  Beta virt. eigenvalues --    0.11183   0.12214   0.12600   0.13275   0.13429

 Mulliken charges and spin densities:
               1          2
     1  C    0.733757  -1.351662
     2  C   -0.644070   0.375230
     3  C    0.998635  -0.328342
     4  C    1.088797  -1.543546
     5  C   -1.474403   1.261755
     6  O   -0.202555   0.000017
     7  O   -0.103439   0.093957
     8  C    1.110344  -1.336902
     9  C   -0.568291  -0.072706
    10  O   -0.213309   0.007453
    11  O   -0.059882   0.048949
    12  C    0.849617  -1.075451
    13  H   -0.158108   0.302123
    14  H   -0.064950   0.198717
    15  H   -0.019143   0.196700
    16  H   -0.141815   0.307136
    17  H    0.078024   0.129850
    18  H   -0.044897   0.237918
    19  H   -0.102127   0.313536
    20  H   -0.135360   0.293534
    21  H   -0.244598   0.416427
    22  H   -0.313135   0.491400
    23  H   -0.712317   0.875611
    24  H   -0.025884   0.204038
    25  H   -0.197210   0.368435
    26  H   -0.433681   0.585821
 Sum of Mulliken charges =  -1.00000   1.00000

 Dipole moment (field-independent basis, Debye):
    X=              2.6379    Y=              1.3188    Z=             -1.7741  Tot=              3.4417
 Quadrupole moment (field-independent basis, Debye-Ang):
   XX=           -139.0014   YY=           -118.6455   ZZ=           -108.4067
   XY=              0.3917   XZ=              2.7518   YZ=              1.0136

 Summary of Natural Population Analysis:

                                       Natural Population
                Natural  -----------------------------------------------
    Atom  No    Charge         Core      Valence    Rydberg      Total
 -----------------------------------------------------------------------
      C    1   -0.28737      0.99966     2.28306    0.00466     3.28737
      C    2   -0.18584      0.99961     2.17608    0.01015     3.18584
      C    3   -0.11660      0.99948     2.10263    0.01449     3.11660
      C    4   -0.28412      0.99964     2.27617    0.00832     3.28412
      C    5    0.42349      0.99963     1.55001    0.02687     2.57651
      O    6   -0.30317      0.99987     3.29765    0.00565     4.30317
      O    7   -0.27701      0.99986     3.26694    0.01021     4.27701
      C    8   -0.10252      0.99959     2.09382    0.00912     3.10252
      C    9    0.42540      0.99964     1.54688    0.02808     2.57460
      O   10   -0.30288      0.99987     3.29760    0.00542     4.30288
      O   11   -0.27765      0.99986     3.26793    0.00987     4.27765
      C   12   -0.10367      0.99959     2.09494    0.00914     3.10367
      H   13    0.09708      0.00000     0.40173    0.00119     0.40292
      H   14    0.09985      0.00000     0.39927    0.00088     0.40015
      H   15    0.10491      0.00000     0.39389    0.00120     0.39509
      H   16    0.10232      0.00000     0.39627    0.00141     0.39768
      H   17    0.10696      0.00000     0.39193    0.00111     0.39304
      H   18    0.10911      0.00000     0.38918    0.00171     0.39089
      H   19    0.11114      0.00000     0.38699    0.00186     0.38886
      H   20    0.10236      0.00000     0.39631    0.00133     0.39764
      H   21    0.09098      0.00000     0.40758    0.00143     0.40902
      H   22    0.09329      0.00000     0.40509    0.00162     0.40671
      H   23    0.09590      0.00000     0.40149    0.00262     0.40410
      H   24    0.09214      0.00000     0.40688    0.00098     0.40786
      H   25    0.09152      0.00000     0.40717    0.00131     0.40848
      H   26    0.09439      0.00000     0.40404    0.00157     0.40561
 =======================================================================
   * Total *   -0.00000     11.99628    34.84153    0.16219    47.00000

 Normal termination of Gaussian 16 at Wed Dec  9 18:05:51 2020.
