 Gaussian 16, Revision A.03,

 ----------------------------------------------------------------------
 # opt=(cartesian,calcfc) freq B3LYP/6-31G(d) empiricaldispersion=gd3bj
  scf=xqc
 ----------------------------------------------------------------------

 -------------------------------
 CID_131013789_JID_4318_neutraal
 -------------------------------
 Symbolic Z-matrix:
 Charge =  0 Multiplicity = 1

 SCF Done:  E(RB3LYP) =  -938.981671217     A.U. after   15 cycles
 SCF Done:  E(RB3LYP) =  -938.981749633     A.U. after   11 cycles
 SCF Done:  E(RB3LYP) =  -938.981788376     A.U. after   11 cycles
 SCF Done:  E(RB3LYP) =  -938.981800779     A.U. after   11 cycles
 SCF Done:  E(RB3LYP) =  -938.981814996     A.U. after   11 cycles
 SCF Done:  E(RB3LYP) =  -938.981869069     A.U. after   11 cycles
 SCF Done:  E(RB3LYP) =  -938.981866068     A.U. after   11 cycles
 SCF Done:  E(RB3LYP) =  -938.981901418     A.U. after   11 cycles
 SCF Done:  E(RB3LYP) =  -938.981909077     A.U. after   11 cycles
 SCF Done:  E(RB3LYP) =  -938.981938251     A.U. after   10 cycles
 SCF Done:  E(RB3LYP) =  -938.981983184     A.U. after    8 cycles
 SCF Done:  E(RB3LYP) =  -938.981983305     A.U. after    7 cycles
 SCF Done:  E(RB3LYP) =  -938.981983224     A.U. after    8 cycles
 SCF Done:  E(RB3LYP) =  -938.981983331     A.U. after    6 cycles
 SCF Done:  E(RB3LYP) =  -938.981983335     A.U. after    7 cycles
 Optimization completed.
    -- Stationary point found.
 Normal termination of Gaussian 16 at Wed Dec 30 15:41:05 2020.

 --------------------------------------------------------------------
 #N Geom=AllCheck Guess=TCheck SCRF=Check GenChk RB3LYP/6-31G(d) Freq
 --------------------------------------------------------------------

 Structure from the checkpoint file:  "JID_4318.chk"
 -------------------------------
 CID_131013789_JID_4318_neutraal
 -------------------------------
 Charge =  0 Multiplicity = 1

 SCF Done:  E(RB3LYP) =  -938.981983335     A.U. after    1 cycles

  Exact polarizability: 182.736  -1.403 142.761   4.350   3.875 110.068
 Approx polarizability: 237.665  -8.659 242.314  11.855  10.249 162.491

                      1                      2                      3
                      A                      A                      A
 Frequencies --     17.8526                28.1654                60.3122
 Red. masses --      2.8527                 3.2809                 3.9208
 Frc consts  --      0.0005                 0.0015                 0.0084
 IR Inten    --      0.1696                 0.1785                 0.3680

                      4                      5                      6
                      A                      A                      A
 Frequencies --     66.4387                92.4312               120.5680
 Red. masses --      2.6637                 1.0491                 3.6228
 Frc consts  --      0.0069                 0.0053                 0.0310
 IR Inten    --      0.2151                 0.0996                 0.1121

                      7                      8                      9
                      A                      A                      A
 Frequencies --    145.3540               199.8109               205.3776
 Red. masses --      3.2054                 2.5617                 3.2314
 Frc consts  --      0.0399                 0.0603                 0.0803
 IR Inten    --      1.5482                 5.3886                 1.9872

                     10                     11                     12
                      A                      A                      A
 Frequencies --    217.2005               239.6776               245.8914
 Red. masses --      1.0913                 1.1502                 1.2203
 Frc consts  --      0.0303                 0.0389                 0.0435
 IR Inten    --      4.3516                 0.5190                 0.5136

                     13                     14                     15
                      A                      A                      A
 Frequencies --    255.2536               262.4886               266.1969
 Red. masses --      2.3329                 1.3054                 1.1747
 Frc consts  --      0.0896                 0.0530                 0.0490
 IR Inten    --      2.5355                 6.0588                33.1099

                     16                     17                     18
                      A                      A                      A
 Frequencies --    277.2478               286.6472               304.1568
 Red. masses --      2.6191                 2.3187                 2.8594
 Frc consts  --      0.1186                 0.1123                 0.1559
 IR Inten    --     10.7252                 5.3819                 0.3424

                     19                     20                     21
                      A                      A                      A
 Frequencies --    368.3642               395.9664               403.6564
 Red. masses --      4.1063                 2.7456                 2.4692
 Frc consts  --      0.3283                 0.2536                 0.2370
 IR Inten    --      2.0591                 0.4880                 0.2683

                     22                     23                     24
                      A                      A                      A
 Frequencies --    469.5578               493.9240               552.3232
 Red. masses --      4.0313                 4.1482                 3.6091
 Frc consts  --      0.5237                 0.5962                 0.6487
 IR Inten    --      1.9781                 2.2615                 1.5870

                     25                     26                     27
                      A                      A                      A
 Frequencies --    590.6872               597.5470               624.8403
 Red. masses --      2.4295                 4.7849                 4.8744
 Frc consts  --      0.4994                 1.0066                 1.1213
 IR Inten    --     14.6527                 2.5100                 1.1735

                     28                     29                     30
                      A                      A                      A
 Frequencies --    666.6965               690.3066               788.5038
 Red. masses --      5.3430                 7.0735                 3.1579
 Frc consts  --      1.3992                 1.9860                 1.1568
 IR Inten    --      2.0091                 0.7239                15.0978

                     31                     32                     33
                      A                      A                      A
 Frequencies --    795.8626               888.4242               898.0753
 Red. masses --      3.6078                 2.4505                 1.8236
 Frc consts  --      1.3464                 1.1396                 0.8666
 IR Inten    --     24.7905                 3.4634               127.7513

                     34                     35                     36
                      A                      A                      A
 Frequencies --    935.2157               943.2364               944.5491
 Red. masses --      2.2675                 1.1724                 1.3631
 Frc consts  --      1.1685                 0.6145                 0.7165
 IR Inten    --      9.2900                 0.5969                 0.6001

                     37                     38                     39
                      A                      A                      A
 Frequencies --    967.0807               972.2343               978.7486
 Red. masses --      2.0302                 1.5096                 1.4712
 Frc consts  --      1.1187                 0.8407                 0.8304
 IR Inten    --     54.6992                 0.0066                 0.1722

                     40                     41                     42
                      A                      A                      A
 Frequencies --   1020.4894              1046.8561              1075.5199
 Red. masses --      1.7529                 1.8862                 1.4925
 Frc consts  --      1.0755                 1.2179                 1.0172
 IR Inten    --     11.4091                 4.4828                 1.1944

                     43                     44                     45
                      A                      A                      A
 Frequencies --   1091.4572              1120.7794              1134.7768
 Red. masses --      2.1881                 2.4270                 2.2589
 Frc consts  --      1.5358                 1.7962                 1.7139
 IR Inten    --      4.5071                70.7466                 2.9913

                     46                     47                     48
                      A                      A                      A
 Frequencies --   1136.2662              1173.8434              1189.6025
 Red. masses --      2.3688                 1.6431                 1.9675
 Frc consts  --      1.8020                 1.3339                 1.6404
 IR Inten    --     12.9775                 6.3900                 7.5357

                     49                     50                     51
                      A                      A                      A
 Frequencies --   1212.9757              1237.4254              1254.0199
 Red. masses --      1.9142                 2.3256                 1.8442
 Frc consts  --      1.6593                 2.0981                 1.7087
 IR Inten    --      3.4539                 1.9458                 2.2802

                     52                     53                     54
                      A                      A                      A
 Frequencies --   1323.2492              1339.1166              1348.2474
 Red. masses --      1.2226                 4.5181                 1.3397
 Frc consts  --      1.2613                 4.7735                 1.4348
 IR Inten    --      3.1423                12.0593                 2.5730

                     55                     56                     57
                      A                      A                      A
 Frequencies --   1358.3611              1373.7074              1395.0665
 Red. masses --      1.3451                 1.5783                 1.3952
 Frc consts  --      1.4623                 1.7548                 1.5999
 IR Inten    --      1.8165                12.2060                 1.6705

                     58                     59                     60
                      A                      A                      A
 Frequencies --   1426.6116              1429.9390              1442.7903
 Red. masses --      1.2231                 1.2830                 1.4127
 Frc consts  --      1.4667                 1.5457                 1.7327
 IR Inten    --      4.1768                 7.2897                 6.8663

                     61                     62                     63
                      A                      A                      A
 Frequencies --   1443.9848              1448.3645              1453.3524
 Red. masses --      1.2771                 1.2471                 1.2852
 Frc consts  --      1.5689                 1.5414                 1.5994
 IR Inten    --      2.0438                 5.6322                 3.9840

                     64                     65                     66
                      A                      A                      A
 Frequencies --   1507.4100              1514.9956              1516.2936
 Red. masses --      1.0442                 1.1421                 1.0481
 Frc consts  --      1.3980                 1.5445                 1.4198
 IR Inten    --      3.7284                 6.3493                 0.9231

                     67                     68                     69
                      A                      A                      A
 Frequencies --   1516.7110              1519.8249              1524.9614
 Red. masses --      1.0439                 1.0485                 1.0515
 Frc consts  --      1.4149                 1.4270                 1.4407
 IR Inten    --      0.2966                 1.9751                 1.7636

                     70                     71                     72
                      A                      A                      A
 Frequencies --   1530.9956              1536.6215              1537.4147
 Red. masses --      1.0453                 1.0523                 1.0561
 Frc consts  --      1.4436                 1.4639                 1.4707
 IR Inten    --      9.4794                 6.9149                 5.1785

                     73                     74                     75
                      A                      A                      A
 Frequencies --   1540.2969              1564.3454              1615.2509
 Red. masses --      1.0549                 7.2719                 5.6568
 Frc consts  --      1.4745                10.4849                 8.6957
 IR Inten    --      3.9224                22.0944                24.8430

                     76                     77                     78
                      A                      A                      A
 Frequencies --   1679.3579              3018.5487              3028.9305
 Red. masses --      1.0918                 1.0836                 1.0842
 Frc consts  --      1.8142                 5.8171                 5.8604
 IR Inten    --     46.2096                17.8734                23.7517

                     79                     80                     81
                      A                      A                      A
 Frequencies --   3038.4262              3046.3160              3050.0315
 Red. masses --      1.0369                 1.0349                 1.0396
 Frc consts  --      5.6403                 5.6582                 5.6981
 IR Inten    --     35.5767                20.0582                26.0524

                     82                     83                     84
                      A                      A                      A
 Frequencies --   3052.8905              3053.2188              3058.5154
 Red. masses --      1.0387                 1.0449                 1.0702
 Frc consts  --      5.7040                 5.7391                 5.8984
 IR Inten    --     22.9090                 7.3386                34.2220

                     85                     86                     87
                      A                      A                      A
 Frequencies --   3099.8930              3106.3665              3111.6729
 Red. masses --      1.0999                 1.1013                 1.1029
 Frc consts  --      6.2274                 6.2611                 6.2916
 IR Inten    --     27.1472                13.9061                 1.3216

                     88                     89                     90
                      A                      A                      A
 Frequencies --   3111.8861              3116.1181              3119.0298
 Red. masses --      1.1016                 1.1015                 1.1018
 Frc consts  --      6.2855                 6.3020                 6.3152
 IR Inten    --     24.5334                45.4621                76.1693

                     91                     92                     93
                      A                      A                      A
 Frequencies --   3126.8093              3129.0622              3137.9656
 Red. masses --      1.1029                 1.1026                 1.1008
 Frc consts  --      6.3530                 6.3604                 6.3864
 IR Inten    --     23.0582                30.2099                24.2405

                     94                     95                     96
                      A                      A                      A
 Frequencies --   3148.1534              3484.9103              3578.4806
 Red. masses --      1.0990                 1.0485                 1.0935
 Frc consts  --      6.4177                 7.5021                 8.2504
 IR Inten    --     23.4983                 7.7747                 1.9652

 - Thermochemistry -
 -------------------
 Temperature   298.150 Kelvin.  Pressure   1.00000 Atm.
 Atom     1 has atomic number  6 and mass  12.00000

 Molecular mass:   212.13472 amu.
 Principal axes and moments of inertia in atomic units:
                           1         2         3
     Eigenvalues --  1609.512955340.027375825.51321
           X            0.99999   0.00307  -0.00408
           Y           -0.00304   0.99997   0.00673
           Z            0.00410  -0.00671   0.99997
 This molecule is an asymmetric top.
 Rotational symmetry number  1.
 Warning -- assumption of classical behavior for rotation
           may cause significant error
 Rotational temperatures (Kelvin)      0.05381     0.01622     0.01487
 Rotational constants (GHZ):           1.12130     0.33796     0.30980
 Zero-point vibrational energy     786277.8 (Joules/Mol)
                                  187.92490 (Kcal/Mol)
 Warning -- explicit consideration of  26 degrees of freedom as
           vibrations may cause significant error
 Vibrational temperatures:     25.69    40.52    86.78    95.59   132.99
          (Kelvin)            173.47   209.13   287.48   295.49   312.50
                              344.84   353.78   367.25   377.66   383.00
                              398.90   412.42   437.61   529.99   569.71
                              580.77   675.59   710.65   794.67   849.87
                              859.74   899.01   959.23   993.20  1134.48
                             1145.07  1278.24  1292.13  1345.57  1357.11
                             1359.00  1391.41  1398.83  1408.20  1468.26
                             1506.19  1547.43  1570.36  1612.55  1632.69
                             1634.83  1688.90  1711.57  1745.20  1780.38
                             1804.25  1903.86  1926.69  1939.83  1954.38
                             1976.46  2007.19  2052.58  2057.36  2075.85
                             2077.57  2083.87  2091.05  2168.83  2179.74
                             2181.61  2182.21  2186.69  2194.08  2202.76
                             2210.86  2212.00  2216.14  2250.74  2323.99
                             2416.22  4343.02  4357.96  4371.62  4382.97
                             4388.32  4392.43  4392.90  4400.52  4460.05
                             4469.37  4477.00  4477.31  4483.40  4487.59
                             4498.78  4502.02  4514.83  4529.49  5014.01
                             5148.64

 Zero-point correction=                           0.299477 (Hartree/Particle)
 Thermal correction to Energy=                    0.316446
 Thermal correction to Enthalpy=                  0.317390
 Thermal correction to Gibbs Free Energy=         0.253862
 Sum of electronic and zero-point Energies=           -938.682506
 Sum of electronic and thermal Energies=              -938.665537
 Sum of electronic and thermal Enthalpies=            -938.664593
 Sum of electronic and thermal Free Energies=         -938.728121

                     E (Thermal)             CV                S
                      KCal/Mol        Cal/Mol-Kelvin    Cal/Mol-Kelvin
 Total                  198.573             62.083            133.706
 Electronic               0.000              0.000              0.000
 Translational            0.889              2.981             41.960
 Rotational               0.889              2.981             32.282
 Vibrational            196.795             56.121             59.465
 Vibration     1          0.593              1.986              6.860
 Vibration     2          0.593              1.984              5.955
 Vibration     3          0.597              1.973              4.447
 Vibration     4          0.598              1.970              4.256
 Vibration     5          0.602              1.955              3.608
 Vibration     6          0.609              1.932              3.091
 Vibration     7          0.617              1.908              2.732
 Vibration     8          0.638              1.840              2.135
 Vibration     9          0.640              1.832              2.084
 Vibration    10          0.646              1.815              1.982
 Vibration    11          0.657              1.780              1.805
 Vibration    12          0.660              1.770              1.760
 Vibration    13          0.666              1.754              1.694
 Vibration    14          0.670              1.742              1.645
 Vibration    15          0.672              1.735              1.621
 Vibration    16          0.678              1.716              1.551
 Vibration    17          0.684              1.698              1.494
 Vibration    18          0.695              1.666              1.394
 Vibration    19          0.741              1.537              1.087
 Vibration    20          0.763              1.479              0.978
 Vibration    21          0.769              1.462              0.949
 Vibration    22          0.827              1.318              0.739
 Vibration    23          0.850              1.263              0.673
 Vibration    24          0.908              1.135              0.539
 Vibration    25          0.948              1.052              0.466
 Vibration    26          0.955              1.037              0.454

 Normal termination of Gaussian 16 at Wed Dec 30 15:50:14 2020.

 ----------------------------------------------------------------------
 # B3LYP/6-311++G(d,p) empiricaldispersion=gd3bj scf=xqc pop=npa geom=c
 heck
 ----------------------------------------------------------------------

 ---------------------------------------
 CID_131013789_JID_4318_Energie_neutraal
 ---------------------------------------
 Structure from the checkpoint file:  "JID_4318.chk"
 Charge =  0 Multiplicity = 1

 SCF Done:  E(RB3LYP) =  -939.162385504     A.U. after   15 cycles
 Normal termination of Gaussian 16 at Wed Dec 30 15:54:32 2020.

 ----------------------------------------------------------------------
 # B3LYP/6-311++G(d,p) empiricaldispersion=gd3bj scf=xqc pop=npa geom=c
 heck
 ----------------------------------------------------------------------

 -------------------------------------
 CID_131013789_JID_4318_Energie_kation
 -------------------------------------
 Structure from the checkpoint file:  "JID_4318.chk"
 Charge =  1 Multiplicity = 2

 SCF Done:  E(UB3LYP) =  -938.871578443     A.U. after   24 cycles
 Normal termination of Gaussian 16 at Wed Dec 30 16:03:48 2020.
 Gaussian 16:  ES64L-G16RevA.03 25-Dec-2016

 ----------------------------------------------------------------------
 # B3LYP/6-311++G(d,p) empiricaldispersion=gd3bj scf=xqc pop=npa geom=c
 heck
 ----------------------------------------------------------------------

 ------------------------------------
 CID_131013789_JID_4318_Energie_anion
 ------------------------------------
 Structure from the checkpoint file:  "JID_4318.chk"
 Charge = -1 Multiplicity = 2

                         Standard orientation:
 ---------------------------------------------------------------------
 Center     Atomic      Atomic             Coordinates (Angstroms)
 Number     Number       Type             X           Y           Z
 ---------------------------------------------------------------------
      1          6           0        1.744138    2.646411    0.427703
      2          6           0        1.116800    1.329671    0.076113
      3          6           0        1.739687    0.111101   -0.008642
      4         16           0        0.558899   -1.106367   -0.467625
      5          6           0       -0.677499    0.137115   -0.499202
      6          7           0       -0.242787    1.323280   -0.198230
      7          6           0       -2.124341   -0.185491   -0.772081
      8          6           0       -2.822411   -0.683568    0.536515
      9          6           0       -2.904874    0.407854    1.607331
     10          6           0       -4.208650   -1.258605    0.222042
     11          7           0       -2.734524    0.972266   -1.425630
     12          6           0        3.182183   -0.256297    0.214758
     13          6           0        3.346212   -1.243895    1.383416
     14          6           0        3.839356   -0.799256   -1.066452
     15          1           0        1.257622    3.078141    1.309990
     16          1           0        2.812151    2.552684    0.637076
     17          1           0        1.616377    3.361180   -0.393400
     18          1           0       -2.154659   -1.027374   -1.478465
     19          1           0       -2.201130   -1.503706    0.923701
     20          1           0       -3.526427    1.243403    1.264355
     21          1           0       -3.356135    0.013600    2.524380
     22          1           0       -1.917031    0.808249    1.852051
     23          1           0       -4.153793   -2.049233   -0.535569
     24          1           0       -4.665673   -1.683400    1.122465
     25          1           0       -4.891412   -0.483406   -0.149088
     26          1           0       -3.748468    0.915728   -1.366256
     27          1           0       -2.437280    1.816545   -0.941092
     28          1           0        3.701192    0.670413    0.487494
     29          1           0        2.860453   -2.200421    1.157596
     30          1           0        4.406954   -1.442374    1.574281
     31          1           0        2.896715   -0.847235    2.299355
     32          1           0        3.739240   -0.086968   -1.891485
     33          1           0        4.905300   -0.992346   -0.900513
     34          1           0        3.371195   -1.740661   -1.376866
 ---------------------------------------------------------------------

 SCF Done:  E(UB3LYP) =  -939.149526183     A.U. after   33 cycles
 SCF Done:  E(UB3LYP) =  -939.149526183     a.u. after    1 cycles

 The electronic state is 2-A.
 Alpha  occ. eigenvalues --  -88.77767 -14.21095 -14.19894 -10.13598 -10.11872
 Alpha  occ. eigenvalues --  -10.10865 -10.10359 -10.09537 -10.08495 -10.07443
 Alpha  occ. eigenvalues --  -10.06995 -10.06821 -10.06702 -10.06053  -7.86435
 Alpha  occ. eigenvalues --   -5.82703  -5.82357  -5.82036  -0.86806  -0.79903
 Alpha  occ. eigenvalues --   -0.73125  -0.70061  -0.68340  -0.66521  -0.61018
 Alpha  occ. eigenvalues --   -0.59405  -0.59347  -0.56365  -0.51859  -0.47710
 Alpha  occ. eigenvalues --   -0.45453  -0.43755  -0.40998  -0.37618  -0.37354
 Alpha  occ. eigenvalues --   -0.35639  -0.35232  -0.34237  -0.33590  -0.32901
 Alpha  occ. eigenvalues --   -0.31712  -0.31231  -0.30454  -0.29746  -0.29304
 Alpha  occ. eigenvalues --   -0.28245  -0.27506  -0.26772  -0.26211  -0.25651
 Alpha  occ. eigenvalues --   -0.25056  -0.24374  -0.24270  -0.23554  -0.17898
 Alpha  occ. eigenvalues --   -0.17827  -0.15197  -0.13316   0.04128
 Alpha virt. eigenvalues --    0.05566   0.06798   0.07055   0.07689   0.08008
 Alpha virt. eigenvalues --    0.08441   0.08555   0.09443   0.10118   0.10280
 Alpha virt. eigenvalues --    0.10672   0.11073   0.11213   0.11678   0.11822

  Beta  occ. eigenvalues --  -88.77762 -14.21080 -14.19877 -10.13557 -10.11871
  Beta  occ. eigenvalues --  -10.10868 -10.10342 -10.09525 -10.08484 -10.07419
  Beta  occ. eigenvalues --  -10.06959 -10.06789 -10.06672 -10.06030  -7.86428
  Beta  occ. eigenvalues --   -5.82700  -5.82354  -5.82025  -0.86768  -0.79872
  Beta  occ. eigenvalues --   -0.73087  -0.70024  -0.68303  -0.66488  -0.60969
  Beta  occ. eigenvalues --   -0.59343  -0.59294  -0.56318  -0.51800  -0.47656
  Beta  occ. eigenvalues --   -0.45412  -0.43716  -0.40968  -0.37570  -0.37316
  Beta  occ. eigenvalues --   -0.35596  -0.35186  -0.34194  -0.33559  -0.32865
  Beta  occ. eigenvalues --   -0.31669  -0.31194  -0.30414  -0.29711  -0.29268
  Beta  occ. eigenvalues --   -0.28184  -0.27466  -0.26734  -0.26172  -0.25611
  Beta  occ. eigenvalues --   -0.25018  -0.24341  -0.24237  -0.23513  -0.17861
  Beta  occ. eigenvalues --   -0.17771  -0.15163  -0.13215
  Beta virt. eigenvalues --    0.06127   0.06584   0.07038   0.07454   0.08198
  Beta virt. eigenvalues --    0.08367   0.08844   0.09067   0.09705   0.10320
  Beta virt. eigenvalues --    0.10567   0.11025   0.11320   0.11488   0.11804

 Mulliken charges and spin densities:
               1          2
     1  C    2.600197  -3.283107
     2  C   -0.100064  -1.020311
     3  C    1.294821   0.060748
     4  S    0.214251  -0.638429
     5  C    0.312369  -0.557953
     6  N    0.142098   0.119675
     7  C   -0.896842   0.767584
     8  C   -0.950612   1.377711
     9  C    0.317479  -1.106681
    10  C    0.416422  -0.991489
    11  N   -0.310617  -0.023469
    12  C   -3.759582   4.175196
    13  C    0.610071  -1.363589
    14  C    0.825079  -1.565730
    15  H   -0.013643   0.173230
    16  H   -0.209376   0.318809
    17  H    0.008524   0.156400
    18  H    0.274810  -0.024233
    19  H   -0.091146   0.253576
    20  H    0.009122   0.139571
    21  H   -0.159714   0.313854
    22  H    0.044562   0.150379
    23  H   -0.103064   0.227011
    24  H   -0.408913   0.570738
    25  H   -0.077582   0.196625
    26  H    0.082112   0.133942
    27  H    0.212063   0.054121
    28  H   -0.284107   0.491289
    29  H   -0.133119   0.284117
    30  H   -0.401665   0.556719
    31  H    0.007975   0.134605
    32  H    0.030677   0.112638
    33  H   -0.510585   0.672934
    34  H    0.007999   0.133519
 Sum of Mulliken charges =  -1.00000   1.00000

 Dipole moment (field-independent basis, Debye):
    X=             -2.0295    Y=              0.4182    Z=             -1.9304  Tot=              2.8320
 Quadrupole moment (field-independent basis, Debye-Ang):
   XX=           -197.9331   YY=           -133.7654   ZZ=           -133.8839
   XY=             -2.8374   XZ=              2.2168   YZ=              4.5176

 Summary of Natural Population Analysis:

                                       Natural Population
                Natural  -----------------------------------------------
    Atom  No    Charge         Core      Valence    Rydberg      Total
 -----------------------------------------------------------------------
      C    1   -0.29033      0.99962     2.28584    0.00487     3.29033
      C    2    0.05927      0.99941     1.92726    0.01406     2.94073
      C    3   -0.09619      0.99940     2.08256    0.01422     3.09619
      S    4    0.18588      4.99938     2.79770    0.01704     7.81412
      C    5    0.05812      0.99957     1.92410    0.01821     2.94188
      N    6   -0.25522      0.99962     2.74440    0.01120     3.75522
      C    7   -0.03234      0.99951     2.01888    0.01395     3.03234
      C    8   -0.11418      0.99959     2.10378    0.01081     3.11418
      C    9   -0.29196      0.99964     2.28522    0.00710     3.29196
      C   10   -0.28672      0.99965     2.28098    0.00610     3.28672
      N   11   -0.41940      0.99977     2.90995    0.00969     3.91940
      C   12   -0.12954      0.99956     2.11875    0.01123     3.12954
      C   13   -0.27982      0.99965     2.27360    0.00657     3.27982
      C   14   -0.28007      0.99965     2.27385    0.00657     3.28007
      H   15    0.10616      0.00000     0.39266    0.00118     0.39384
      H   16    0.10325      0.00000     0.39544    0.00131     0.39675
      H   17    0.10549      0.00000     0.39329    0.00122     0.39451
      H   18    0.09529      0.00000     0.40300    0.00171     0.40471
      H   19    0.09896      0.00000     0.39969    0.00136     0.40104
      H   20    0.09541      0.00000     0.40338    0.00121     0.40459
      H   21    0.10074      0.00000     0.39829    0.00098     0.39926
      H   22    0.10749      0.00000     0.39118    0.00134     0.39251
      H   23    0.09810      0.00000     0.40087    0.00102     0.40190
      H   24    0.10439      0.00000     0.39428    0.00133     0.39561
      H   25    0.09337      0.00000     0.40540    0.00123     0.40663
      H   26    0.17357      0.00000     0.32483    0.00160     0.32643
      H   27    0.18397      0.00000     0.31362    0.00241     0.31603
      H   28    0.10566      0.00000     0.39162    0.00272     0.39434
      H   29    0.09752      0.00000     0.40146    0.00102     0.40248
      H   30    0.10065      0.00000     0.39820    0.00115     0.39935
      H   31    0.10241      0.00000     0.39640    0.00119     0.39759
      H   32    0.10177      0.00000     0.39724    0.00100     0.39823
      H   33    0.10161      0.00000     0.39709    0.00129     0.39839
      H   34    0.09669      0.00000     0.40238    0.00093     0.40331
 =======================================================================
   * Total *   -0.00000     17.99403    39.82718    0.17879    58.00000

 Normal termination of Gaussian 16 at Wed Dec 30 16:17:13 2020.
