 Gaussian 16, Revision A.03,

 -----------------------------------------------------------
 # opt freq B3LYP/6-31G(d) empiricaldispersion=gd3bj scf=xqc
 -----------------------------------------------------------

 ------------------------------
 CID_82785883_JID_8822_neutraal
 ------------------------------
 Symbolic Z-matrix:
 Charge =  0 Multiplicity = 1

 SCF Done:  E(RB3LYP) =  -805.555744665     A.U. after   15 cycles
 SCF Done:  E(RB3LYP) =  -805.562811910     A.U. after   12 cycles
 SCF Done:  E(RB3LYP) =  -805.563556417     A.U. after   12 cycles
 SCF Done:  E(RB3LYP) =  -805.563681572     A.U. after   12 cycles
 SCF Done:  E(RB3LYP) =  -805.564358940     A.U. after   12 cycles
 SCF Done:  E(RB3LYP) =  -805.564914458     A.U. after   12 cycles
 SCF Done:  E(RB3LYP) =  -805.557861715     A.U. after   15 cycles
 SCF Done:  E(RB3LYP) =  -805.567032582     A.U. after   12 cycles
 SCF Done:  E(RB3LYP) =  -805.568168737     A.U. after   12 cycles
 SCF Done:  E(RB3LYP) =  -805.569526363     A.U. after   12 cycles
 SCF Done:  E(RB3LYP) =  -805.571074076     A.U. after   10 cycles
 SCF Done:  E(RB3LYP) =  -805.571085976     A.U. after   10 cycles
 SCF Done:  E(RB3LYP) =  -805.571087601     A.U. after    8 cycles
 SCF Done:  E(RB3LYP) =  -805.571087961     A.U. after    8 cycles
 SCF Done:  E(RB3LYP) =  -805.571088057     A.U. after    7 cycles
 Optimization completed.
    -- Stationary point found.
 Normal termination of Gaussian 16 at Fri Dec 11 22:20:38 2020.

 --------------------------------------------------------------------
 #N Geom=AllCheck Guess=TCheck SCRF=Check GenChk RB3LYP/6-31G(d) Freq
 --------------------------------------------------------------------

 Structure from the checkpoint file:  "JID_8822.chk"
 ------------------------------
 CID_82785883_JID_8822_neutraal
 ------------------------------
 Charge =  0 Multiplicity = 1

 SCF Done:  E(RB3LYP) =  -805.571088057     A.U. after    1 cycles

  Exact polarizability: 209.438   7.188 185.617 -10.551   0.693 106.687
 Approx polarizability: 299.302  28.056 299.439 -27.922  -3.092 160.150

                      1                      2                      3
                      A                      A                      A
 Frequencies --     37.2131                50.9414                68.5509
 Red. masses --      3.8566                 5.3764                 5.8842
 Frc consts  --      0.0031                 0.0082                 0.0163
 IR Inten    --      0.0375                 0.5750                 0.9057

                      4                      5                      6
                      A                      A                      A
 Frequencies --     91.6532               121.1985               138.7527
 Red. masses --      4.5223                 3.8722                 2.2852
 Frc consts  --      0.0224                 0.0335                 0.0259
 IR Inten    --      0.1748                 0.6207                 0.1036

                      7                      8                      9
                      A                      A                      A
 Frequencies --    162.5950               188.0178               208.2860
 Red. masses --      3.8989                 2.8037                 4.2371
 Frc consts  --      0.0607                 0.0584                 0.1083
 IR Inten    --      0.1211                 0.9757                 0.2578

                     10                     11                     12
                      A                      A                      A
 Frequencies --    235.4848               269.7269               284.7978
 Red. masses --      4.0133                 3.3647                 2.9000
 Frc consts  --      0.1311                 0.1442                 0.1386
 IR Inten    --      2.0225                 1.6204                 0.5929

                     13                     14                     15
                      A                      A                      A
 Frequencies --    312.3547               322.5438               353.7163
 Red. masses --      2.8892                 2.2235                 7.4744
 Frc consts  --      0.1661                 0.1363                 0.5510
 IR Inten    --      1.9637                 0.9705                 2.3077

                     16                     17                     18
                      A                      A                      A
 Frequencies --    381.4460               390.8907               442.3323
 Red. masses --      2.8126                 2.3965                 2.6802
 Frc consts  --      0.2411                 0.2157                 0.3090
 IR Inten    --      0.4448                 2.0403                 0.1264

                     19                     20                     21
                      A                      A                      A
 Frequencies --    448.9900               465.2369               476.4284
 Red. masses --      2.0210                 1.1950                 3.3480
 Frc consts  --      0.2400                 0.1524                 0.4477
 IR Inten    --      9.6569                71.9904                 7.5567

                     22                     23                     24
                      A                      A                      A
 Frequencies --    499.2251               528.7270               544.4699
 Red. masses --      2.4149                 4.1904                 2.1096
 Frc consts  --      0.3546                 0.6902                 0.3685
 IR Inten    --     11.8468                15.9861                 2.0669

                     25                     26                     27
                      A                      A                      A
 Frequencies --    565.2884               602.5773               624.1120
 Red. masses --      2.1545                 2.9939                 2.1597
 Frc consts  --      0.4056                 0.6405                 0.4956
 IR Inten    --     25.1119                14.8432                72.3700

                     28                     29                     30
                      A                      A                      A
 Frequencies --    635.7388               691.0430               701.9745
 Red. masses --      2.9090                 1.6855                 2.5083
 Frc consts  --      0.6927                 0.4742                 0.7282
 IR Inten    --     55.6177               178.3166                26.9461

                     31                     32                     33
                      A                      A                      A
 Frequencies --    734.4010               754.3390               771.4752
 Red. masses --      2.7764                 3.0154                 4.7547
 Frc consts  --      0.8823                 1.0110                 1.6673
 IR Inten    --     38.8559                40.1710                63.8400

                     34                     35                     36
                      A                      A                      A
 Frequencies --    789.5553               803.0112               812.1473
 Red. masses --      2.8128                 1.7768                 1.8682
 Frc consts  --      1.0331                 0.6751                 0.7260
 IR Inten    --     26.4367                10.4294                13.2996

                     37                     38                     39
                      A                      A                      A
 Frequencies --    833.9904               840.3924               847.3671
 Red. masses --      2.2125                 1.8428                 2.4789
 Frc consts  --      0.9067                 0.7668                 1.0487
 IR Inten    --      0.4497                26.3215                18.3044

                     40                     41                     42
                      A                      A                      A
 Frequencies --    914.6660               922.4133               940.1325
 Red. masses --      1.5539                 3.0628                 1.9282
 Frc consts  --      0.7659                 1.5354                 1.0041
 IR Inten    --      3.0817                10.3661                 3.1251

                     43                     44                     45
                      A                      A                      A
 Frequencies --    961.4317               961.9225               996.9761
 Red. masses --      1.9030                 1.3034                 2.3523
 Frc consts  --      1.0364                 0.7106                 1.3775
 IR Inten    --     11.2188                 0.5769                 0.3758

                     46                     47                     48
                      A                      A                      A
 Frequencies --   1012.5323              1029.7181              1074.4517
 Red. masses --      1.6680                 2.7199                 2.1890
 Frc consts  --      1.0075                 1.6992                 1.4889
 IR Inten    --      6.0612                18.2420                12.5123

                     49                     50                     51
                      A                      A                      A
 Frequencies --   1089.0779              1100.0082              1116.6266
 Red. masses --      1.9073                 2.0724                 2.7826
 Frc consts  --      1.3329                 1.4775                 2.0442
 IR Inten    --     27.2693                15.3553                79.6682

                     52                     53                     54
                      A                      A                      A
 Frequencies --   1136.1734              1154.3940              1157.3361
 Red. masses --      2.3050                 2.1777                 2.1996
 Frc consts  --      1.7531                 1.7099                 1.7359
 IR Inten    --      8.6093                31.1299                21.0135

                     55                     56                     57
                      A                      A                      A
 Frequencies --   1181.4834              1196.9683              1210.3504
 Red. masses --      1.2453                 1.1893                 1.5771
 Frc consts  --      1.0242                 1.0039                 1.3612
 IR Inten    --    111.4067                 2.8756               169.7818

                     58                     59                     60
                      A                      A                      A
 Frequencies --   1235.7774              1250.2335              1276.3830
 Red. masses --      1.5213                 1.8924                 1.3145
 Frc consts  --      1.3688                 1.7428                 1.2618
 IR Inten    --     43.9945                63.1785                26.2663

                     61                     62                     63
                      A                      A                      A
 Frequencies --   1310.3198              1324.9884              1333.8082
 Red. masses --      1.3237                 1.2519                 1.8889
 Frc consts  --      1.3391                 1.2949                 1.9799
 IR Inten    --      5.3531                 2.0797                36.2544

                     64                     65                     66
                      A                      A                      A
 Frequencies --   1338.9396              1345.6914              1378.3741
 Red. masses --      1.3643                 1.4345                 1.3583
 Frc consts  --      1.4410                 1.5305                 1.5204
 IR Inten    --     20.2699                16.9797                 5.5575

                     67                     68                     69
                      A                      A                      A
 Frequencies --   1388.1800              1392.3076              1400.8648
 Red. masses --      2.0168                 2.1086                 2.0572
 Frc consts  --      2.2898                 2.4083                 2.3786
 IR Inten    --     76.3172                 1.5966                75.9466

                     70                     71                     72
                      A                      A                      A
 Frequencies --   1406.9482              1416.4377              1418.5804
 Red. masses --      1.3396                 1.3784                 1.3519
 Frc consts  --      1.5624                 1.6293                 1.6029
 IR Inten    --      1.9529                32.4908                 4.4219

                     73                     74                     75
                      A                      A                      A
 Frequencies --   1425.4255              1428.6335              1446.6580
 Red. masses --      1.5302                 1.4421                 1.3988
 Frc consts  --      1.8319                 1.7342                 1.7248
 IR Inten    --     48.6196                 0.9553                13.9584

                     76                     77                     78
                      A                      A                      A
 Frequencies --   1472.7242              1507.0887              1508.0423
 Red. masses --      4.0397                 1.0865                 1.0815
 Frc consts  --      5.1623                 1.4540                 1.4491
 IR Inten    --     16.5347                 4.6091                 1.5827

                     79                     80                     81
                      A                      A                      A
 Frequencies --   1515.6694              1519.6172              1522.8520
 Red. masses --      1.0768                 1.0969                 1.0859
 Frc consts  --      1.4574                 1.4924                 1.4838
 IR Inten    --      6.1393                 4.3629                 7.4498

                     82                     83                     84
                      A                      A                      A
 Frequencies --   1541.4043              1545.8290              1561.7313
 Red. masses --      1.0877                 1.0893                 2.9825
 Frc consts  --      1.5226                 1.5336                 4.2860
 IR Inten    --      2.2562                11.3076                85.5585

                     85                     86                     87
                      A                      A                      A
 Frequencies --   1630.5705              1642.7515              1678.9516
 Red. masses --      6.2465                 2.0219                 1.9216
 Frc consts  --      9.7852                 3.2148                 3.1915
 IR Inten    --     44.2894                 8.7013               188.9120

                     88                     89                     90
                      A                      A                      A
 Frequencies --   1811.7541              3020.8066              3024.1404
 Red. masses --      9.4140                 1.0623                 1.0617
 Frc consts  --     18.2063                 5.7112                 5.7209
 IR Inten    --    405.6973                27.1384                21.3773

                     91                     92                     93
                      A                      A                      A
 Frequencies --   3032.6360              3039.7809              3050.1581
 Red. masses --      1.0681                 1.0682                 1.0743
 Frc consts  --      5.7875                 5.8155                 5.8885
 IR Inten    --     27.6342                17.5577                48.3975

                     94                     95                     96
                      A                      A                      A
 Frequencies --   3050.6989              3054.7446              3056.3565
 Red. masses --      1.0721                 1.1003                 1.0791
 Frc consts  --      5.8790                 6.0495                 5.9389
 IR Inten    --     63.9687                 5.5275                35.0479

                     97                     98                     99
                      A                      A                      A
 Frequencies --   3058.0303              3078.5662              3100.8814
 Red. masses --      1.0879                 1.0957                 1.0961
 Frc consts  --      5.9939                 6.1183                 6.2096
 IR Inten    --     47.8301                87.1496                10.0179

                    100                    101                    102
                      A                      A                      A
 Frequencies --   3102.1894              3126.2198              3135.5853
 Red. masses --      1.0957                 1.0958                 1.0895
 Frc consts  --      6.2125                 6.3098                 6.3114
 IR Inten    --     60.2589                11.1651                39.3845

                    103                    104                    105
                      A                      A                      A
 Frequencies --   3179.3400              3229.4915              3268.9962
 Red. masses --      1.0895                 1.0924                 1.0890
 Frc consts  --      6.4885                 6.7127                 6.8563
 IR Inten    --     20.2002                 2.3801                 0.6235

                    106                    107                    108
                      A                      A                      A
 Frequencies --   3516.9610              3634.4468              3704.2973
 Red. masses --      1.0488                 1.0967                 1.0641
 Frc consts  --      7.6429                 8.5355                 8.6032
 IR Inten    --     19.2377                20.2824                71.9869

 - Thermochemistry -
 -------------------
 Temperature   298.150 Kelvin.  Pressure   1.00000 Atm.
 Atom     1 has atomic number  6 and mass  12.00000

 Molecular mass:   248.15248 amu.
 Principal axes and moments of inertia in atomic units:
                           1         2         3
     Eigenvalues --  2860.992096626.584458403.89823
           X            0.99974  -0.02269   0.00366
           Y            0.02266   0.99972   0.00696
           Z           -0.00382  -0.00687   0.99997
 This molecule is an asymmetric top.
 Rotational symmetry number  1.
 Warning -- assumption of classical behavior for rotation
           may cause significant error
 Rotational temperatures (Kelvin)      0.03027     0.01307     0.01031
 Rotational constants (GHZ):           0.63081     0.27235     0.21475
 Zero-point vibrational energy     871058.0 (Joules/Mol)
                                  208.18785 (Kcal/Mol)
 Warning -- explicit consideration of  26 degrees of freedom as
           vibrations may cause significant error
 Vibrational temperatures:     53.54    73.29    98.63   131.87   174.38
          (Kelvin)            199.63   233.94   270.52   299.68   338.81
                              388.08   409.76   449.41   464.07   508.92
                              548.82   562.40   636.42   646.00   669.37
                              685.47   718.27   760.72   783.37   813.32
                              866.97   897.96   914.69   994.26  1009.98
                             1056.64  1085.33  1109.98  1135.99  1155.35
                             1168.50  1199.93  1209.14  1219.17  1316.00
                             1327.15  1352.64  1383.29  1383.99  1434.43
                             1456.81  1481.53  1545.90  1566.94  1582.67
                             1606.58  1634.70  1660.92  1665.15  1699.89
                             1722.17  1741.42  1778.01  1798.81  1836.43
                             1885.26  1906.36  1919.05  1926.44  1936.15
                             1983.17  1997.28  2003.22  2015.53  2024.28
                             2037.94  2041.02  2050.87  2055.49  2081.42
                             2118.92  2168.36  2169.74  2180.71  2186.39
                             2191.04  2217.74  2224.10  2246.98  2346.03
                             2363.55  2415.64  2606.71  4346.27  4351.06
                             4363.29  4373.57  4388.50  4389.28  4395.10
                             4397.42  4399.82  4429.37  4461.48  4463.36
                             4497.93  4511.41  4574.36  4646.52  4703.36
                             5060.12  5229.16  5329.66

 Zero-point correction=                           0.331768 (Hartree/Particle)
 Thermal correction to Energy=                    0.348142
 Thermal correction to Enthalpy=                  0.349086
 Thermal correction to Gibbs Free Energy=         0.288062
 Sum of electronic and zero-point Energies=           -805.239320
 Sum of electronic and thermal Energies=              -805.222946
 Sum of electronic and thermal Enthalpies=            -805.222002
 Sum of electronic and thermal Free Energies=         -805.283026

                     E (Thermal)             CV                S
                      KCal/Mol        Cal/Mol-Kelvin    Cal/Mol-Kelvin
 Total                  218.462             65.735            128.435
 Electronic               0.000              0.000              0.000
 Translational            0.889              2.981             42.427
 Rotational               0.889              2.981             33.432
 Vibrational            216.685             59.774             52.576
 Vibration     1          0.594              1.982              5.402
 Vibration     2          0.595              1.977              4.780
 Vibration     3          0.598              1.969              4.195
 Vibration     4          0.602              1.955              3.624
 Vibration     5          0.609              1.932              3.081
 Vibration     6          0.614              1.915              2.821
 Vibration     7          0.623              1.888              2.519
 Vibration     8          0.633              1.856              2.247
 Vibration     9          0.642              1.828              2.059
 Vibration    10          0.655              1.786              1.837
 Vibration    11          0.674              1.729              1.598
 Vibration    12          0.683              1.702              1.505
 Vibration    13          0.701              1.650              1.350
 Vibration    14          0.708              1.630              1.297
 Vibration    15          0.730              1.568              1.150
 Vibration    16          0.751              1.510              1.033
 Vibration    17          0.759              1.490              0.997
 Vibration    18          0.802              1.378              0.819
 Vibration    19          0.808              1.363              0.799
 Vibration    20          0.823              1.327              0.751
 Vibration    21          0.833              1.302              0.720
 Vibration    22          0.855              1.252              0.660
 Vibration    23          0.884              1.186              0.590
 Vibration    24          0.900              1.152              0.556
 Vibration    25          0.921              1.106              0.513
 Vibration    26          0.961              1.026              0.445

 Optimization completed.
    -- Stationary point found.
 Normal termination of Gaussian 16 at Fri Dec 11 22:38:40 2020.

 ----------------------------------------------------------------------
 # B3LYP/6-311++G(d,p) empiricaldispersion=gd3bj scf=xqc pop=npa geom=c
 heck
 ----------------------------------------------------------------------

 --------------------------------------
 CID_82785883_JID_8822_Energie_neutraal
 --------------------------------------
 Structure from the checkpoint file:  "JID_8822.chk"
 Charge =  0 Multiplicity = 1

 SCF Done:  E(RB3LYP) =  -805.804380548     A.U. after   15 cycles
 Normal termination of Gaussian 16 at Fri Dec 11 22:45:56 2020.

 ----------------------------------------------------------------------
 # B3LYP/6-311++G(d,p) empiricaldispersion=gd3bj scf=xqc pop=npa geom=c
 heck
 ----------------------------------------------------------------------

 ------------------------------------
 CID_82785883_JID_8822_Energie_kation
 ------------------------------------
 Structure from the checkpoint file:  "JID_8822.chk"
 Charge =  1 Multiplicity = 2

 SCF Done:  E(UB3LYP) =  -805.538230014     A.U. after   22 cycles
 Normal termination of Gaussian 16 at Fri Dec 11 23:00:24 2020.
 Gaussian 16:  ES64L-G16RevA.03 25-Dec-2016

 ----------------------------------------------------------------------
 # B3LYP/6-311++G(d,p) empiricaldispersion=gd3bj scf=xqc pop=npa geom=c
 heck
 ----------------------------------------------------------------------

 -----------------------------------
 CID_82785883_JID_8822_Energie_anion
 -----------------------------------
 Structure from the checkpoint file:  "JID_8822.chk"
 Charge = -1 Multiplicity = 2

                         Standard orientation:
 ---------------------------------------------------------------------
 Center     Atomic      Atomic             Coordinates (Angstroms)
 Number     Number       Type             X           Y           Z
 ---------------------------------------------------------------------
      1          6           0        4.103712   -0.709871    0.117274
      2          6           0        3.350897   -1.818149   -0.628003
      3          6           0        1.855853   -1.573400   -0.888743
      4          6           0        1.502497   -0.193855   -1.513763
      5          7           0        0.983549    0.863156   -0.643584
      6          6           0        1.858605    1.358045    0.434754
      7          6           0        2.182097    0.359511    1.572087
      8          6           0        3.571950   -0.313754    1.502697
      9          6           0       -0.403045    0.826135   -0.326938
     10          6           0       -1.081530    2.074333   -0.220704
     11          6           0       -2.448765    2.100076    0.092593
     12          6           0       -3.164308    0.922858    0.246682
     13          6           0       -2.523159   -0.310233    0.085349
     14          6           0       -1.147329   -0.343585   -0.192415
     15          6           0       -3.321772   -1.539720    0.229852
     16          8           0       -4.510784   -1.584762    0.488431
     17          8           0       -2.595088   -2.679628    0.043068
     18          7           0       -0.366514    3.247868   -0.416171
     19          1           0        4.155759    0.182437   -0.518907
     20          1           0        5.145250   -1.035086    0.238920
     21          1           0        3.854908   -1.975524   -1.592073
     22          1           0        3.455620   -2.761354   -0.074229
     23          1           0        1.299003   -1.713172    0.039335
     24          1           0        1.500267   -2.359169   -1.567493
     25          1           0        0.746920   -0.335420   -2.292235
     26          1           0        2.392237    0.208088   -2.016952
     27          1           0        1.363048    2.233601    0.859028
     28          1           0        2.783011    1.724176   -0.028246
     29          1           0        1.381636   -0.385306    1.613691
     30          1           0        2.125541    0.893618    2.528738
     31          1           0        3.571952   -1.196337    2.157096
     32          1           0        4.303961    0.379988    1.938096
     33          1           0       -2.950408    3.060673    0.182137
     34          1           0       -4.224556    0.937376    0.473605
     35          1           0       -0.669199   -1.305834   -0.306879
     36          1           0       -3.231932   -3.406922    0.164855
     37          1           0       -0.927571    4.049920   -0.675221
     38          1           0        0.438079    3.111850   -1.021304
 ---------------------------------------------------------------------

 SCF Done:  E(UB3LYP) =  -805.799014346     A.U. after   33 cycles
 SCF Done:  E(UB3LYP) =  -805.799014346     a.u. after    1 cycles

 The electronic state is 2-A.
 Alpha  occ. eigenvalues --  -19.04946 -18.97914 -14.20899 -14.20669 -10.16680
 Alpha  occ. eigenvalues --  -10.09431 -10.09232 -10.09192 -10.08894 -10.07322
 Alpha  occ. eigenvalues --  -10.07136 -10.06934 -10.06734 -10.06683 -10.05630
 Alpha  occ. eigenvalues --  -10.05561 -10.05341 -10.05234  -0.98464  -0.89043
 Alpha  occ. eigenvalues --   -0.83849  -0.79968  -0.72796  -0.71116  -0.68098
 Alpha  occ. eigenvalues --   -0.63714  -0.63260  -0.60007  -0.59536  -0.53449
 Alpha  occ. eigenvalues --   -0.52762  -0.49947  -0.49252  -0.46562  -0.44809
 Alpha  occ. eigenvalues --   -0.41458  -0.40582  -0.39034  -0.37814  -0.37323
 Alpha  occ. eigenvalues --   -0.37038  -0.36383  -0.34749  -0.33076  -0.32905
 Alpha  occ. eigenvalues --   -0.32718  -0.32013  -0.31443  -0.30589  -0.29445
 Alpha  occ. eigenvalues --   -0.28611  -0.27912  -0.27642  -0.27087  -0.25859
 Alpha  occ. eigenvalues --   -0.24538  -0.23993  -0.23635  -0.23413  -0.21853
 Alpha  occ. eigenvalues --   -0.21188  -0.20907  -0.19706  -0.16229  -0.15520
 Alpha  occ. eigenvalues --   -0.11707  -0.09119   0.04180
 Alpha virt. eigenvalues --    0.05768   0.06605   0.07527   0.07612   0.08338
 Alpha virt. eigenvalues --    0.08860   0.09468   0.10121   0.10390   0.10740
 Alpha virt. eigenvalues --    0.10805   0.11432   0.11941   0.12603   0.13127

  Beta  occ. eigenvalues --  -19.04917 -18.97758 -14.20904 -14.20597 -10.16501
  Beta  occ. eigenvalues --  -10.09414 -10.09186 -10.09018 -10.08951 -10.07315
  Beta  occ. eigenvalues --  -10.07126 -10.06914 -10.06733 -10.06682 -10.05628
  Beta  occ. eigenvalues --  -10.05534 -10.05230 -10.05174  -0.98294  -0.88815
  Beta  occ. eigenvalues --   -0.83799  -0.79848  -0.72651  -0.71083  -0.68083
  Beta  occ. eigenvalues --   -0.63636  -0.63018  -0.59922  -0.59512  -0.53129
  Beta  occ. eigenvalues --   -0.52644  -0.49896  -0.49175  -0.46494  -0.44719
  Beta  occ. eigenvalues --   -0.41386  -0.40478  -0.38939  -0.37760  -0.37212
  Beta  occ. eigenvalues --   -0.37014  -0.36233  -0.34694  -0.32903  -0.32692
  Beta  occ. eigenvalues --   -0.32318  -0.31952  -0.31379  -0.30535  -0.29343
  Beta  occ. eigenvalues --   -0.28531  -0.27772  -0.27599  -0.26895  -0.25659
  Beta  occ. eigenvalues --   -0.24513  -0.23941  -0.23582  -0.23382  -0.21777
  Beta  occ. eigenvalues --   -0.20985  -0.20581  -0.19127  -0.16088  -0.15345
  Beta  occ. eigenvalues --   -0.11360  -0.08657
  Beta virt. eigenvalues --    0.06216   0.07253   0.07607   0.07752   0.08325
  Beta virt. eigenvalues --    0.08597   0.09043   0.09687   0.10284   0.10452
  Beta virt. eigenvalues --    0.10897   0.10937   0.11633   0.12060   0.12737

 Mulliken charges and spin densities:
               1          2
     1  C   -0.111755   0.124696
     2  C    0.303598  -1.017366
     3  C   -0.399344   0.507944
     4  C    0.567509  -0.761786
     5  N    0.165975   0.051141
     6  C   -0.351319  -0.018243
     7  C   -0.090430  -0.143711
     8  C   -0.168740  -0.375995
     9  C   -0.362530   0.026946
    10  C    0.254468  -0.046810
    11  C   -0.158422  -0.200746
    12  C   -0.343283  -0.083119
    13  C    0.450844  -0.052640
    14  C   -0.551668   0.107104
    15  C    0.197621   0.063558
    16  O   -0.393681   0.055195
    17  O   -0.232327   0.007767
    18  N   -0.386206   0.026371
    19  H    0.048374   0.060378
    20  H   -0.368154   0.548341
    21  H   -0.103755   0.246626
    22  H    0.050795   0.085218
    23  H    0.151079  -0.057815
    24  H    0.100271   0.075135
    25  H    0.141452   0.031364
    26  H   -0.137634   0.322881
    27  H    0.311183  -0.133790
    28  H   -0.225992   0.367074
    29  H    0.177076  -0.021750
    30  H    0.119119   0.042789
    31  H    0.068696   0.070900
    32  H   -0.015994   0.150283
    33  H   -0.031134   0.160157
    34  H    0.174903  -0.012670
    35  H    0.063217   0.065198
    36  H    0.281406   0.001646
    37  H   -0.106888   0.364770
    38  H   -0.088330   0.362960
 Sum of Mulliken charges =  -1.00000   1.00000

 Dipole moment (field-independent basis, Debye):
    X=              0.8346    Y=             -2.2688    Z=              1.6405  Tot=              2.9215
 Quadrupole moment (field-independent basis, Debye-Ang):
   XX=           -195.7824   YY=           -145.3397   ZZ=           -132.9865
   XY=             -0.7168   XZ=              5.6264   YZ=              5.1158

 Summary of Natural Population Analysis:

                                       Natural Population
                Natural  -----------------------------------------------
    Atom  No    Charge         Core      Valence    Rydberg      Total
 -----------------------------------------------------------------------
      C    1   -0.19419      0.99962     2.18600    0.00857     3.19419
      C    2   -0.18743      0.99963     2.17873    0.00908     3.18743
      C    3   -0.20700      0.99962     2.19961    0.00777     3.20700
      C    4   -0.08399      0.99960     2.07276    0.01162     3.08399
      N    5   -0.28161      0.99968     2.76694    0.01498     3.78161
      C    6   -0.08779      0.99959     2.07741    0.01080     3.08779
      C    7   -0.20374      0.99962     2.19687    0.00725     3.20374
      C    8   -0.18987      0.99963     2.18125    0.00900     3.18987
      C    9    0.04931      0.99943     1.93969    0.01157     2.95069
      C   10    0.12435      0.99946     1.86505    0.01114     2.87565
      C   11   -0.14227      0.99953     2.13313    0.00960     3.14227
      C   12   -0.06368      0.99955     2.05421    0.00991     3.06368
      C   13   -0.09164      0.99939     2.08232    0.00993     3.09164
      C   14   -0.07202      0.99950     2.06377    0.00875     3.07202
      C   15    0.41394      0.99965     1.56083    0.02558     2.58606
      O   16   -0.31525      0.99987     3.30932    0.00606     4.31525
      O   17   -0.35487      0.99988     3.34794    0.00706     4.35487
      N   18   -0.39456      0.99971     2.88474    0.01012     3.89456
      H   19    0.09527      0.00000     0.40335    0.00138     0.40473
      H   20    0.09943      0.00000     0.39931    0.00126     0.40057
      H   21    0.09522      0.00000     0.40369    0.00109     0.40478
      H   22    0.09322      0.00000     0.40588    0.00090     0.40678
      H   23    0.09911      0.00000     0.39964    0.00125     0.40089
      H   24    0.09890      0.00000     0.40023    0.00087     0.40110
      H   25    0.10189      0.00000     0.39714    0.00097     0.39811
      H   26    0.09327      0.00000     0.40549    0.00125     0.40673
      H   27    0.10699      0.00000     0.39139    0.00162     0.39301
      H   28    0.09124      0.00000     0.40754    0.00122     0.40876
      H   29    0.10079      0.00000     0.39808    0.00114     0.39921
      H   30    0.09666      0.00000     0.40255    0.00079     0.40334
      H   31    0.09345      0.00000     0.40566    0.00089     0.40655
      H   32    0.09513      0.00000     0.40391    0.00096     0.40487
      H   33    0.09602      0.00000     0.40312    0.00086     0.40398
      H   34    0.10631      0.00000     0.39277    0.00093     0.39369
      H   35    0.10656      0.00000     0.39182    0.00162     0.39344
      H   36    0.23453      0.00000     0.26276    0.00271     0.26547
      H   37    0.18559      0.00000     0.31175    0.00266     0.31441
      H   38    0.19275      0.00000     0.30441    0.00284     0.30725
 =======================================================================
   * Total *    0.00000     17.99296    48.79104    0.21600    67.00000

 Normal termination of Gaussian 16 at Fri Dec 11 23:22:21 2020.
