 Gaussian 16, Revision A.03,

 -----------------------------------------------------------
 # opt freq B3LYP/6-31G(d) empiricaldispersion=gd3bj scf=xqc
 -----------------------------------------------------------

 -------------------------------
 CID_137146096_JID_3871_neutraal
 -------------------------------
 Symbolic Z-matrix:
 Charge =  0 Multiplicity = 1

 SCF Done:  E(RB3LYP) =  -610.159166685     A.U. after   16 cycles
 SCF Done:  E(RB3LYP) =  -610.162936011     A.U. after   12 cycles
 SCF Done:  E(RB3LYP) =  -610.163411114     A.U. after   12 cycles
 SCF Done:  E(RB3LYP) =  -610.163506506     A.U. after   12 cycles
 SCF Done:  E(RB3LYP) =  -610.163752963     A.U. after   11 cycles
 SCF Done:  E(RB3LYP) =  -610.164296467     A.U. after   13 cycles
 SCF Done:  E(RB3LYP) =  -610.161976718     A.U. after   15 cycles
 SCF Done:  E(RB3LYP) =  -610.164610659     A.U. after   12 cycles
 SCF Done:  E(RB3LYP) =  -610.164778030     A.U. after   11 cycles
 SCF Done:  E(RB3LYP) =  -610.164827677     A.U. after   10 cycles
 SCF Done:  E(RB3LYP) =  -610.164835171     A.U. after    8 cycles
 SCF Done:  E(RB3LYP) =  -610.164837642     A.U. after    8 cycles
 SCF Done:  E(RB3LYP) =  -610.164838347     A.U. after    8 cycles
 SCF Done:  E(RB3LYP) =  -610.164838701     A.U. after    7 cycles
 Optimization completed.
    -- Stationary point found.
 Normal termination of Gaussian 16 at Sun Dec 13 12:20:49 2020.

 --------------------------------------------------------------------
 #N Geom=AllCheck Guess=TCheck SCRF=Check GenChk RB3LYP/6-31G(d) Freq
 --------------------------------------------------------------------

 Structure from the checkpoint file:  "JID_3871.chk"
 -------------------------------
 CID_137146096_JID_3871_neutraal
 -------------------------------
 Charge =  0 Multiplicity = 1

 SCF Done:  E(RB3LYP) =  -610.164838701     A.U. after    1 cycles

  Exact polarizability: 132.706   0.782 116.829   0.907  -2.826  70.236
 Approx polarizability: 174.283  -3.346 206.082   3.822 -14.290 107.251

                      1                      2                      3
                      A                      A                      A
 Frequencies --     55.4523                81.5594               138.1282
 Red. masses --      2.7462                 4.2557                 3.8824
 Frc consts  --      0.0050                 0.0167                 0.0436
 IR Inten    --      0.0671                 5.4282                 1.5236

                      4                      5                      6
                      A                      A                      A
 Frequencies --    147.8117               170.4423               215.4073
 Red. masses --      4.0904                 5.4275                 2.3442
 Frc consts  --      0.0527                 0.0929                 0.0641
 IR Inten    --      2.7888                 0.4175                 1.7722

                      7                      8                      9
                      A                      A                      A
 Frequencies --    232.6625               261.0212               288.8432
 Red. masses --      1.0376                 1.3827                 2.2507
 Frc consts  --      0.0331                 0.0555                 0.1106
 IR Inten    --      0.0474                 2.1560                 0.7611

                     10                     11                     12
                      A                      A                      A
 Frequencies --    314.2651               344.0437               422.1010
 Red. masses --      3.0648                 4.4146                 3.4960
 Frc consts  --      0.1783                 0.3079                 0.3670
 IR Inten    --      1.2045                 1.6327                11.6117

                     13                     14                     15
                      A                      A                      A
 Frequencies --    434.0915               451.2124               498.1673
 Red. masses --      3.1262                 3.9918                 1.9174
 Frc consts  --      0.3471                 0.4788                 0.2804
 IR Inten    --     10.2468                 2.0863                44.3830

                     16                     17                     18
                      A                      A                      A
 Frequencies --    507.3056               564.0178               599.1431
 Red. masses --      2.3501                 4.2620                 3.3141
 Frc consts  --      0.3564                 0.7988                 0.7009
 IR Inten    --     30.0626                19.3990                10.5120

                     19                     20                     21
                      A                      A                      A
 Frequencies --    657.0765               677.9771               698.5436
 Red. masses --      5.5635                 3.6740                 4.1267
 Frc consts  --      1.4152                 0.9950                 1.1864
 IR Inten    --      1.7734                 6.8086                 3.2620

                     22                     23                     24
                      A                      A                      A
 Frequencies --    746.8804               790.6152               875.3761
 Red. masses --      5.0973                 4.4667                 2.9612
 Frc consts  --      1.6753                 1.6450                 1.3369
 IR Inten    --      8.1352                12.8765                36.8778

                     25                     26                     27
                      A                      A                      A
 Frequencies --    898.5261               922.8157               948.5641
 Red. masses --      2.6475                 2.9809                 1.1605
 Frc consts  --      1.2593                 1.4956                 0.6152
 IR Inten    --      1.6067                 8.4103                 1.6797

                     28                     29                     30
                      A                      A                      A
 Frequencies --    982.7115              1028.1486              1048.4302
 Red. masses --      1.4950                 3.0625                 3.3837
 Frc consts  --      0.8506                 1.9074                 2.1914
 IR Inten    --      0.6860                 2.8343                89.0334

                     31                     32                     33
                      A                      A                      A
 Frequencies --   1071.1081              1083.8434              1099.9939
 Red. masses --      2.8663                 2.3586                 3.0801
 Frc consts  --      1.9375                 1.6325                 2.1958
 IR Inten    --     15.8074                18.1857                18.6646

                     34                     35                     36
                      A                      A                      A
 Frequencies --   1142.9366              1149.3385              1207.7813
 Red. masses --      2.3902                 2.2310                 1.9673
 Frc consts  --      1.8396                 1.7364                 1.6908
 IR Inten    --      5.2438                 4.7980                 0.0248

                     37                     38                     39
                      A                      A                      A
 Frequencies --   1228.6716              1280.8040              1286.8597
 Red. masses --      1.2669                 1.4157                 2.3006
 Frc consts  --      1.1269                 1.3683                 2.2447
 IR Inten    --      3.5438                 7.0121                12.9107

                     40                     41                     42
                      A                      A                      A
 Frequencies --   1339.5263              1347.5696              1360.7395
 Red. masses --      1.7982                 1.3568                 1.3669
 Frc consts  --      1.9011                 1.4517                 1.4912
 IR Inten    --      0.9260                 1.3179                 1.2874

                     43                     44                     45
                      A                      A                      A
 Frequencies --   1386.3455              1412.7569              1423.2018
 Red. masses --      2.4439                 1.3838                 1.2405
 Frc consts  --      2.7675                 1.6273                 1.4804
 IR Inten    --     59.6939                31.4986                11.0804

                     46                     47                     48
                      A                      A                      A
 Frequencies --   1445.4363              1465.5746              1480.6314
 Red. masses --      1.2480                 3.2389                 1.1094
 Frc consts  --      1.5362                 4.0988                 1.4329
 IR Inten    --      3.9497                19.6256                 6.4430

                     49                     50                     51
                      A                      A                      A
 Frequencies --   1514.6586              1518.5913              1520.9299
 Red. masses --      2.0304                 1.0531                 1.2242
 Frc consts  --      2.7445                 1.4308                 1.6685
 IR Inten    --     19.8435                 2.1424                 7.7861

                     52                     53                     54
                      A                      A                      A
 Frequencies --   1525.8863              1535.4331              1547.4836
 Red. masses --      1.1475                 1.1550                 1.2273
 Frc consts  --      1.5742                 1.6044                 1.7317
 IR Inten    --     16.4945                23.5957                12.2467

                     55                     56                     57
                      A                      A                      A
 Frequencies --   1579.2957              1630.6649              1775.4388
 Red. masses --      8.2106                 4.8698                12.0489
 Frc consts  --     12.0657                 7.6295                22.3773
 IR Inten    --    195.1348               262.9599               281.2740

                     58                     59                     60
                      A                      A                      A
 Frequencies --   3045.1327              3050.7758              3051.4662
 Red. masses --      1.0756                 1.0693                 1.0431
 Frc consts  --      5.8767                 5.8636                 5.7225
 IR Inten    --      4.8852                 5.8792                28.9194

                     61                     62                     63
                      A                      A                      A
 Frequencies --   3058.3780              3061.7219              3115.0894
 Red. masses --      1.0354                 1.0658                 1.1030
 Frc consts  --      5.7062                 5.8865                 6.3061
 IR Inten    --     33.4091                40.1925                19.5637

                     64                     65                     66
                      A                      A                      A
 Frequencies --   3124.7574              3126.5615              3132.5428
 Red. masses --      1.0965                 1.1028                 1.1022
 Frc consts  --      6.3083                 6.3515                 6.3723
 IR Inten    --     10.2042                39.9473                29.8815

                     67                     68                     69
                      A                      A                      A
 Frequencies --   3147.8419              3153.3298              3672.5577
 Red. masses --      1.1008                 1.1000                 1.0814
 Frc consts  --      6.4269                 6.4445                 8.5934
 IR Inten    --     13.3117                24.3793                98.0069

 - Thermochemistry -
 -------------------
 Temperature   298.150 Kelvin.  Pressure   1.00000 Atm.
 Atom     1 has atomic number  6 and mass  12.00000

 Molecular mass:   180.08988 amu.
 Principal axes and moments of inertia in atomic units:
                           1         2         3
     Eigenvalues --  1314.156502758.926673820.79283
           X            1.00000   0.00110  -0.00259
           Y           -0.00105   0.99986   0.01671
           Z            0.00261  -0.01671   0.99986
 This molecule is an asymmetric top.
 Rotational symmetry number  1.
 Warning -- assumption of classical behavior for rotation
           may cause significant error
 Rotational temperatures (Kelvin)      0.06591     0.03139     0.02267
 Rotational constants (GHZ):           1.37331     0.65415     0.47235
 Zero-point vibrational energy     544916.9 (Joules/Mol)
                                  130.23827 (Kcal/Mol)
 Warning -- explicit consideration of  18 degrees of freedom as
           vibrations may cause significant error
 Vibrational temperatures:     79.78   117.35   198.74   212.67   245.23
          (Kelvin)            309.92   334.75   375.55   415.58   452.16
                              495.00   607.31   624.56   649.19   716.75
                              729.90   811.50   862.03   945.39   975.46
                             1005.05  1074.59  1137.52  1259.47  1292.78
                             1327.73  1364.77  1413.90  1479.28  1508.46
                             1541.09  1559.41  1582.65  1644.43  1653.64
                             1737.73  1767.78  1842.79  1851.50  1927.28
                             1938.85  1957.80  1994.64  2032.64  2047.67
                             2079.66  2108.64  2130.30  2179.26  2184.91
                             2188.28  2195.41  2209.15  2226.48  2272.25
                             2346.16  2554.46  4381.27  4389.39  4390.38
                             4400.32  4405.13  4481.92  4495.83  4498.42
                             4507.03  4529.04  4536.94  5283.99

 Zero-point correction=                           0.207548 (Hartree/Particle)
 Thermal correction to Energy=                    0.219363
 Thermal correction to Enthalpy=                  0.220307
 Thermal correction to Gibbs Free Energy=         0.169863
 Sum of electronic and zero-point Energies=           -609.957291
 Sum of electronic and thermal Energies=              -609.945475
 Sum of electronic and thermal Enthalpies=            -609.944531
 Sum of electronic and thermal Free Energies=         -609.994976

                     E (Thermal)             CV                S
                      KCal/Mol        Cal/Mol-Kelvin    Cal/Mol-Kelvin
 Total                  137.653             45.274            106.170
 Electronic               0.000              0.000              0.000
 Translational            0.889              2.981             41.472
 Rotational               0.889              2.981             31.005
 Vibrational            135.875             39.313             33.693
 Vibration     1          0.596              1.975              4.613
 Vibration     2          0.600              1.962              3.853
 Vibration     3          0.614              1.915              2.830
 Vibration     4          0.617              1.905              2.700
 Vibration     5          0.626              1.879              2.431
 Vibration     6          0.645              1.818              1.997
 Vibration     7          0.653              1.791              1.858
 Vibration     8          0.669              1.744              1.655
 Vibration     9          0.685              1.694              1.481
 Vibration    10          0.702              1.646              1.340
 Vibration    11          0.723              1.587              1.193
 Vibration    12          0.784              1.422              0.885
 Vibration    13          0.795              1.396              0.845
 Vibration    14          0.810              1.358              0.792
 Vibration    15          0.854              1.254              0.663
 Vibration    16          0.863              1.234              0.640
 Vibration    17          0.920              1.109              0.516
 Vibration    18          0.957              1.034              0.451

 Optimization completed.
    -- Stationary point found.
 Normal termination of Gaussian 16 at Sun Dec 13 12:26:41 2020.

 ----------------------------------------------------------------------
 # B3LYP/6-311++G(d,p) empiricaldispersion=gd3bj scf=xqc pop=npa geom=c
 heck
 ----------------------------------------------------------------------

 ---------------------------------------
 CID_137146096_JID_3871_Energie_neutraal
 ---------------------------------------
 Structure from the checkpoint file:  "JID_3871.chk"
 Charge =  0 Multiplicity = 1

 SCF Done:  E(RB3LYP) =  -610.334754552     A.U. after   15 cycles
 Normal termination of Gaussian 16 at Sun Dec 13 12:28:48 2020.

 ----------------------------------------------------------------------
 # B3LYP/6-311++G(d,p) empiricaldispersion=gd3bj scf=xqc pop=npa geom=c
 heck
 ----------------------------------------------------------------------

 -------------------------------------
 CID_137146096_JID_3871_Energie_kation
 -------------------------------------
 Structure from the checkpoint file:  "JID_3871.chk"
 Charge =  1 Multiplicity = 2

 SCF Done:  E(UB3LYP) =  -610.015259589     A.U. after   30 cycles
 Normal termination of Gaussian 16 at Sun Dec 13 12:34:49 2020.
 Gaussian 16:  ES64L-G16RevA.03 25-Dec-2016

 ----------------------------------------------------------------------
 # B3LYP/6-311++G(d,p) empiricaldispersion=gd3bj scf=xqc pop=npa geom=c
 heck
 ----------------------------------------------------------------------

 ------------------------------------
 CID_137146096_JID_3871_Energie_anion
 ------------------------------------
 Structure from the checkpoint file:  "JID_3871.chk"
 Charge = -1 Multiplicity = 2

                         Standard orientation:
 ---------------------------------------------------------------------
 Center     Atomic      Atomic             Coordinates (Angstroms)
 Number     Number       Type             X           Y           Z
 ---------------------------------------------------------------------
      1          6           0       -3.505914   -0.449540   -0.603777
      2          6           0       -2.277093    0.407304   -0.282803
      3          6           0       -2.506289    1.278987    0.967066
      4          6           0       -1.034509   -0.423776   -0.111258
      5          7           0       -1.084635   -1.734540    0.076500
      6          7           0        0.230196   -2.133563    0.226689
      7          6           0        1.081580   -1.099848    0.132780
      8          6           0        0.320834    0.049108   -0.081706
      9          6           0        0.957944    1.346317   -0.138743
     10          8           0        0.396140    2.419284   -0.318884
     11          6           0        2.471919    1.260296    0.133720
     12          6           0        3.088522   -0.060033   -0.325011
     13          8           0        2.409122   -1.222200    0.231862
     14          1           0       -3.726238   -1.138314    0.217950
     15          1           0       -3.350743   -1.050261   -1.505424
     16          1           0       -4.379314    0.192870   -0.759205
     17          1           0       -2.085027    1.090773   -1.120287
     18          1           0       -2.658898    0.649855    1.851721
     19          1           0       -1.652464    1.938780    1.141187
     20          1           0       -3.397308    1.902510    0.832478
     21          1           0        0.447546   -3.110806    0.348862
     22          1           0        2.622574    1.389244    1.214204
     23          1           0        2.970615    2.094614   -0.368429
     24          1           0        3.040828   -0.148105   -1.417596
     25          1           0        4.125437   -0.164003   -0.003201
 ---------------------------------------------------------------------

 SCF Done:  E(UB3LYP) =  -610.325101443     A.U. after   33 cycles
 SCF Done:  E(UB3LYP) =  -610.325101443     a.u. after    1 cycles

 The electronic state is 2-A.
 Alpha  occ. eigenvalues --  -19.06158 -18.96315 -14.27201 -14.21658 -10.15711
 Alpha  occ. eigenvalues --  -10.12405 -10.11543 -10.08749 -10.07434 -10.06217
 Alpha  occ. eigenvalues --  -10.05683 -10.05141 -10.04916  -0.98788  -0.92372
 Alpha  occ. eigenvalues --   -0.89840  -0.73572  -0.68207  -0.67922  -0.65862
 Alpha  occ. eigenvalues --   -0.58113  -0.55231  -0.52742  -0.52477  -0.44114
 Alpha  occ. eigenvalues --   -0.43701  -0.41167  -0.38811  -0.38037  -0.35257
 Alpha  occ. eigenvalues --   -0.34174  -0.33289  -0.32212  -0.31188  -0.30538
 Alpha  occ. eigenvalues --   -0.29175  -0.28607  -0.28108  -0.25546  -0.24574
 Alpha  occ. eigenvalues --   -0.23888  -0.23337  -0.22989  -0.21982  -0.18430
 Alpha  occ. eigenvalues --   -0.14578  -0.12231  -0.11999   0.04913
 Alpha virt. eigenvalues --    0.07380   0.07446   0.07847   0.09373   0.09903
 Alpha virt. eigenvalues --    0.10387   0.10777   0.11472   0.12054   0.12756
 Alpha virt. eigenvalues --    0.13026   0.13984   0.14317   0.14553   0.16302

  Beta  occ. eigenvalues --  -19.06121 -18.96072 -14.27184 -14.21639 -10.15619
  Beta  occ. eigenvalues --  -10.12354 -10.11319 -10.08676 -10.07439 -10.06223
  Beta  occ. eigenvalues --  -10.05680 -10.05125 -10.04952  -0.98714  -0.92319
  Beta  occ. eigenvalues --   -0.89376  -0.73487  -0.68134  -0.67754  -0.65786
  Beta  occ. eigenvalues --   -0.58092  -0.55087  -0.52524  -0.52396  -0.44059
  Beta  occ. eigenvalues --   -0.43578  -0.40892  -0.38715  -0.37854  -0.35201
  Beta  occ. eigenvalues --   -0.34120  -0.33174  -0.32151  -0.30811  -0.30290
  Beta  occ. eigenvalues --   -0.29094  -0.28446  -0.28065  -0.25390  -0.24344
  Beta  occ. eigenvalues --   -0.23665  -0.23212  -0.22815  -0.21581  -0.18380
  Beta  occ. eigenvalues --   -0.14312  -0.11935  -0.11735
  Beta virt. eigenvalues --    0.07295   0.08139   0.08861   0.09121   0.09789
  Beta virt. eigenvalues --    0.10211   0.10785   0.10866   0.11731   0.12373
  Beta virt. eigenvalues --    0.12757   0.13234   0.13851   0.14361   0.14645

 Mulliken charges and spin densities:
               1          2
     1  C   -0.451530  -0.261093
     2  C    0.001686   0.648575
     3  C   -0.483541  -0.202528
     4  C   -0.310798   0.116600
     5  N   -0.097407  -0.042244
     6  N   -0.112049  -0.095183
     7  C    0.322107  -0.652265
     8  C    0.704822   0.398426
     9  C    0.134609  -0.801228
    10  O   -0.380256   0.102531
    11  C   -0.542654   0.259663
    12  C    1.065903  -1.352581
    13  O   -0.179622   0.070603
    14  H    0.143885   0.012209
    15  H    0.090814   0.063739
    16  H    0.091811   0.036801
    17  H    0.168246   0.027625
    18  H    0.046534   0.083334
    19  H    0.188637  -0.004615
    20  H    0.032115   0.085945
    21  H   -0.224800   0.566664
    22  H   -0.139833   0.342790
    23  H    0.091117   0.070402
    24  H    0.092821   0.066890
    25  H   -1.252618   1.458943
 Sum of Mulliken charges =  -1.00000   1.00000

 Dipole moment (field-independent basis, Debye):
    X=             -5.7012    Y=              0.4912    Z=             -1.5150  Tot=              5.9195
 Quadrupole moment (field-independent basis, Debye-Ang):
   XX=           -137.2774   YY=           -118.7974   ZZ=            -95.3561
   XY=              1.7924   XZ=             -6.1926   YZ=              0.7736

 Summary of Natural Population Analysis:

                                       Natural Population
                Natural  -----------------------------------------------
    Atom  No    Charge         Core      Valence    Rydberg      Total
 -----------------------------------------------------------------------
      C    1   -0.28193      0.99966     2.27725    0.00502     3.28193
      C    2   -0.12841      0.99958     2.12046    0.00837     3.12841
      C    3   -0.27914      0.99965     2.27494    0.00455     3.27914
      C    4    0.12066      0.99955     1.86308    0.01671     2.87934
      N    5   -0.17099      0.99969     2.65903    0.01228     3.67099
      N    6   -0.18974      0.99965     2.67772    0.01237     3.68974
      C    7    0.29049      0.99938     1.69456    0.01558     2.70951
      C    8   -0.16322      0.99938     2.15439    0.00945     3.16322
      C    9    0.29915      0.99959     1.68015    0.02111     2.70085
      O   10   -0.28653      0.99988     3.28066    0.00599     4.28653
      C   11   -0.24703      0.99961     2.23804    0.00939     3.24703
      C   12   -0.00423      0.99956     1.99292    0.01176     3.00423
      O   13   -0.26609      0.99986     3.25585    0.01038     4.26609
      H   14    0.10130      0.00000     0.39765    0.00105     0.39870
      H   15    0.10135      0.00000     0.39776    0.00089     0.39865
      H   16    0.09199      0.00000     0.40723    0.00078     0.40801
      H   17    0.10562      0.00000     0.39267    0.00170     0.39438
      H   18    0.09381      0.00000     0.40526    0.00093     0.40619
      H   19    0.11368      0.00000     0.38526    0.00106     0.38632
      H   20    0.09168      0.00000     0.40742    0.00090     0.40832
      H   21    0.20199      0.00000     0.29130    0.00672     0.29801
      H   22    0.11189      0.00000     0.38572    0.00239     0.38811
      H   23    0.11087      0.00000     0.38809    0.00104     0.38913
      H   24    0.08283      0.00000     0.41568    0.00149     0.41717
      H   25    0.10001      0.00000     0.39252    0.00746     0.39999
 =======================================================================
   * Total *   -0.00000     12.99503    34.83561    0.16936    48.00000

 Normal termination of Gaussian 16 at Sun Dec 13 12:40:55 2020.
