 Gaussian 16, Revision A.03,

 -----------------------------------------------------------
 # opt freq B3LYP/6-31G(d) empiricaldispersion=gd3bj scf=xqc
 -----------------------------------------------------------

 ------------------------------
 CID_82097056_JID_5172_neutraal
 ------------------------------
 Symbolic Z-matrix:
 Charge =  0 Multiplicity = 1

 SCF Done:  E(RB3LYP) =  -1029.25716671     A.U. after   16 cycles
 SCF Done:  E(RB3LYP) =  -1029.26138729     A.U. after   13 cycles
 SCF Done:  E(RB3LYP) =  -1029.26200635     A.U. after   13 cycles
 SCF Done:  E(RB3LYP) =  -1029.26225737     A.U. after   13 cycles
 SCF Done:  E(RB3LYP) =  -1029.26244914     A.U. after   11 cycles
 SCF Done:  E(RB3LYP) =  -1029.26255180     A.U. after   12 cycles
 SCF Done:  E(RB3LYP) =  -1029.26260780     A.U. after   10 cycles
 SCF Done:  E(RB3LYP) =  -1029.26262440     A.U. after   10 cycles
 SCF Done:  E(RB3LYP) =  -1029.26262638     A.U. after    8 cycles
 SCF Done:  E(RB3LYP) =  -1029.26262675     A.U. after    8 cycles
 SCF Done:  E(RB3LYP) =  -1029.26262681     A.U. after    7 cycles
 SCF Done:  E(RB3LYP) =  -1029.26262683     A.U. after    7 cycles
 Optimization completed.
    -- Stationary point found.
 Normal termination of Gaussian 16 at Thu Dec 10 15:01:56 2020.

 --------------------------------------------------------------------
 #N Geom=AllCheck Guess=TCheck SCRF=Check GenChk RB3LYP/6-31G(d) Freq
 --------------------------------------------------------------------

 Structure from the checkpoint file:  "JID_5172.chk"
 ------------------------------
 CID_82097056_JID_5172_neutraal
 ------------------------------
 Charge =  0 Multiplicity = 1

 SCF Done:  E(RB3LYP) =  -1029.26262683     A.U. after    1 cycles

  Exact polarizability: 214.459  -0.526 150.610  -1.903   2.871  72.787
 Approx polarizability: 338.908 -17.088 248.915  -1.864   9.677 115.947

                      1                      2                      3
                      A                      A                      A
 Frequencies --     51.8421                64.2860                92.9556
 Red. masses --      4.1279                 5.6583                 6.9885
 Frc consts  --      0.0065                 0.0138                 0.0356
 IR Inten    --      3.7371                 3.1550                 0.4927

                      4                      5                      6
                      A                      A                      A
 Frequencies --    128.0527               138.9992               165.1409
 Red. masses --      4.0296                 3.9924                 2.8305
 Frc consts  --      0.0389                 0.0454                 0.0455
 IR Inten    --      2.2179                 3.6148                 3.1457

                      7                      8                      9
                      A                      A                      A
 Frequencies --    173.8112               202.3253               235.4770
 Red. masses --      1.0634                 1.3585                 2.9127
 Frc consts  --      0.0189                 0.0328                 0.0952
 IR Inten    --      0.8509                 1.3557                 0.8744

                     10                     11                     12
                      A                      A                      A
 Frequencies --    290.2117               310.9432               329.5934
 Red. masses --      4.9839                 5.9469                 6.2622
 Frc consts  --      0.2473                 0.3388                 0.4008
 IR Inten    --      2.9967                 2.8839                 2.0465

                     13                     14                     15
                      A                      A                      A
 Frequencies --    370.5258               406.0182               420.9046
 Red. masses --      5.6550                 3.7070                 4.9313
 Frc consts  --      0.4574                 0.3600                 0.5147
 IR Inten    --      2.3040                 2.2545                 5.4142

                     16                     17                     18
                      A                      A                      A
 Frequencies --    443.0038               465.7936               495.0435
 Red. masses --      3.5899                 3.3630                 5.6861
 Frc consts  --      0.4151                 0.4299                 0.8210
 IR Inten    --      0.4896                 4.1970                22.9038

                     19                     20                     21
                      A                      A                      A
 Frequencies --    528.2615               584.7698               595.4780
 Red. masses --      3.7397                 5.1303                 4.6403
 Frc consts  --      0.6149                 1.0336                 0.9695
 IR Inten    --      2.2127                 4.8835                 7.7983

                     22                     23                     24
                      A                      A                      A
 Frequencies --    633.7485               652.2965               689.0604
 Red. masses --      4.3621                 3.3191                 6.9328
 Frc consts  --      1.0322                 0.8321                 1.9394
 IR Inten    --     14.5816                 7.4855                 8.1301

                     25                     26                     27
                      A                      A                      A
 Frequencies --    710.6162               740.5175               783.2428
 Red. masses --      4.7241                 4.2681                 5.0487
 Frc consts  --      1.4055                 1.3790                 1.8248
 IR Inten    --      1.2493                 1.3253                 8.6002

                     28                     29                     30
                      A                      A                      A
 Frequencies --    829.5506               852.3248               893.3704
 Red. masses --      4.8585                 1.3291                 1.4563
 Frc consts  --      1.9699                 0.5689                 0.6848
 IR Inten    --      4.0273                22.7949                11.4707

                     31                     32                     33
                      A                      A                      A
 Frequencies --    929.5402               966.7774               981.6911
 Red. masses --      1.9715                 2.6169                 2.0921
 Frc consts  --      1.0037                 1.4411                 1.1879
 IR Inten    --      7.5212                48.0127                 5.2984

                     34                     35                     36
                      A                      A                      A
 Frequencies --    983.2445              1056.2089              1071.5398
 Red. masses --      1.3392                 1.8571                 4.6876
 Frc consts  --      0.7628                 1.2206                 3.1711
 IR Inten    --      0.7677                 1.4811                 9.4730

                     37                     38                     39
                      A                      A                      A
 Frequencies --   1105.4400              1124.3859              1158.8127
 Red. masses --      3.7458                 2.1683                 1.3573
 Frc consts  --      2.6969                 1.6151                 1.0739
 IR Inten    --      0.2308                 8.4376                34.0797

                     40                     41                     42
                      A                      A                      A
 Frequencies --   1170.9389              1175.0864              1203.9555
 Red. masses --      1.3118                 1.6676                 1.3530
 Frc consts  --      1.0597                 1.3567                 1.1555
 IR Inten    --      3.2263                48.3389                 2.2509

                     43                     44                     45
                      A                      A                      A
 Frequencies --   1278.1630              1284.6142              1312.6739
 Red. masses --      1.8659                 1.6343                 1.6164
 Frc consts  --      1.7960                 1.5890                 1.6410
 IR Inten    --    148.6149               154.6753                 6.6375

                     46                     47                     48
                      A                      A                      A
 Frequencies --   1336.8848              1360.7753              1381.3828
 Red. masses --      6.4783                 3.9561                 4.2222
 Frc consts  --      6.8218                 4.3160                 4.7470
 IR Inten    --     14.5785                99.8819               101.6080

                     49                     50                     51
                      A                      A                      A
 Frequencies --   1411.4472              1453.8795              1469.2007
 Red. masses --      1.3716                 2.8087                 1.3792
 Frc consts  --      1.6100                 3.4980                 1.7540
 IR Inten    --     66.9588                57.5515                39.7213

                     52                     53                     54
                      A                      A                      A
 Frequencies --   1478.7227              1500.1292              1508.2474
 Red. masses --      1.0975                 1.0601                 1.0481
 Frc consts  --      1.4140                 1.4056                 1.4048
 IR Inten    --     12.3338                13.1147                 9.8484

                     55                     56                     57
                      A                      A                      A
 Frequencies --   1522.7876              1535.7926              1550.5590
 Red. masses --      1.1027                 2.1804                 1.1390
 Frc consts  --      1.5066                 3.0301                 1.6134
 IR Inten    --     33.3678                30.3047                16.1959

                     58                     59                     60
                      A                      A                      A
 Frequencies --   1614.3462              1649.4859              1779.3199
 Red. masses --      7.6667                 5.5135                10.7863
 Frc consts  --     11.7721                 8.8384                20.1202
 IR Inten    --     49.2543                31.6597               535.1920

                     61                     62                     63
                      A                      A                      A
 Frequencies --   1783.8371              3053.5350              3055.3434
 Red. masses --     10.8355                 1.0385                 1.0441
 Frc consts  --     20.3147                 5.7053                 5.7428
 IR Inten    --     94.1423                 3.1302                32.3257

                     64                     65                     66
                      A                      A                      A
 Frequencies --   3074.3953              3112.8398              3128.9503
 Red. masses --      1.0673                 1.1000                 1.0968
 Frc consts  --      5.9436                 6.2799                 6.3265
 IR Inten    --      9.7121                 9.6528                18.9893

                     67                     68                     69
                      A                      A                      A
 Frequencies --   3173.2126              3177.2223              3200.1316
 Red. masses --      1.1009                 1.0983                 1.0998
 Frc consts  --      6.5314                 6.5322                 6.6361
 IR Inten    --     12.1416                 0.1488                 0.6138

                     70                     71                     72
                      A                      A                      A
 Frequencies --   3202.9543              3236.3517              3244.6970
 Red. masses --      1.0900                 1.0925                 1.0887
 Frc consts  --      6.5882                 6.7416                 6.7529
 IR Inten    --      4.7174                 1.7601                 3.4597

 - Thermochemistry -
 -------------------
 Temperature   298.150 Kelvin.  Pressure   1.00000 Atm.
 Atom     1 has atomic number  6 and mass  12.00000

 Molecular mass:   221.05105 amu.
 Principal axes and moments of inertia in atomic units:
                           1         2         3
     Eigenvalues --  1738.106905149.564976703.40037
           X            0.99989   0.01479  -0.00203
           Y           -0.01481   0.99983  -0.01054
           Z            0.00188   0.01057   0.99994
 This molecule is an asymmetric top.
 Rotational symmetry number  1.
 Warning -- assumption of classical behavior for rotation
           may cause significant error
 Rotational temperatures (Kelvin)      0.04983     0.01682     0.01292
 Rotational constants (GHZ):           1.03834     0.35046     0.26923
 Zero-point vibrational energy     532802.8 (Joules/Mol)
                                  127.34292 (Kcal/Mol)
 Warning -- explicit consideration of  21 degrees of freedom as
           vibrations may cause significant error
 Vibrational temperatures:     74.59    92.49   133.74   184.24   199.99
          (Kelvin)            237.60   250.08   291.10   338.80   417.55
                              447.38   474.21   533.10   584.17   605.59
                              637.38   670.17   712.26   760.05   841.35
                              856.76   911.82   938.51   991.40  1022.42
                             1065.44  1126.91  1193.54  1226.31  1285.36
                             1337.40  1390.98  1412.43  1414.67  1519.65
                             1541.71  1590.48  1617.74  1667.27  1684.72
                             1690.69  1732.22  1838.99  1848.27  1888.65
                             1923.48  1957.85  1987.50  2030.76  2091.81
                             2113.85  2127.55  2158.35  2170.03  2190.95
                             2209.66  2230.91  2322.68  2373.24  2560.04
                             2566.54  4393.36  4395.96  4423.37  4478.68
                             4501.86  4565.55  4571.31  4604.28  4608.34
                             4656.39  4668.40

 Zero-point correction=                           0.202934 (Hartree/Particle)
 Thermal correction to Energy=                    0.216555
 Thermal correction to Enthalpy=                  0.217500
 Thermal correction to Gibbs Free Energy=         0.162333
 Sum of electronic and zero-point Energies=          -1029.059693
 Sum of electronic and thermal Energies=             -1029.046071
 Sum of electronic and thermal Enthalpies=           -1029.045127
 Sum of electronic and thermal Free Energies=        -1029.100294

                     E (Thermal)             CV                S
                      KCal/Mol        Cal/Mol-Kelvin    Cal/Mol-Kelvin
 Total                  135.891             51.758            116.107
 Electronic               0.000              0.000              0.000
 Translational            0.889              2.981             42.082
 Rotational               0.889              2.981             32.462
 Vibrational            134.113             45.796             41.563
 Vibration     1          0.596              1.977              4.746
 Vibration     2          0.597              1.971              4.321
 Vibration     3          0.602              1.954              3.597
 Vibration     4          0.611              1.925              2.975
 Vibration     5          0.615              1.914              2.818
 Vibration     6          0.624              1.885              2.490
 Vibration     7          0.627              1.875              2.394
 Vibration     8          0.639              1.837              2.112
 Vibration     9          0.655              1.786              1.837
 Vibration    10          0.686              1.692              1.473
 Vibration    11          0.700              1.653              1.357
 Vibration    12          0.712              1.616              1.262
 Vibration    13          0.743              1.533              1.078
 Vibration    14          0.771              1.457              0.941
 Vibration    15          0.783              1.425              0.889
 Vibration    16          0.803              1.376              0.817
 Vibration    17          0.823              1.326              0.749
 Vibration    18          0.851              1.261              0.671
 Vibration    19          0.883              1.187              0.591
 Vibration    20          0.942              1.064              0.477
 Vibration    21          0.953              1.041              0.457

 Optimization completed.
    -- Stationary point found.
 Normal termination of Gaussian 16 at Thu Dec 10 15:09:31 2020.

 ----------------------------------------------------------------------
 # B3LYP/6-311++G(d,p) empiricaldispersion=gd3bj scf=xqc pop=npa geom=c
 heck
 ----------------------------------------------------------------------

 --------------------------------------
 CID_82097056_JID_5172_Energie_neutraal
 --------------------------------------
 Structure from the checkpoint file:  "JID_5172.chk"
 Charge =  0 Multiplicity = 1

 SCF Done:  E(RB3LYP) =  -1029.46052043     A.U. after   16 cycles
 Normal termination of Gaussian 16 at Thu Dec 10 15:13:07 2020.

 ----------------------------------------------------------------------
 # B3LYP/6-311++G(d,p) empiricaldispersion=gd3bj scf=xqc pop=npa geom=c
 heck
 ----------------------------------------------------------------------

 ------------------------------------
 CID_82097056_JID_5172_Energie_kation
 ------------------------------------
 Structure from the checkpoint file:  "JID_5172.chk"
 Charge =  1 Multiplicity = 2

 SCF Done:  E(UB3LYP) =  -1029.16112204     A.U. after   29 cycles
 Normal termination of Gaussian 16 at Thu Dec 10 15:22:10 2020.
 Gaussian 16:  ES64L-G16RevA.03 25-Dec-2016

 ----------------------------------------------------------------------
 # B3LYP/6-311++G(d,p) empiricaldispersion=gd3bj scf=xqc pop=npa geom=c
 heck
 ----------------------------------------------------------------------

 -----------------------------------
 CID_82097056_JID_5172_Energie_anion
 -----------------------------------
 Structure from the checkpoint file:  "JID_5172.chk"
 Charge = -1 Multiplicity = 2

                         Standard orientation:
 ---------------------------------------------------------------------
 Center     Atomic      Atomic             Coordinates (Angstroms)
 Number     Number       Type             X           Y           Z
 ---------------------------------------------------------------------
      1          6           0        3.786841    1.706626    0.230097
      2          6           0        3.510623    0.217554    0.114433
      3          8           0        4.428984   -0.587567    0.099804
      4          6           0        2.091503   -0.246145    0.017382
      5          6           0        1.013381    0.645661    0.034377
      6          6           0       -0.307718    0.194257   -0.068600
      7          6           0       -0.538982   -1.196519   -0.148206
      8          6           0        0.541190   -2.086234   -0.157086
      9          6           0        1.845888   -1.621000   -0.090018
     10         16           0       -2.190420   -1.819864   -0.265637
     11          6           0       -2.943812   -0.528105    0.780432
     12          6           0       -2.672225    0.863289    0.237897
     13          8           0       -3.556894    1.702831    0.176496
     14          7           0       -1.368218    1.127712   -0.150300
     15          6           0       -1.078916    2.487821   -0.604734
     16          1           0        4.865632    1.858696    0.284516
     17          1           0        3.315639    2.125532    1.127140
     18          1           0        3.386747    2.249203   -0.634628
     19          1           0        1.199829    1.707741    0.122930
     20          1           0        0.339957   -3.151803   -0.211930
     21          1           0        2.689991   -2.300949   -0.101462
     22          1           0       -2.564067   -0.620831    1.804233
     23          1           0       -4.023403   -0.675935    0.785415
     24          1           0       -0.611536    3.085985    0.186465
     25          1           0       -0.412850    2.449325   -1.470064
     26          1           0       -2.025054    2.951538   -0.876563
 ---------------------------------------------------------------------

 SCF Done:  E(UB3LYP) =  -1029.48288598     A.U. after   28 cycles

 The electronic state is 2-A.
 Alpha  occ. eigenvalues --  -88.73436 -18.98840 -18.92986 -14.24768 -10.16985
 Alpha  occ. eigenvalues --  -10.09918 -10.09887 -10.09036 -10.07784 -10.05934
 Alpha  occ. eigenvalues --  -10.04133 -10.03957 -10.03791 -10.02356 -10.02173
 Alpha  occ. eigenvalues --   -7.82035  -5.78416  -5.78063  -5.77437  -0.94264
 Alpha  occ. eigenvalues --   -0.87136  -0.84255  -0.72856  -0.69661  -0.63187
 Alpha  occ. eigenvalues --   -0.62285  -0.60732  -0.59397  -0.54264  -0.50270
 Alpha  occ. eigenvalues --   -0.47646  -0.44468  -0.41287  -0.38056  -0.37265
 Alpha  occ. eigenvalues --   -0.36201  -0.34727  -0.33389  -0.32411  -0.31500
 Alpha  occ. eigenvalues --   -0.31117  -0.30521  -0.30010  -0.28764  -0.28201
 Alpha  occ. eigenvalues --   -0.26555  -0.26232  -0.24918  -0.23346  -0.22174
 Alpha  occ. eigenvalues --   -0.21771  -0.20894  -0.17811  -0.16983  -0.14771
 Alpha  occ. eigenvalues --   -0.11084  -0.09406  -0.09188   0.03539
 Alpha virt. eigenvalues --    0.07857   0.08666   0.08930   0.09875   0.10560
 Alpha virt. eigenvalues --    0.10747   0.11732   0.12154   0.12727   0.12960
 Alpha virt. eigenvalues --    0.13551   0.14053   0.14373   0.14792   0.15545

  Beta  occ. eigenvalues --  -88.73426 -18.98816 -18.92482 -14.24784 -10.16957
  Beta  occ. eigenvalues --  -10.09881 -10.09868 -10.09072 -10.07497 -10.05533
  Beta  occ. eigenvalues --  -10.04186 -10.03853 -10.03818 -10.02192 -10.01991
  Beta  occ. eigenvalues --   -7.82025  -5.78404  -5.78068  -5.77399  -0.94220
  Beta  occ. eigenvalues --   -0.86222  -0.84233  -0.72503  -0.69444  -0.62731
  Beta  occ. eigenvalues --   -0.62072  -0.60580  -0.59211  -0.54056  -0.50045
  Beta  occ. eigenvalues --   -0.47336  -0.43961  -0.41206  -0.37958  -0.37026
  Beta  occ. eigenvalues --   -0.35922  -0.34573  -0.33264  -0.32239  -0.31368
  Beta  occ. eigenvalues --   -0.31052  -0.29892  -0.29825  -0.28706  -0.28065
  Beta  occ. eigenvalues --   -0.26292  -0.25694  -0.24410  -0.23079  -0.21906
  Beta  occ. eigenvalues --   -0.20854  -0.19791  -0.17412  -0.16417  -0.14010
  Beta  occ. eigenvalues --   -0.10428  -0.08893  -0.07990
  Beta virt. eigenvalues --    0.07793   0.08520   0.08961   0.09768   0.09873
  Beta virt. eigenvalues --    0.10601   0.10969   0.11789   0.12152   0.12874
  Beta virt. eigenvalues --    0.12966   0.13849   0.14049   0.14393   0.14817

 Mulliken charges and spin densities:
               1          2
     1  C   -0.496561  -0.018732
     2  C   -0.068246   0.177008
     3  O   -0.391002   0.182427
     4  C    0.930793   0.056804
     5  C   -0.949361   0.062748
     6  C   -0.582002   0.026876
     7  C    1.014988   0.068933
     8  C   -0.522514   0.078522
     9  C   -0.115653   0.202359
    10  S   -0.639169   0.072999
    11  C   -0.477635  -0.049458
    12  C    0.170008   0.053929
    13  O   -0.385456   0.005297
    14  N    0.212279  -0.007328
    15  C   -0.285872  -0.012877
    16  H    0.161310  -0.001677
    17  H    0.103151   0.021204
    18  H    0.103339   0.016608
    19  H    0.099052  -0.003186
    20  H    0.132317   0.012259
    21  H    0.161073  -0.012447
    22  H    0.209563  -0.003914
    23  H    0.147272   0.051341
    24  H    0.154310  -0.001770
    25  H    0.148266   0.010650
    26  H    0.165749   0.011426
 Sum of Mulliken charges =  -1.00000   1.00000

 Dipole moment (field-independent basis, Debye):
    X=             -4.5094    Y=              2.2861    Z=              0.3986  Tot=              5.0714
 Quadrupole moment (field-independent basis, Debye-Ang):
   XX=           -169.8230   YY=           -110.3179   ZZ=           -102.2261
   XY=             13.1987   XZ=             -2.9431   YZ=             -2.0048

 Summary of Natural Population Analysis:

                                       Natural Population
                Natural  -----------------------------------------------
    Atom  No    Charge         Core      Valence    Rydberg      Total
 -----------------------------------------------------------------------
      C    1   -0.33231      0.99964     2.32837    0.00430     3.33231
      C    2    0.30188      0.99966     1.67789    0.02058     2.69812
      O    3   -0.25606      0.99988     3.24889    0.00729     4.25606
      C    4   -0.02733      0.99939     2.01876    0.00918     3.02733
      C    5   -0.08887      0.99953     2.08200    0.00734     3.08887
      C    6    0.05487      0.99943     1.93647    0.00922     2.94513
      C    7   -0.03117      0.99939     2.02168    0.01010     3.03117
      C    8   -0.12143      0.99952     2.11193    0.00997     3.12143
      C    9   -0.05316      0.99955     2.04354    0.01006     3.05316
      S   10    0.12172      4.99956     2.85808    0.02064     7.87828
      C   11   -0.28285      0.99956     2.27322    0.01007     3.28285
      C   12    0.34345      0.99964     1.63336    0.02354     2.65655
      O   13   -0.32758      0.99987     3.32133    0.00637     4.32758
      N   14   -0.24329      0.99960     2.73434    0.00936     3.74329
      C   15   -0.18099      0.99965     2.17467    0.00667     3.18099
      H   16    0.10214      0.00000     0.39618    0.00168     0.39786
      H   17    0.10022      0.00000     0.39862    0.00116     0.39978
      H   18    0.09978      0.00000     0.39906    0.00116     0.40022
      H   19    0.09680      0.00000     0.40214    0.00107     0.40320
      H   20    0.09557      0.00000     0.40321    0.00122     0.40443
      H   21    0.10652      0.00000     0.39230    0.00118     0.39348
      H   22    0.10846      0.00000     0.39028    0.00126     0.39154
      H   23    0.11245      0.00000     0.38545    0.00211     0.38755
      H   24    0.09078      0.00000     0.40802    0.00120     0.40922
      H   25    0.09857      0.00000     0.40032    0.00111     0.40143
      H   26    0.11183      0.00000     0.38705    0.00112     0.38817
 =======================================================================
   * Total *    0.00001     18.99387    38.82717    0.17895    57.99999

 Normal termination of Gaussian 16 at Thu Dec 10 15:35:10 2020.
