 Gaussian 16, Revision A.03,

 -----------------------------------------------------------
 # opt freq B3LYP/6-31G(d) empiricaldispersion=gd3bj scf=xqc
 -----------------------------------------------------------

 ------------------------------
 CID_85673822_JID_1967_neutraal
 ------------------------------
 Symbolic Z-matrix:
 Charge =  0 Multiplicity = 1

 SCF Done:  E(RB3LYP) =  -537.706227310     A.U. after   14 cycles
 SCF Done:  E(RB3LYP) =  -537.713542867     A.U. after   13 cycles
 SCF Done:  E(RB3LYP) =  -537.715607840     A.U. after   13 cycles
 SCF Done:  E(RB3LYP) =  -537.718342938     A.U. after   13 cycles
 SCF Done:  E(RB3LYP) =  -537.720525693     A.U. after   14 cycles
 SCF Done:  E(RB3LYP) =  -537.721222340     A.U. after   11 cycles
 SCF Done:  E(RB3LYP) =  -537.720854351     A.U. after   12 cycles
 SCF Done:  E(RB3LYP) =  -537.722316991     A.U. after   13 cycles
 SCF Done:  E(RB3LYP) =  -537.722521234     A.U. after   11 cycles
 SCF Done:  E(RB3LYP) =  -537.722580930     A.U. after   11 cycles
 SCF Done:  E(RB3LYP) =  -537.722595088     A.U. after    8 cycles
 SCF Done:  E(RB3LYP) =  -537.722596918     A.U. after    9 cycles
 SCF Done:  E(RB3LYP) =  -537.722598269     A.U. after    9 cycles
 SCF Done:  E(RB3LYP) =  -537.722599808     A.U. after    9 cycles
 SCF Done:  E(RB3LYP) =  -537.722600705     A.U. after    9 cycles
 SCF Done:  E(RB3LYP) =  -537.722600781     A.U. after    7 cycles
 Optimization completed.
    -- Stationary point found.

 1\1\GINC-NODE315\FOpt\RB3LYP\6-31G(d)\C8H12O3\VSC10255\08-Dec-2020\0\\
 # opt freq B3LYP/6-31G(d) empiricaldispersion=gd3bj scf=xqc\\CID_85673
 822_JID_1967_neutraal\\0,1\C,0.9640960496,-0.2839864448,-0.1927944747\
 C,0.7478327869,-0.3266771274,1.3075354794\C,-0.4303415438,0.4491811781
 ,1.8887937935\C,-0.5096839877,-1.0387181223,1.8211261549\C,2.015070848
 ,-0.4381588373,2.0832101651\O,3.0863670907,-0.5935474482,1.5206830991\
 C,2.0756386301,-0.3268099544,3.6258401687\O,1.7999732573,1.0003700439,
 4.0192139164\C,1.3788689084,0.8914896472,5.3779417797\C,0.5524817696,-

 Normal termination of Gaussian 16 at Tue Dec  8 21:49:17 2020.

 --------------------------------------------------------------------
 #N Geom=AllCheck Guess=TCheck SCRF=Check GenChk RB3LYP/6-31G(d) Freq
 --------------------------------------------------------------------

 Structure from the checkpoint file:  "JID_1967.chk"
 ------------------------------
 CID_85673822_JID_1967_neutraal
 ------------------------------
 Charge =  0 Multiplicity = 1

 SCF Done:  E(RB3LYP) =  -537.722600781     A.U. after    1 cycles

  Exact polarizability:  99.710   2.341  90.806   0.473   2.240  70.101
 Approx polarizability: 121.690   8.692 142.344   1.516   4.267 108.472

                      1                      2                      3
                      A                      A                      A
 Frequencies --     33.9378                70.4986                78.6617
 Red. masses --      3.6598                 2.9971                 5.2022
 Frc consts  --      0.0025                 0.0088                 0.0190
 IR Inten    --      0.5556                 2.8173                 2.6821

                      4                      5                      6
                      A                      A                      A
 Frequencies --    172.4960               201.6403               215.8465
 Red. masses --      2.9493                 4.4086                 1.1344
 Frc consts  --      0.0517                 0.1056                 0.0311
 IR Inten    --      0.6741                 3.0798                 0.3805

                      7                      8                      9
                      A                      A                      A
 Frequencies --    248.4699               277.3885               300.1214
 Red. masses --      3.3233                 2.9584                 3.0936
 Frc consts  --      0.1209                 0.1341                 0.1642
 IR Inten    --      1.5651                 1.9549                 3.7087

                     10                     11                     12
                      A                      A                      A
 Frequencies --    354.1415               373.3214               437.3497
 Red. masses --      2.9728                 2.2657                 6.3506
 Frc consts  --      0.2197                 0.1860                 0.7157
 IR Inten    --      0.4836                 0.3348                15.9816

                     13                     14                     15
                      A                      A                      A
 Frequencies --    568.6882               669.4493               686.9661
 Red. masses --      5.6985                 2.5000                 4.5246
 Frc consts  --      1.0858                 0.6601                 1.2581
 IR Inten    --      5.3847                 5.4824                30.8508

                     16                     17                     18
                      A                      A                      A
 Frequencies --    734.6681               753.3059               805.3410
 Red. masses --      5.5695                 6.6045                 1.0841
 Frc consts  --      1.7711                 2.2082                 0.4143
 IR Inten    --     20.5971                 1.6081                 0.1772

                     19                     20                     21
                      A                      A                      A
 Frequencies --    834.2766               869.1382               904.8387
 Red. masses --      4.0099                 2.3293                 1.7504
 Frc consts  --      1.6444                 1.0367                 0.8443
 IR Inten    --      3.9002                44.1589                 7.8238

                     22                     23                     24
                      A                      A                      A
 Frequencies --    949.4734               960.6745               976.1779
 Red. masses --      1.7101                 2.0156                 1.5477
 Frc consts  --      0.9083                 1.0960                 0.8689
 IR Inten    --     16.6963                15.3879                 8.3161

                     25                     26                     27
                      A                      A                      A
 Frequencies --    997.7147              1017.2312              1059.0035
 Red. masses --      3.1160                 3.7474                 1.2802
 Frc consts  --      1.8275                 2.2847                 0.8459
 IR Inten    --     20.0065                51.8298                12.0135

                     28                     29                     30
                      A                      A                      A
 Frequencies --   1063.1651              1083.8737              1089.3765
 Red. masses --      5.4467                 2.4737                 1.3545
 Frc consts  --      3.6273                 1.7122                 0.9471
 IR Inten    --     32.5453                12.7577                 9.7150

                     31                     32                     33
                      A                      A                      A
 Frequencies --   1123.7437              1130.9808              1165.8979
 Red. masses --      3.7321                 1.5333                 1.8197
 Frc consts  --      2.7768                 1.1556                 1.4573
 IR Inten    --    155.0034                 3.1031                 8.3780

                     34                     35                     36
                      A                      A                      A
 Frequencies --   1200.2668              1215.2168              1233.7098
 Red. masses --      2.5800                 1.3238                 1.1668
 Frc consts  --      2.1899                 1.1518                 1.0464
 IR Inten    --     38.1938                 0.6365                 1.9056

                     37                     38                     39
                      A                      A                      A
 Frequencies --   1257.4817              1328.5839              1346.7037
 Red. masses --      1.2019                 3.0837                 1.1758
 Frc consts  --      1.1198                 3.2070                 1.2564
 IR Inten    --     15.4907                 2.3927                 2.3881

                     40                     41                     42
                      A                      A                      A
 Frequencies --   1384.1500              1395.1723              1399.0058
 Red. masses --      3.4453                 1.3051                 1.3420
 Frc consts  --      3.8891                 1.4967                 1.5475
 IR Inten    --     33.9755                17.6518                 6.5699

                     43                     44                     45
                      A                      A                      A
 Frequencies --   1406.4583              1447.3807              1492.4805
 Red. masses --      1.4742                 1.2878                 1.0890
 Frc consts  --      1.7182                 1.5895                 1.4291
 IR Inten    --     26.4531                 1.8049                 4.9588

                     46                     47                     48
                      A                      A                      A
 Frequencies --   1516.3632              1528.2648              1529.7437
 Red. masses --      1.0472                 1.1351                 1.1692
 Frc consts  --      1.4186                 1.5620                 1.6121
 IR Inten    --      1.8229                10.2583                 2.9160

                     49                     50                     51
                      A                      A                      A
 Frequencies --   1538.1304              1556.8609              1781.0630
 Red. masses --      1.1028                 1.0977                11.3774
 Frc consts  --      1.5371                 1.5676                21.2644
 IR Inten    --      1.3060                 0.2200               170.7131

                     52                     53                     54
                      A                      A                      A
 Frequencies --   3019.5131              3030.0861              3051.2724
 Red. masses --      1.0844                 1.0727                 1.0626
 Frc consts  --      5.8253                 5.8030                 5.8290
 IR Inten    --     51.2838                63.4143                43.4773

                     55                     56                     57
                      A                      A                      A
 Frequencies --   3058.8037              3109.9465              3127.3916
 Red. masses --      1.0352                 1.1031                 1.1028
 Frc consts  --      5.7066                 6.2861                 6.3550
 IR Inten    --     24.5965                44.8493                19.5148

                     58                     59                     60
                      A                      A                      A
 Frequencies --   3133.1851              3146.5641              3162.4233
 Red. masses --      1.1024                 1.0977                 1.0565
 Frc consts  --      6.3762                 6.4032                 6.2256
 IR Inten    --     17.2354                21.3782                13.4943

                     61                     62                     63
                      A                      A                      A
 Frequencies --   3165.9202              3260.9233              3273.3646
 Red. masses --      1.0625                 1.1124                 1.1120
 Frc consts  --      6.2744                 6.9692                 7.0199
 IR Inten    --     18.0926                 1.9460                 1.4751

 - Thermochemistry -
 -------------------
 Temperature   298.150 Kelvin.  Pressure   1.00000 Atm.
 Atom     1 has atomic number  6 and mass  12.00000

 Molecular mass:   156.07864 amu.
 Principal axes and moments of inertia in atomic units:
                           1         2         3
     Eigenvalues --   914.066402062.205712426.56960
           X            0.99992  -0.01218  -0.00288
           Y            0.01219   0.99992   0.00369
           Z            0.00284  -0.00373   0.99999
 This molecule is an asymmetric top.
 Rotational symmetry number  1.
 Warning -- assumption of classical behavior for rotation
           may cause significant error
 Rotational temperatures (Kelvin)      0.09476     0.04200     0.03569
 Rotational constants (GHZ):           1.97441     0.87515     0.74374
 Zero-point vibrational energy     510233.0 (Joules/Mol)
                                  121.94860 (Kcal/Mol)
 Warning -- explicit consideration of  13 degrees of freedom as
           vibrations may cause significant error
 Vibrational temperatures:     48.83   101.43   113.18   248.18   290.12
          (Kelvin)            310.55   357.49   399.10   431.81   509.53
                              537.13   629.25   818.22   963.19   988.39
                             1057.02  1083.84  1158.71  1200.34  1250.50
                             1301.86  1366.08  1382.20  1404.50  1435.49
                             1463.57  1523.67  1529.66  1559.45  1567.37
                             1616.82  1627.23  1677.47  1726.92  1748.43
                             1775.03  1809.24  1911.54  1937.61  1991.48
                             2007.34  2012.86  2023.58  2082.46  2147.35
                             2181.71  2198.83  2200.96  2213.03  2239.98
                             2562.55  4344.41  4359.62  4390.10  4400.94
                             4474.52  4499.62  4507.95  4527.20  4550.02
                             4555.05  4691.74  4709.64

 Zero-point correction=                           0.194337 (Hartree/Particle)
 Thermal correction to Energy=                    0.205025
 Thermal correction to Enthalpy=                  0.205969
 Thermal correction to Gibbs Free Energy=         0.157250
 Sum of electronic and zero-point Energies=           -537.528263
 Sum of electronic and thermal Energies=              -537.517576
 Sum of electronic and thermal Enthalpies=            -537.516632
 Sum of electronic and thermal Free Energies=         -537.565351

                     E (Thermal)             CV                S
                      KCal/Mol        Cal/Mol-Kelvin    Cal/Mol-Kelvin
 Total                  128.655             39.585            102.538
 Electronic               0.000              0.000              0.000
 Translational            0.889              2.981             41.045
 Rotational               0.889              2.981             29.904
 Vibrational            126.878             33.623             31.588
 Vibration     1          0.594              1.983              5.585
 Vibration     2          0.598              1.968              4.139
 Vibration     3          0.600              1.964              3.924
 Vibration     4          0.626              1.876              2.408
 Vibration     5          0.639              1.838              2.118
 Vibration     6          0.645              1.817              1.994
 Vibration     7          0.662              1.765              1.741
 Vibration     8          0.678              1.715              1.550
 Vibration     9          0.693              1.673              1.416
 Vibration    10          0.730              1.567              1.148
 Vibration    11          0.745              1.527              1.066
 Vibration    12          0.798              1.389              0.835
 Vibration    13          0.925              1.099              0.507

 Optimization completed.
    -- Stationary point found.

 1\1\GINC-NODE315\Freq\RB3LYP\6-31G(d)\C8H12O3\VSC10255\08-Dec-2020\0\\
 #N Geom=AllCheck Guess=TCheck SCRF=Check GenChk RB3LYP/6-31G(d) Freq\\
 CID_85673822_JID_1967_neutraal\\0,1\C,0.9640960496,-0.2839864448,-0.19
 27944747\C,0.7478327869,-0.3266771274,1.3075354794\C,-0.4303415438,0.4
 491811781,1.8887937935\C,-0.5096839877,-1.0387181223,1.8211261549\C,2.
 015070848,-0.4381588373,2.0832101651\O,3.0863670907,-0.5935474482,1.52
 06830991\C,2.0756386301,-0.3268099544,3.6258401687\O,1.7999732573,1.00
 03700439,4.0192139164\C,1.3788689084,0.8914896472,5.3779417797\C,0.552

 Normal termination of Gaussian 16 at Tue Dec  8 21:53:59 2020.

 ----------------------------------------------------------------------
 # B3LYP/6-311++G(d,p) empiricaldispersion=gd3bj scf=xqc pop=npa geom=c
 heck
 ----------------------------------------------------------------------

 --------------------------------------
 CID_85673822_JID_1967_Energie_neutraal
 --------------------------------------
 Structure from the checkpoint file:  "JID_1967.chk"
 Charge =  0 Multiplicity = 1

 SCF Done:  E(RB3LYP) =  -537.877371192     A.U. after   14 cycles
 Normal termination of Gaussian 16 at Tue Dec  8 21:55:33 2020.

 ----------------------------------------------------------------------
 # B3LYP/6-311++G(d,p) empiricaldispersion=gd3bj scf=xqc pop=npa geom=c
 heck
 ----------------------------------------------------------------------

 ------------------------------------
 CID_85673822_JID_1967_Energie_kation
 ------------------------------------
 Structure from the checkpoint file:  "JID_1967.chk"
 Charge =  1 Multiplicity = 2

 SCF Done:  E(UB3LYP) =  -537.549162118     A.U. after   22 cycles
 Normal termination of Gaussian 16 at Tue Dec  8 21:58:44 2020.
 Gaussian 16:  ES64L-G16RevA.03 25-Dec-2016

 -----------------------------------
 CID_85673822_JID_1967_Energie_anion
 -----------------------------------
 Structure from the checkpoint file:  "JID_1967.chk"
 Charge = -1 Multiplicity = 2

                         Standard orientation:
 ---------------------------------------------------------------------
 Center     Atomic      Atomic             Coordinates (Angstroms)
 Number     Number       Type             X           Y           Z
 ---------------------------------------------------------------------
      1          6           0        3.037093    0.088965   -0.275207
      2          6           0        1.576120   -0.257571   -0.062950
      3          6           0        1.004401   -1.459942   -0.808171
      4          6           0        1.258591   -1.573923    0.657133
      5          6           0        0.717584    0.934154    0.187444
      6          8           0        1.204264    2.045493    0.315220
      7          6           0       -0.826835    0.863865    0.262306
      8          8           0       -1.354313    0.591675   -1.018248
      9          6           0       -2.650239    0.051598   -0.764836
     10          6           0       -2.411810   -0.805576    0.481973
     11          8           0       -1.323412   -0.143687    1.137311
     12          1           0        3.620135   -0.821171   -0.450266
     13          1           0        3.448170    0.603811    0.598292
     14          1           0        3.161648    0.752026   -1.137350
     15          1           0       -0.015913   -1.387641   -1.162541
     16          1           0        1.688330   -1.950277   -1.495364
     17          1           0        2.127789   -2.135215    0.988903
     18          1           0        0.412702   -1.586073    1.331667
     19          1           0       -1.161965    1.849639    0.618841
     20          1           0       -2.963750   -0.511458   -1.645848
     21          1           0       -3.371197    0.857918   -0.566802
     22          1           0       -2.113978   -1.829699    0.224774
     23          1           0       -3.273705   -0.839130    1.155277
 ---------------------------------------------------------------------

 SCF Done:  E(UB3LYP) =  -537.863799154     A.U. after   31 cycles

 The electronic state is 2-A.
 Alpha  occ. eigenvalues --  -19.02923 -19.02422 -18.98396 -10.15873 -10.12598
 Alpha  occ. eigenvalues --  -10.11239 -10.11026 -10.08391 -10.06838 -10.06594
 Alpha  occ. eigenvalues --  -10.05994  -0.98977  -0.92007  -0.89347  -0.76257
 Alpha  occ. eigenvalues --   -0.66613  -0.61232  -0.55558  -0.52803  -0.50720
 Alpha  occ. eigenvalues --   -0.49837  -0.43279  -0.41047  -0.39057  -0.37092
 Alpha  occ. eigenvalues --   -0.36450  -0.35314  -0.33195  -0.31513  -0.30611
 Alpha  occ. eigenvalues --   -0.30316  -0.29081  -0.27005  -0.26903  -0.25672
 Alpha  occ. eigenvalues --   -0.23959  -0.23608  -0.20383  -0.17530  -0.17249
 Alpha  occ. eigenvalues --   -0.16644  -0.12777   0.05119
 Alpha virt. eigenvalues --    0.07124   0.07329   0.08805   0.09284   0.09965
 Alpha virt. eigenvalues --    0.10379   0.11029   0.12507   0.12750   0.12927
 Alpha virt. eigenvalues --    0.14029   0.14211   0.15615   0.16536   0.17616

  Beta  occ. eigenvalues --  -19.02883 -19.02415 -18.98172 -10.15870 -10.12395
  Beta  occ. eigenvalues --  -10.11189 -10.10976 -10.08414 -10.06811 -10.06546
  Beta  occ. eigenvalues --  -10.05986  -0.98920  -0.91591  -0.89293  -0.76192
  Beta  occ. eigenvalues --   -0.66490  -0.61204  -0.55268  -0.52640  -0.50603
  Beta  occ. eigenvalues --   -0.49749  -0.43201  -0.40973  -0.38987  -0.36985
  Beta  occ. eigenvalues --   -0.36280  -0.35163  -0.33119  -0.31391  -0.30540
  Beta  occ. eigenvalues --   -0.30110  -0.29051  -0.26909  -0.26605  -0.24977
  Beta  occ. eigenvalues --   -0.23894  -0.23550  -0.20301  -0.17385  -0.17066
  Beta  occ. eigenvalues --   -0.16570  -0.12615
  Beta virt. eigenvalues --    0.07420   0.08504   0.08999   0.09429   0.09989
  Beta virt. eigenvalues --    0.10477   0.10997   0.11242   0.12648   0.13012
  Beta virt. eigenvalues --    0.13349   0.13963   0.14662   0.15723   0.16525

 Mulliken charges and spin densities:
               1          2
     1  C    0.065243  -0.472547
     2  C   -0.272714   0.949932
     3  C    0.454396  -0.858849
     4  C   -0.585351   0.052104
     5  C    0.276797  -0.442707
     6  O   -0.303203   0.075841
     7  C   -0.838049   0.446181
     8  O   -0.065989   0.006405
     9  C    1.207181  -1.404801
    10  C    0.686790  -0.781659
    11  O   -0.165672   0.041852
    12  H    0.036415   0.071754
    13  H    0.110047   0.053367
    14  H    0.116225   0.044911
    15  H    0.245672  -0.074718
    16  H   -0.306948   0.477333
    17  H    0.148236  -0.014236
    18  H    0.112517   0.084984
    19  H    0.017404   0.173299
    20  H   -0.969171   1.150464
    21  H   -0.135425   0.274169
    22  H   -0.080596   0.230464
    23  H   -0.753806   0.916458
 Sum of Mulliken charges =  -1.00000   1.00000

 Dipole moment (field-independent basis, Debye):
    X=              6.2322    Y=              0.7175    Z=              1.8920  Tot=              6.5525
 Quadrupole moment (field-independent basis, Debye-Ang):
   XX=           -125.4035   YY=           -101.4715   ZZ=            -93.5594
   XY=            -11.0384   XZ=             -0.2359   YZ=             -6.3688

 Summary of Natural Population Analysis:

                                       Natural Population
                Natural  -----------------------------------------------
    Atom  No    Charge         Core      Valence    Rydberg      Total
 -----------------------------------------------------------------------
      C    1   -0.27678      0.99963     2.27159    0.00555     3.27678
      C    2   -0.08779      0.99954     2.07673    0.01152     3.08779
      C    3   -0.18570      0.99960     2.17570    0.01041     3.18570
      C    4   -0.18540      0.99959     2.17727    0.00854     3.18540
      C    5    0.30093      0.99957     1.67777    0.02174     2.69907
      O    6   -0.27072      0.99988     3.26499    0.00585     4.27072
      C    7    0.19083      0.99959     1.78849    0.02109     2.80917
      O    8   -0.29132      0.99989     3.28358    0.00786     4.29132
      C    9   -0.02558      0.99961     2.01306    0.01291     3.02558
      C   10   -0.02391      0.99960     2.01121    0.01310     3.02391
      O   11   -0.30786      0.99989     3.30006    0.00791     4.30786
      H   12    0.09346      0.00000     0.40571    0.00084     0.40654
      H   13    0.10288      0.00000     0.39614    0.00099     0.39712
      H   14    0.10297      0.00000     0.39605    0.00099     0.39703
      H   15    0.11406      0.00000     0.38394    0.00200     0.38594
      H   16    0.10108      0.00000     0.39758    0.00135     0.39892
      H   17    0.09602      0.00000     0.40314    0.00084     0.40398
      H   18    0.11601      0.00000     0.38281    0.00118     0.38399
      H   19    0.07697      0.00000     0.42137    0.00166     0.42303
      H   20    0.09905      0.00000     0.39797    0.00299     0.40095
      H   21    0.08194      0.00000     0.41589    0.00217     0.41806
      H   22    0.08517      0.00000     0.41265    0.00219     0.41483
      H   23    0.09371      0.00000     0.40271    0.00358     0.40629
 =======================================================================
   * Total *   -0.00000     10.99638    30.85640    0.14723    42.00000

 Normal termination of Gaussian 16 at Tue Dec  8 22:02:59 2020.
