 Gaussian 16, Revision A.03,

 -----------------------------------------------------------
 # opt freq B3LYP/6-31G(d) empiricaldispersion=gd3bj scf=xqc
 -----------------------------------------------------------

 -------------------------------
 CID_125121716_JID_5130_neutraal
 -------------------------------
 Symbolic Z-matrix:
 Charge =  0 Multiplicity = 1

 SCF Done:  E(RB3LYP) =  -767.906163339     A.U. after   15 cycles
 SCF Done:  E(RB3LYP) =  -767.914383423     A.U. after   13 cycles
 SCF Done:  E(RB3LYP) =  -767.914686568     A.U. after   13 cycles
 SCF Done:  E(RB3LYP) =  -767.917787610     A.U. after   12 cycles
 SCF Done:  E(RB3LYP) =  -767.919256874     A.U. after   12 cycles
 SCF Done:  E(RB3LYP) =  -767.919536461     A.U. after   12 cycles
 SCF Done:  E(RB3LYP) =  -767.920146368     A.U. after   12 cycles
 SCF Done:  E(RB3LYP) =  -767.920335865     A.U. after   12 cycles
 SCF Done:  E(RB3LYP) =  -767.920675347     A.U. after   12 cycles
 SCF Done:  E(RB3LYP) =  -767.920898333     A.U. after   12 cycles
 SCF Done:  E(RB3LYP) =  -767.921162775     A.U. after    8 cycles
 SCF Done:  E(RB3LYP) =  -767.921164052     A.U. after    8 cycles
 SCF Done:  E(RB3LYP) =  -767.921164520     A.U. after    9 cycles
 SCF Done:  E(RB3LYP) =  -767.921164655     A.U. after    7 cycles
 SCF Done:  E(RB3LYP) =  -767.921164683     A.U. after    6 cycles
 Optimization completed.
    -- Stationary point found.
 Normal termination of Gaussian 16 at Thu Dec 10 14:55:01 2020.

 --------------------------------------------------------------------
 #N Geom=AllCheck Guess=TCheck SCRF=Check GenChk RB3LYP/6-31G(d) Freq
 --------------------------------------------------------------------

 Structure from the checkpoint file:  "JID_5130.chk"
 -------------------------------
 CID_125121716_JID_5130_neutraal
 -------------------------------
 Charge =  0 Multiplicity = 1

 SCF Done:  E(RB3LYP) =  -767.921164683     A.U. after    1 cycles

  Exact polarizability: 136.869 -10.102 119.280   2.697  -2.150 104.618
 Approx polarizability: 186.078 -19.033 163.689   7.831  -8.041 173.668

                      1                      2                      3
                      A                      A                      A
 Frequencies --     30.8388                49.0686                71.0333
 Red. masses --      4.8996                 3.9683                 2.2898
 Frc consts  --      0.0027                 0.0056                 0.0068
 IR Inten    --      1.0536                 0.6476                 0.1078

                      4                      5                      6
                      A                      A                      A
 Frequencies --     88.6442               129.9124               170.1008
 Red. masses --      4.6066                 6.7606                 2.6059
 Frc consts  --      0.0213                 0.0672                 0.0444
 IR Inten    --      0.0127                 0.5203                 0.0714

                      7                      8                      9
                      A                      A                      A
 Frequencies --    174.3638               211.6154               227.7493
 Red. masses --      2.8104                 2.7555                 1.1205
 Frc consts  --      0.0503                 0.0727                 0.0342
 IR Inten    --      1.0468                 1.3878                 0.1428

                     10                     11                     12
                      A                      A                      A
 Frequencies --    240.5233               248.8328               266.4239
 Red. masses --      1.6414                 1.2903                 2.4181
 Frc consts  --      0.0559                 0.0471                 0.1011
 IR Inten    --      0.1272                 0.4607                 0.6141

                     13                     14                     15
                      A                      A                      A
 Frequencies --    280.8398               302.2680               322.1477
 Red. masses --      2.3784                 2.8580                 2.8898
 Frc consts  --      0.1105                 0.1539                 0.1767
 IR Inten    --      0.0996                 0.2748                 0.1655

                     16                     17                     18
                      A                      A                      A
 Frequencies --    324.5204               350.9894               389.0659
 Red. masses --      1.1624                 2.1758                 2.1670
 Frc consts  --      0.0721                 0.1579                 0.1933
 IR Inten    --      0.2057                 0.6296                 1.3289

                     19                     20                     21
                      A                      A                      A
 Frequencies --    414.2267               428.0199               464.3032
 Red. masses --      2.3411                 3.6865                 3.5463
 Frc consts  --      0.2367                 0.3979                 0.4504
 IR Inten    --      0.7955                 2.0015                 3.3125

                     22                     23                     24
                      A                      A                      A
 Frequencies --    491.7872               502.8212               506.6673
 Red. masses --      2.9291                 3.3208                 4.3634
 Frc consts  --      0.4174                 0.4947                 0.6600
 IR Inten    --      0.5531                 1.8924                 3.1295

                     25                     26                     27
                      A                      A                      A
 Frequencies --    543.0119               612.8360               705.3791
 Red. masses --      4.9375                 5.5077                 2.5413
 Frc consts  --      0.8578                 1.2187                 0.7450
 IR Inten    --      3.7483                 4.3318                10.2039

                     28                     29                     30
                      A                      A                      A
 Frequencies --    719.5019               746.2858               770.9700
 Red. masses --      6.6368                 5.2465                12.3908
 Frc consts  --      2.0243                 1.7216                 4.3393
 IR Inten    --     25.3673                 6.3330                10.0349

                     31                     32                     33
                      A                      A                      A
 Frequencies --    796.3204               821.9425               853.2995
 Red. masses --      2.0744                 4.5850                 2.4218
 Frc consts  --      0.7750                 1.8250                 1.0390
 IR Inten    --      0.1485                 3.6104                 5.7154

                     34                     35                     36
                      A                      A                      A
 Frequencies --    858.9598               879.8271               905.0241
 Red. masses --      2.6902                 1.9963                 2.1440
 Frc consts  --      1.1695                 0.9105                 1.0347
 IR Inten    --      1.1957                 0.8198                 0.2638

                     37                     38                     39
                      A                      A                      A
 Frequencies --    931.6438               947.4028               963.2183
 Red. masses --      5.1280                 1.8495                 1.5311
 Frc consts  --      2.6224                 0.9781                 0.8370
 IR Inten    --      5.6017                 5.0165                 0.7950

                     40                     41                     42
                      A                      A                      A
 Frequencies --    973.3383               999.5224              1018.2763
 Red. masses --      2.1636                 1.7148                 5.8565
 Frc consts  --      1.2077                 1.0093                 3.5778
 IR Inten    --      6.3621                 2.1901                88.9388

                     43                     44                     45
                      A                      A                      A
 Frequencies --   1038.5412              1072.4797              1093.3343
 Red. masses --      1.3099                 1.8377                 2.2272
 Frc consts  --      0.8324                 1.2454                 1.5686
 IR Inten    --      1.5434                21.0722                27.1610

                     46                     47                     48
                      A                      A                      A
 Frequencies --   1099.4061              1117.2411              1134.6349
 Red. masses --      1.4998                 2.1331                 1.7539
 Frc consts  --      1.0681                 1.5687                 1.3304
 IR Inten    --      3.1358                63.8131                 5.8290

                     49                     50                     51
                      A                      A                      A
 Frequencies --   1210.1559              1235.1696              1239.1434
 Red. masses --      2.2705                 2.5095                 2.9690
 Frc consts  --      1.9591                 2.2558                 2.6860
 IR Inten    --     13.2990                46.7616                38.3037

                     52                     53                     54
                      A                      A                      A
 Frequencies --   1264.7871              1288.2705              1307.5526
 Red. masses --      3.6647                 3.0747                 1.4773
 Frc consts  --      3.4541                 3.0065                 1.4881
 IR Inten    --     45.9238               136.6242                37.1345

                     55                     56                     57
                      A                      A                      A
 Frequencies --   1348.5213              1350.4553              1391.4723
 Red. masses --      1.3632                 1.2245                 1.4278
 Frc consts  --      1.4605                 1.3158                 1.6288
 IR Inten    --     11.9811                 1.7631                 6.9747

                     58                     59                     60
                      A                      A                      A
 Frequencies --   1404.8601              1411.9153              1430.4239
 Red. masses --      1.4220                 1.4556                 1.2341
 Frc consts  --      1.6536                 1.7097                 1.4878
 IR Inten    --     10.5052                 0.4322                 4.1682

                     61                     62                     63
                      A                      A                      A
 Frequencies --   1441.6981              1446.0935              1455.3105
 Red. masses --      1.3031                 1.2302                 1.2315
 Frc consts  --      1.5958                 1.5158                 1.5368
 IR Inten    --     27.7692                 0.1351                13.7878

                     64                     65                     66
                      A                      A                      A
 Frequencies --   1506.9721              1511.9322              1516.5957
 Red. masses --      1.0651                 1.0611                 1.0597
 Frc consts  --      1.4251                 1.4291                 1.4360
 IR Inten    --      1.2152                 0.8475                 1.8108

                     67                     68                     69
                      A                      A                      A
 Frequencies --   1519.6472              1522.8299              1525.9166
 Red. masses --      1.0616                 1.0579                 1.0514
 Frc consts  --      1.4444                 1.4454                 1.4424
 IR Inten    --      0.8596                 0.7068                 5.1215

                     70                     71                     72
                      A                      A                      A
 Frequencies --   1529.7816              1535.2128              1538.7582
 Red. masses --      1.0563                 1.0651                 1.0526
 Frc consts  --      1.4565                 1.4790                 1.4684
 IR Inten    --      0.0715                 7.5741                 5.3952

                     73                     74                     75
                      A                      A                      A
 Frequencies --   1541.5252              1552.7872              1899.4345
 Red. masses --      1.0606                 1.0587                13.0739
 Frc consts  --      1.4850                 1.5039                27.7909
 IR Inten    --      7.0918                20.7584               503.5799

                     76                     77                     78
                      A                      A                      A
 Frequencies --   3031.4659              3043.1804              3044.6124
 Red. masses --      1.0685                 1.0484                 1.0420
 Frc consts  --      5.7851                 5.7204                 5.6909
 IR Inten    --     13.4213                11.0594                34.2094

                     79                     80                     81
                      A                      A                      A
 Frequencies --   3051.6881              3060.2963              3069.7150
 Red. masses --      1.0457                 1.0398                 1.0967
 Frc consts  --      5.7377                 5.7374                 6.0889
 IR Inten    --     44.5895                17.8762                34.7436

                     82                     83                     84
                      A                      A                      A
 Frequencies --   3070.9142              3092.5968              3104.2094
 Red. masses --      1.0709                 1.0362                 1.0930
 Frc consts  --      5.9504                 5.8391                 6.2057
 IR Inten    --      3.8304                 5.2851                17.1177

                     85                     86                     87
                      A                      A                      A
 Frequencies --   3107.2790              3113.6946              3120.9786
 Red. masses --      1.1014                 1.1010                 1.1015
 Frc consts  --      6.2656                 6.2894                 6.3214
 IR Inten    --      9.3420                43.6980                41.7720

                     88                     89                     90
                      A                      A                      A
 Frequencies --   3122.9068              3126.8781              3134.3668
 Red. masses --      1.1013                 1.1013                 1.1000
 Frc consts  --      6.3280                 6.3442                 6.3670
 IR Inten    --     41.3732                35.7833                46.4782

                     91                     92                     93
                      A                      A                      A
 Frequencies --   3148.0972              3167.4008              3183.8705
 Red. masses --      1.0933                 1.1026                 1.1031
 Frc consts  --      6.3838                 6.5176                 6.5885
 IR Inten    --     13.5260                 5.9801                 6.5299

 - Thermochemistry -
 -------------------
 Temperature   298.150 Kelvin.  Pressure   1.00000 Atm.
 Atom     1 has atomic number  6 and mass  12.00000

 Molecular mass:   218.11542 amu.
 Principal axes and moments of inertia in atomic units:
                           1         2         3
     Eigenvalues --  2026.204453903.139274656.30262
           X            0.99994   0.00980  -0.00521
           Y           -0.00974   0.99987   0.01275
           Z            0.00533  -0.01270   0.99991
 This molecule is an asymmetric top.
 Rotational symmetry number  1.
 Warning -- assumption of classical behavior for rotation
           may cause significant error
 Rotational temperatures (Kelvin)      0.04275     0.02219     0.01860
 Rotational constants (GHZ):           0.89070     0.46238     0.38759
 Zero-point vibrational energy     735766.4 (Joules/Mol)
                                  175.85239 (Kcal/Mol)
 Warning -- explicit consideration of  26 degrees of freedom as
           vibrations may cause significant error
 Vibrational temperatures:     44.37    70.60   102.20   127.54   186.92
          (Kelvin)            244.74   250.87   304.47   327.68   346.06
                              358.01   383.32   404.07   434.90   463.50
                              466.91   505.00   559.78   595.98   615.83
                              668.03   707.57   723.45   728.98   781.27
                              881.73  1014.88  1035.20  1073.74  1109.25
                             1145.73  1182.59  1227.71  1235.85  1265.87
                             1302.13  1340.43  1363.10  1385.86  1400.42
                             1438.09  1465.07  1494.23  1543.06  1573.06
                             1581.80  1607.46  1632.49  1741.14  1777.13
                             1782.85  1819.75  1853.53  1881.28  1940.22
                             1943.00  2002.02  2021.28  2031.43  2058.06
                             2074.28  2080.61  2093.87  2168.20  2175.33
                             2182.04  2186.43  2191.01  2195.45  2201.01
                             2208.83  2213.93  2217.91  2234.11  2732.86
                             4361.60  4378.46  4380.52  4390.70  4403.08
                             4416.64  4418.36  4449.56  4466.26  4470.68
                             4479.91  4490.39  4493.17  4498.88  4509.65
                             4529.41  4557.18  4580.88

 Zero-point correction=                           0.280239 (Hartree/Particle)
 Thermal correction to Energy=                    0.296296
 Thermal correction to Enthalpy=                  0.297241
 Thermal correction to Gibbs Free Energy=         0.237338
 Sum of electronic and zero-point Energies=           -767.640926
 Sum of electronic and thermal Energies=              -767.624868
 Sum of electronic and thermal Enthalpies=            -767.623924
 Sum of electronic and thermal Free Energies=         -767.683827

                     E (Thermal)             CV                S
                      KCal/Mol        Cal/Mol-Kelvin    Cal/Mol-Kelvin
 Total                  185.929             61.594            126.076
 Electronic               0.000              0.000              0.000
 Translational            0.889              2.981             42.043
 Rotational               0.889              2.981             31.977
 Vibrational            184.151             55.633             52.056
 Vibration     1          0.594              1.984              5.775
 Vibration     2          0.595              1.978              4.855
 Vibration     3          0.598              1.968              4.125
 Vibration     4          0.601              1.957              3.690
 Vibration     5          0.612              1.923              2.947
 Vibration     6          0.625              1.879              2.434
 Vibration     7          0.627              1.874              2.388
 Vibration     8          0.643              1.823              2.030
 Vibration     9          0.651              1.799              1.897
 Vibration    10          0.658              1.778              1.799
 Vibration    11          0.662              1.765              1.739
 Vibration    12          0.672              1.735              1.619
 Vibration    13          0.681              1.709              1.529
 Vibration    14          0.694              1.669              1.404
 Vibration    15          0.707              1.631              1.299
 Vibration    16          0.709              1.626              1.287
 Vibration    17          0.728              1.573              1.162
 Vibration    18          0.757              1.494              1.004
 Vibration    19          0.778              1.439              0.912
 Vibration    20          0.790              1.409              0.865
 Vibration    21          0.822              1.329              0.754
 Vibration    22          0.848              1.268              0.679
 Vibration    23          0.858              1.244              0.651
 Vibration    24          0.862              1.235              0.642
 Vibration    25          0.898              1.155              0.559
 Vibration    26          0.972              1.005              0.428

                           ! Non-Optimized Parameters !
 Normal termination of Gaussian 16 at Thu Dec 10 15:06:30 2020.

 ----------------------------------------------------------------------
 # B3LYP/6-311++G(d,p) empiricaldispersion=gd3bj scf=xqc pop=npa geom=c
 heck
 ----------------------------------------------------------------------

 ---------------------------------------
 CID_125121716_JID_5130_Energie_neutraal
 ---------------------------------------
 Structure from the checkpoint file:  "JID_5130.chk"
 Charge =  0 Multiplicity = 1

 SCF Done:  E(RB3LYP) =  -768.141192970     A.U. after   16 cycles
 Normal termination of Gaussian 16 at Thu Dec 10 15:11:40 2020.

 ----------------------------------------------------------------------
 # B3LYP/6-311++G(d,p) empiricaldispersion=gd3bj scf=xqc pop=npa geom=c
 heck
 ----------------------------------------------------------------------

 -------------------------------------
 CID_125121716_JID_5130_Energie_kation
 -------------------------------------
 Structure from the checkpoint file:  "JID_5130.chk"
 Charge =  1 Multiplicity = 2

 SCF Done:  E(UB3LYP) =  -767.768047303     A.U. after   32 cycles
 Normal termination of Gaussian 16 at Thu Dec 10 15:25:27 2020.
 Gaussian 16:  ES64L-G16RevA.03 25-Dec-2016

 ----------------------------------------------------------------------
 # B3LYP/6-311++G(d,p) empiricaldispersion=gd3bj scf=xqc pop=npa geom=c
 heck
 ----------------------------------------------------------------------

 ------------------------------------
 CID_125121716_JID_5130_Energie_anion
 ------------------------------------
 Structure from the checkpoint file:  "JID_5130.chk"
 Charge = -1 Multiplicity = 2

                         Standard orientation:
 ---------------------------------------------------------------------
 Center     Atomic      Atomic             Coordinates (Angstroms)
 Number     Number       Type             X           Y           Z
 ---------------------------------------------------------------------
      1          6           0        0.321346    2.668606    0.153375
      2          6           0        1.802769    2.267094    0.183017
      3          6           0        2.123468    0.885811    0.792178
      4          6           0        2.105697   -0.361250   -0.135384
      5          6           0        3.213518   -0.218281   -1.199755
      6          6           0        2.429730   -1.595422    0.724867
      7          6           0        0.781242   -0.536122   -0.927433
      8          6           0       -0.502834   -0.987900   -0.209691
      9          8           0       -1.617582   -0.471545   -1.013060
     10          6           0       -2.572796    0.334234   -0.536100
     11          8           0       -3.333504    0.949512   -1.225158
     12          8           0       -2.661950    0.481367    0.829766
     13          8           0       -1.876069   -0.529473    1.529565
     14          8           0       -0.543270   -0.357354    1.060325
     15          6           0       -0.705114   -2.491341   -0.122053
     16          1           0       -0.265116    2.089377   -0.564924
     17          1           0        0.218340    3.722593   -0.127679
     18          1           0       -0.143367    2.535098    1.135917
     19          1           0        2.228373    2.349471   -0.825473
     20          1           0        2.335175    3.016347    0.782357
     21          1           0        3.139504    0.926068    1.207406
     22          1           0        1.458660    0.713668    1.644315
     23          1           0        4.180380   -0.025497   -0.721753
     24          1           0        3.307823   -1.135848   -1.792286
     25          1           0        3.012082    0.604624   -1.893526
     26          1           0        1.709963   -1.721011    1.539807
     27          1           0        2.440806   -2.512426    0.123456
     28          1           0        3.422242   -1.486993    1.176487
     29          1           0        0.551554    0.403308   -1.432374
     30          1           0        0.945758   -1.274779   -1.720356
     31          1           0       -1.626207   -2.716744    0.418374
     32          1           0       -0.777426   -2.904743   -1.131023
     33          1           0        0.138297   -2.955142    0.391647
 ---------------------------------------------------------------------

 SCF Done:  E(UB3LYP) =  -768.136242459     A.U. after   33 cycles
 SCF Done:  E(UB3LYP) =  -768.136242459     a.u. after    1 cycles

 The electronic state is 2-A.
 Alpha  occ. eigenvalues --  -19.09855 -19.07884 -19.07468 -19.07005 -19.00247
 Alpha  occ. eigenvalues --  -10.23856 -10.19815 -10.08747 -10.07423 -10.07157
 Alpha  occ. eigenvalues --  -10.06359 -10.05612 -10.05559 -10.05278 -10.05266
 Alpha  occ. eigenvalues --   -1.08972  -1.00103  -0.95809  -0.90939  -0.76955
 Alpha  occ. eigenvalues --   -0.72653  -0.67999  -0.66004  -0.60752  -0.58340
 Alpha  occ. eigenvalues --   -0.57549  -0.54744  -0.49316  -0.48905  -0.45140
 Alpha  occ. eigenvalues --   -0.43637  -0.40562  -0.38494  -0.38163  -0.36192
 Alpha  occ. eigenvalues --   -0.35396  -0.35252  -0.34620  -0.32780  -0.32115
 Alpha  occ. eigenvalues --   -0.31368  -0.31010  -0.29462  -0.29058  -0.28487
 Alpha  occ. eigenvalues --   -0.28015  -0.27404  -0.26798  -0.25432  -0.24992
 Alpha  occ. eigenvalues --   -0.24274  -0.23786  -0.22032  -0.21295  -0.20795
 Alpha  occ. eigenvalues --   -0.20265  -0.20231  -0.19095  -0.16431   0.04694
 Alpha virt. eigenvalues --    0.06337   0.07470   0.08379   0.08654   0.09891
 Alpha virt. eigenvalues --    0.10125   0.10673   0.11085   0.11325   0.12457
 Alpha virt. eigenvalues --    0.12924   0.13110   0.13477   0.13869   0.14080

  Beta  occ. eigenvalues --  -19.09064 -19.07666 -19.06989 -19.06957 -19.00222
  Beta  occ. eigenvalues --  -10.23863 -10.19808 -10.08745 -10.07409 -10.07150
  Beta  occ. eigenvalues --  -10.06346 -10.05596 -10.05533 -10.05263 -10.05234
  Beta  occ. eigenvalues --   -1.07880  -0.99712  -0.95353  -0.90525  -0.76142
  Beta  occ. eigenvalues --   -0.72472  -0.67870  -0.65966  -0.60706  -0.58263
  Beta  occ. eigenvalues --   -0.57515  -0.54689  -0.49257  -0.48276  -0.44822
  Beta  occ. eigenvalues --   -0.43525  -0.40181  -0.38320  -0.37802  -0.36042
  Beta  occ. eigenvalues --   -0.35274  -0.35084  -0.34331  -0.32678  -0.32057
  Beta  occ. eigenvalues --   -0.31280  -0.30811  -0.29259  -0.28910  -0.28394
  Beta  occ. eigenvalues --   -0.27606  -0.27327  -0.26728  -0.25395  -0.24867
  Beta  occ. eigenvalues --   -0.24239  -0.23610  -0.21923  -0.21242  -0.20649
  Beta  occ. eigenvalues --   -0.20129  -0.19872  -0.18714  -0.15834
  Beta virt. eigenvalues --    0.07020   0.07881   0.08786   0.08943   0.10078
  Beta virt. eigenvalues --    0.10174   0.10865   0.11126   0.11378   0.12020
  Beta virt. eigenvalues --    0.12857   0.13210   0.13288   0.13634   0.13900

 Mulliken charges and spin densities:
               1          2
     1  C   -0.610659   0.108835
     2  C    0.145671  -0.595330
     3  C    0.081718  -0.196091
     4  C   -1.326165   1.912147
     5  C    0.723988  -1.294460
     6  C    0.489400  -1.079197
     7  C    0.775969  -0.923126
     8  C   -1.374212   0.120743
     9  O    0.075726   0.022789
    10  C    0.272148   0.082553
    11  O   -0.290072  -0.011473
    12  O   -0.118996   0.155656
    13  O    0.015165   0.152800
    14  O    0.104174   0.077318
    15  C    0.107654  -0.432532
    16  H    0.097303   0.026515
    17  H    0.045874   0.085828
    18  H    0.159174  -0.007937
    19  H    0.146568  -0.018297
    20  H   -0.038518   0.176724
    21  H   -0.103053   0.269627
    22  H    0.166178  -0.020162
    23  H   -0.301999   0.453404
    24  H   -0.367902   0.515682
    25  H   -0.173768   0.298605
    26  H    0.190568  -0.037814
    27  H   -0.251921   0.416318
    28  H   -0.206219   0.356457
    29  H    0.253138  -0.019357
    30  H   -0.047917   0.263954
    31  H    0.188792  -0.015235
    32  H    0.044444   0.120441
    33  H    0.127748   0.034614
 Sum of Mulliken charges =  -1.00000   1.00000

 Dipole moment (field-independent basis, Debye):
    X=             -1.7767    Y=             -0.3608    Z=              1.9773  Tot=              2.6826
 Quadrupole moment (field-independent basis, Debye-Ang):
   XX=           -165.4270   YY=           -119.9808   ZZ=           -122.0895
   XY=             12.5989   XZ=              2.3120   YZ=             -2.5593

 Summary of Natural Population Analysis:

                                       Natural Population
                Natural  -----------------------------------------------
    Atom  No    Charge         Core      Valence    Rydberg      Total
 -----------------------------------------------------------------------
      C    1   -0.28339      0.99966     2.27880    0.00493     3.28339
      C    2   -0.19348      0.99963     2.18605    0.00780     3.19348
      C    3   -0.19059      0.99958     2.18001    0.01099     3.19059
      C    4   -0.04164      0.99957     2.02886    0.01320     3.04164
      C    5   -0.28289      0.99962     2.27537    0.00790     3.28289
      C    6   -0.28806      0.99962     2.28122    0.00721     3.28806
      C    7   -0.20865      0.99951     2.19615    0.01300     3.20865
      C    8    0.29883      0.99954     1.68147    0.02017     2.70117
      O    9   -0.29745      0.99983     3.28845    0.00917     4.29745
      C   10    0.50574      0.99975     1.46689    0.02762     2.49426
      O   11   -0.30211      0.99986     3.29624    0.00601     4.30211
      O   12   -0.11786      0.99988     3.10980    0.00818     4.11786
      O   13    0.02998      0.99995     2.96251    0.00756     3.97002
      O   14   -0.15169      0.99986     3.14300    0.00884     4.15169
      C   15   -0.30654      0.99958     2.30030    0.00666     3.30654
      H   16    0.09551      0.00000     0.40314    0.00135     0.40449
      H   17    0.09320      0.00000     0.40602    0.00078     0.40680
      H   18    0.10086      0.00000     0.39807    0.00107     0.39914
      H   19    0.09384      0.00000     0.40502    0.00114     0.40616
      H   20    0.09390      0.00000     0.40518    0.00092     0.40610
      H   21    0.09666      0.00000     0.40222    0.00112     0.40334
      H   22    0.10679      0.00000     0.39195    0.00127     0.39321
      H   23    0.10104      0.00000     0.39752    0.00144     0.39896
      H   24    0.10177      0.00000     0.39655    0.00168     0.39823
      H   25    0.09888      0.00000     0.39987    0.00126     0.40112
      H   26    0.10220      0.00000     0.39671    0.00109     0.39780
      H   27    0.09942      0.00000     0.39959    0.00099     0.40058
      H   28    0.10187      0.00000     0.39718    0.00095     0.39813
      H   29    0.11264      0.00000     0.38594    0.00142     0.38736
      H   30    0.10814      0.00000     0.39041    0.00145     0.39186
      H   31    0.11013      0.00000     0.38888    0.00099     0.38987
      H   32    0.10546      0.00000     0.39374    0.00080     0.39454
      H   33    0.10749      0.00000     0.39178    0.00073     0.39251
 =======================================================================
   * Total *   -0.00000     14.99543    43.82490    0.17967    59.00000

 Normal termination of Gaussian 16 at Thu Dec 10 15:39:59 2020.
