 Gaussian 16, Revision A.03,

 -----------------------------------------------------------
 # opt freq B3LYP/6-31G(d) empiricaldispersion=gd3bj scf=xqc
 -----------------------------------------------------------

 ------------------------------
 CID_55170999_JID_7864_neutraal
 ------------------------------
 Symbolic Z-matrix:
 Charge =  0 Multiplicity = 1

 SCF Done:  E(RB3LYP) =  -1172.00325490     A.U. after   15 cycles
 SCF Done:  E(RB3LYP) =  -1172.00812262     A.U. after   13 cycles
 SCF Done:  E(RB3LYP) =  -1172.00863826     A.U. after   13 cycles
 SCF Done:  E(RB3LYP) =  -1172.00907614     A.U. after   12 cycles
 SCF Done:  E(RB3LYP) =  -1172.00953296     A.U. after   12 cycles
 SCF Done:  E(RB3LYP) =  -1172.00995770     A.U. after   13 cycles
 SCF Done:  E(RB3LYP) =  -1172.01027493     A.U. after   12 cycles
 SCF Done:  E(RB3LYP) =  -1172.01046595     A.U. after   12 cycles
 SCF Done:  E(RB3LYP) =  -1172.01054592     A.U. after   11 cycles
 SCF Done:  E(RB3LYP) =  -1172.01057739     A.U. after   11 cycles
 SCF Done:  E(RB3LYP) =  -1172.01061174     A.U. after    8 cycles
 SCF Done:  E(RB3LYP) =  -1172.01061250     A.U. after    8 cycles
 SCF Done:  E(RB3LYP) =  -1172.01061334     A.U. after    8 cycles
 SCF Done:  E(RB3LYP) =  -1172.01061368     A.U. after    8 cycles
 SCF Done:  E(RB3LYP) =  -1172.01061375     A.U. after    7 cycles
 Optimization completed.
    -- Stationary point found.
 Normal termination of Gaussian 16 at Fri Dec 11 13:28:59 2020.

 --------------------------------------------------------------------
 #N Geom=AllCheck Guess=TCheck SCRF=Check GenChk RB3LYP/6-31G(d) Freq
 --------------------------------------------------------------------

 Structure from the checkpoint file:  "JID_7864.chk"
 ------------------------------
 CID_55170999_JID_7864_neutraal
 ------------------------------
 Charge =  0 Multiplicity = 1

 SCF Done:  E(RB3LYP) =  -1172.01061375     A.U. after    1 cycles

  Exact polarizability: 176.530   4.103 110.888 -12.954  -7.550 127.103
 Approx polarizability: 244.718  13.307 186.570 -25.789 -13.157 213.700

                      1                      2                      3
                      A                      A                      A
 Frequencies --     22.2823                30.4606                39.0560
 Red. masses --      4.5328                 7.1887                 9.0971
 Frc consts  --      0.0013                 0.0039                 0.0082
 IR Inten    --      3.1668                 0.7692                 0.4106

                      4                      5                      6
                      A                      A                      A
 Frequencies --     49.7421                59.6329                75.8345
 Red. masses --      5.3763                 6.7671                 6.9509
 Frc consts  --      0.0078                 0.0142                 0.0236
 IR Inten    --      3.8783                 1.7805                 3.7673

                      7                      8                      9
                      A                      A                      A
 Frequencies --    120.4239               131.5573               160.0301
 Red. masses --      1.0749                 2.9149                 5.6409
 Frc consts  --      0.0092                 0.0297                 0.0851
 IR Inten    --      0.7437                 3.7160                 0.6545

                     10                     11                     12
                      A                      A                      A
 Frequencies --    183.8197               200.4096               222.3397
 Red. masses --      5.0191                 4.0225                 8.3345
 Frc consts  --      0.0999                 0.0952                 0.2428
 IR Inten    --      2.9833                 1.1923                 0.8004

                     13                     14                     15
                      A                      A                      A
 Frequencies --    285.3281               304.0195               348.7147
 Red. masses --      4.0898                 4.7105                 3.6213
 Frc consts  --      0.1962                 0.2565                 0.2595
 IR Inten    --      7.5529                 1.3742                 0.7703

                     16                     17                     18
                      A                      A                      A
 Frequencies --    407.9900               414.8633               438.0262
 Red. masses --      7.4959                 2.5631                 5.2602
 Frc consts  --      0.7351                 0.2599                 0.5946
 IR Inten    --     15.8011                 2.2880                 2.7627

                     19                     20                     21
                      A                      A                      A
 Frequencies --    486.7640               517.1118               620.9829
 Red. masses --      3.9846                 2.3767                 4.6348
 Frc consts  --      0.5563                 0.3745                 1.0530
 IR Inten    --      8.0476                19.4878                37.4433

                     22                     23                     24
                      A                      A                      A
 Frequencies --    633.0654               663.0218               673.0019
 Red. masses --      4.0159                 3.6491                 2.1989
 Frc consts  --      0.9483                 0.9451                 0.5868
 IR Inten    --      0.8964                 8.2805                61.2071

                     25                     26                     27
                      A                      A                      A
 Frequencies --    677.2074               688.2920               702.1698
 Red. masses --      2.4669                 5.7655                10.2961
 Frc consts  --      0.6666                 1.6093                 2.9909
 IR Inten    --     50.0964                 7.9225                 1.9374

                     28                     29                     30
                      A                      A                      A
 Frequencies --    735.5079               764.1527               767.8759
 Red. masses --      1.2546                 4.1635                 4.7676
 Frc consts  --      0.3999                 1.4324                 1.6563
 IR Inten    --     22.7158                 8.5227                40.3993

                     31                     32                     33
                      A                      A                      A
 Frequencies --    797.5305               846.7967               848.2451
 Red. masses --      5.2476                 1.3193                 1.4053
 Frc consts  --      1.9666                 0.5574                 0.5958
 IR Inten    --     24.2679                 6.0726                 5.0380

                     34                     35                     36
                      A                      A                      A
 Frequencies --    885.1959               932.6511               937.0831
 Red. masses --      3.4167                 2.2572                 4.6190
 Frc consts  --      1.5774                 1.1568                 2.3898
 IR Inten    --      6.4660                22.3881                 2.5439

                     37                     38                     39
                      A                      A                      A
 Frequencies --    960.1104               977.6909              1058.7838
 Red. masses --      3.0839                 3.8897                 7.5547
 Frc consts  --      1.6749                 2.1906                 4.9898
 IR Inten    --      6.6958                 4.6773                 5.9483

                     40                     41                     42
                      A                      A                      A
 Frequencies --   1071.6641              1112.1264              1155.9683
 Red. masses --      1.8120                 1.2397                 1.5906
 Frc consts  --      1.2261                 0.9034                 1.2523
 IR Inten    --      1.5194                 6.6475                30.1466

                     43                     44                     45
                      A                      A                      A
 Frequencies --   1157.7059              1161.0191              1181.3024
 Red. masses --      1.9525                 2.4517                 2.8441
 Frc consts  --      1.5419                 1.9471                 2.3384
 IR Inten    --     43.6511               281.9193                11.6708

                     46                     47                     48
                      A                      A                      A
 Frequencies --   1205.3258              1212.7194              1224.6378
 Red. masses --      1.9183                 1.1644                 2.0478
 Frc consts  --      1.6420                 1.0090                 1.8095
 IR Inten    --     23.0051                15.4253                27.9536

                     49                     50                     51
                      A                      A                      A
 Frequencies --   1249.1683              1291.0208              1323.4200
 Red. masses --      2.3058                 1.3242                 2.5606
 Frc consts  --      2.1199                 1.3004                 2.6423
 IR Inten    --      9.9228                 4.0015                23.3190

                     52                     53                     54
                      A                      A                      A
 Frequencies --   1358.2752              1377.4040              1394.0184
 Red. masses --      1.8386                 7.8306                 2.2822
 Frc consts  --      1.9985                 8.7532                 2.6130
 IR Inten    --     13.3731                25.5077                63.1283

                     55                     56                     57
                      A                      A                      A
 Frequencies --   1404.5402              1412.9585              1449.4995
 Red. masses --      3.1431                 3.1905                 3.7870
 Frc consts  --      3.6532                 3.7529                 4.6879
 IR Inten    --      0.6788                 6.2212                38.1514

                     58                     59                     60
                      A                      A                      A
 Frequencies --   1463.7089              1469.2393              1491.3319
 Red. masses --      1.1739                 1.9281                 2.0467
 Frc consts  --      1.4818                 2.4523                 2.6820
 IR Inten    --     12.2468                30.6250                 1.9846

                     61                     62                     63
                      A                      A                      A
 Frequencies --   1497.0443              1519.7688              1533.8710
 Red. masses --      1.4294                 1.0900                 2.2268
 Frc consts  --      1.8875                 1.4833                 3.0868
 IR Inten    --     23.2315                12.3007                41.8800

                     64                     65                     66
                      A                      A                      A
 Frequencies --   1537.0910              1544.4684              1578.1015
 Red. masses --      1.1917                 2.9978                 4.6882
 Frc consts  --      1.6588                 4.2132                 6.8790
 IR Inten    --     16.5119                41.6575                 7.9332

                     67                     68                     69
                      A                      A                      A
 Frequencies --   1850.1171              3067.4738              3090.5404
 Red. masses --     10.0815                 1.0358                 1.0592
 Frc consts  --     20.3317                 5.7423                 5.9609
 IR Inten    --    229.6325                24.2491                 6.0897

                     70                     71                     72
                      A                      A                      A
 Frequencies --   3121.0528              3137.8127              3141.4216
 Red. masses --      1.0601                 1.1021                 1.1048
 Frc consts  --      6.0844                 6.3933                 6.4238
 IR Inten    --      3.5669                10.9099                 0.7443

                     73                     74                     75
                      A                      A                      A
 Frequencies --   3164.1034              3170.3618              3263.3844
 Red. masses --      1.1048                 1.1062                 1.0913
 Frc consts  --      6.5171                 6.5509                 6.8477
 IR Inten    --     13.1194                 0.0603                 6.5522

                     76                     77                     78
                      A                      A                      A
 Frequencies --   3284.3543              3288.5752              3682.4729
 Red. masses --      1.0988                 1.1044                 1.0641
 Frc consts  --      6.9837                 7.0370                 8.5017
 IR Inten    --      0.3481                 4.6038                56.9347

 - Thermochemistry -
 -------------------
 Temperature   298.150 Kelvin.  Pressure   1.00000 Atm.
 Atom     1 has atomic number  6 and mass  12.00000

 Molecular mass:   253.06335 amu.
 Principal axes and moments of inertia in atomic units:
                           1         2         3
     Eigenvalues --  2297.519297034.035607252.06127
           X            0.99997  -0.00337   0.00656
           Y            0.00406   0.99400  -0.10934
           Z           -0.00615   0.10937   0.99398
 This molecule is an asymmetric top.
 Rotational symmetry number  1.
 Warning -- assumption of classical behavior for rotation
           may cause significant error
 Rotational temperatures (Kelvin)      0.03770     0.01231     0.01194
 Rotational constants (GHZ):           0.78552     0.25657     0.24886
 Zero-point vibrational energy     558098.8 (Joules/Mol)
                                  133.38883 (Kcal/Mol)
 Warning -- explicit consideration of  20 degrees of freedom as
           vibrations may cause significant error
 Vibrational temperatures:     32.06    43.83    56.19    71.57    85.80
          (Kelvin)            109.11   173.26   189.28   230.25   264.48
                              288.34   319.90   410.52   437.42   501.72
                              587.01   596.90   630.22   700.34   744.01
                              893.46   910.84   953.94   968.30   974.35
                              990.30  1010.27  1058.23  1099.45  1104.80
                             1147.47  1218.35  1220.44  1273.60  1341.88
                             1348.25  1381.38  1406.68  1523.35  1541.89
                             1600.10  1663.18  1665.68  1670.45  1699.63
                             1734.19  1744.83  1761.98  1797.27  1857.49
                             1904.11  1954.26  1981.78  2005.68  2020.82
                             2032.93  2085.51  2105.95  2113.91  2145.69
                             2153.91  2186.61  2206.90  2211.53  2222.15
                             2270.54  2661.91  4413.41  4446.60  4490.50
                             4514.61  4519.81  4552.44  4561.44  4695.28
                             4725.45  4731.53  5298.26

 Zero-point correction=                           0.212569 (Hartree/Particle)
 Thermal correction to Energy=                    0.228614
 Thermal correction to Enthalpy=                  0.229558
 Thermal correction to Gibbs Free Energy=         0.165616
 Sum of electronic and zero-point Energies=          -1171.798045
 Sum of electronic and thermal Energies=             -1171.782000
 Sum of electronic and thermal Enthalpies=           -1171.781055
 Sum of electronic and thermal Free Energies=        -1171.844998

                     E (Thermal)             CV                S
                      KCal/Mol        Cal/Mol-Kelvin    Cal/Mol-Kelvin
 Total                  143.458             57.488            134.578
 Electronic               0.000              0.000              0.000
 Translational            0.889              2.981             42.486
 Rotational               0.889              2.981             33.127
 Vibrational            141.680             51.526             58.965
 Vibration     1          0.593              1.985              6.420
 Vibration     2          0.594              1.984              5.799
 Vibration     3          0.594              1.981              5.306
 Vibration     4          0.595              1.978              4.828
 Vibration     5          0.597              1.974              4.469
 Vibration     6          0.599              1.965              3.996
 Vibration     7          0.609              1.932              3.094
 Vibration     8          0.612              1.922              2.923
 Vibration     9          0.622              1.891              2.549
 Vibration    10          0.631              1.862              2.289
 Vibration    11          0.638              1.839              2.129
 Vibration    12          0.648              1.807              1.940
 Vibration    13          0.683              1.701              1.502
 Vibration    14          0.695              1.666              1.395
 Vibration    15          0.726              1.578              1.172
 Vibration    16          0.773              1.453              0.934
 Vibration    17          0.778              1.438              0.910
 Vibration    18          0.798              1.387              0.833
 Vibration    19          0.843              1.279              0.692
 Vibration    20          0.872              1.212              0.617

                           ! Non-Optimized Parameters !
 Normal termination of Gaussian 16 at Fri Dec 11 13:38:24 2020.

 ----------------------------------------------------------------------
 # B3LYP/6-311++G(d,p) empiricaldispersion=gd3bj scf=xqc pop=npa geom=c
 heck
 ----------------------------------------------------------------------

 --------------------------------------
 CID_55170999_JID_7864_Energie_neutraal
 --------------------------------------
 Structure from the checkpoint file:  "JID_7864.chk"
 Charge =  0 Multiplicity = 1

 SCF Done:  E(RB3LYP) =  -1172.25803230     A.U. after   15 cycles
 Normal termination of Gaussian 16 at Fri Dec 11 13:42:39 2020.

 ----------------------------------------------------------------------
 # B3LYP/6-311++G(d,p) empiricaldispersion=gd3bj scf=xqc pop=npa geom=c
 heck
 ----------------------------------------------------------------------

 ------------------------------------
 CID_55170999_JID_7864_Energie_kation
 ------------------------------------
 Structure from the checkpoint file:  "JID_7864.chk"
 Charge =  1 Multiplicity = 2

 SCF Done:  E(UB3LYP) =  -1171.94874040     A.U. after   28 cycles
 Normal termination of Gaussian 16 at Fri Dec 11 13:53:52 2020.
 Gaussian 16:  ES64L-G16RevA.03 25-Dec-2016

 ----------------------------------------------------------------------
 # B3LYP/6-311++G(d,p) empiricaldispersion=gd3bj scf=xqc pop=npa geom=c
 heck
 ----------------------------------------------------------------------

 -----------------------------------
 CID_55170999_JID_7864_Energie_anion
 -----------------------------------
 Structure from the checkpoint file:  "JID_7864.chk"
 Charge = -1 Multiplicity = 2

                         Standard orientation:
 ---------------------------------------------------------------------
 Center     Atomic      Atomic             Coordinates (Angstroms)
 Number     Number       Type             X           Y           Z
 ---------------------------------------------------------------------
      1          6           0       -2.157327    0.480319   -1.962787
      2          7           0       -2.815802   -0.192907   -0.854618
      3          6           0       -4.176293   -0.251081   -0.627657
      4          6           0       -4.328890   -0.903178    0.571317
      5          7           0       -3.101320   -1.238733    1.093873
      6          6           0       -2.213010   -0.802666    0.217633
      7          6           0       -0.734631   -0.897881    0.393847
      8          7           0       -0.140801    0.412230    0.689965
      9          6           0       -0.434967    1.213722    1.753334
     10          7           0        0.293855    2.309378    1.734284
     11          7           0        1.091495    2.247460    0.611770
     12          6           0        0.825795    1.110058   -0.000355
     13         16           0        1.593485    0.554853   -1.484876
     14          6           0        3.229135    0.104722   -0.811687
     15          6           0        3.221019   -1.104410    0.105896
     16          8           0        2.251532   -1.703481    0.509845
     17          8           0        4.487214   -1.430717    0.446945
     18          1           0       -2.856284    0.559942   -2.797501
     19          1           0       -1.826216    1.483808   -1.675272
     20          1           0       -1.289889   -0.097460   -2.290671
     21          1           0       -4.882666    0.163824   -1.331194
     22          1           0       -5.247593   -1.154390    1.082964
     23          1           0       -0.529688   -1.575381    1.223421
     24          1           0       -0.215361   -1.283760   -0.484601
     25          1           0       -1.185282    0.955777    2.487418
     26          1           0        3.888927   -0.087375   -1.663336
     27          1           0        3.637474    0.961926   -0.268076
     28          1           0        4.423880   -2.190601    1.056371
 ---------------------------------------------------------------------

 SCF Done:  E(UB3LYP) =  -1172.25571875     A.U. after   33 cycles
 SCF Done:  E(UB3LYP) =  -1172.25571875     a.u. after    1 cycles

 The electronic state is 2-A.
 Alpha  occ. eigenvalues --  -88.76692 -19.07767 -19.02785 -14.29530 -14.28997
 Alpha  occ. eigenvalues --  -14.23154 -14.22710 -14.21642 -10.21961 -10.15673
 Alpha  occ. eigenvalues --  -10.14924 -10.14234 -10.13739 -10.13391 -10.12054
 Alpha  occ. eigenvalues --  -10.11933 -10.10539  -7.85257  -5.81679  -5.81297
 Alpha  occ. eigenvalues --   -5.80603  -1.02111  -0.97205  -0.94316  -0.93371
 Alpha  occ. eigenvalues --   -0.83803  -0.81019  -0.74492  -0.69938  -0.69551
 Alpha  occ. eigenvalues --   -0.65082  -0.61970  -0.61268  -0.53993  -0.52466
 Alpha  occ. eigenvalues --   -0.51812  -0.49317  -0.47462  -0.45257  -0.42887
 Alpha  occ. eigenvalues --   -0.41291  -0.39994  -0.39624  -0.39514  -0.38117
 Alpha  occ. eigenvalues --   -0.37260  -0.36973  -0.35616  -0.33935  -0.33121
 Alpha  occ. eigenvalues --   -0.32507  -0.31885  -0.31663  -0.31257  -0.30602
 Alpha  occ. eigenvalues --   -0.26133  -0.23892  -0.22425  -0.20679  -0.19952
 Alpha  occ. eigenvalues --   -0.19876  -0.19656  -0.17827  -0.16861  -0.15427
 Alpha  occ. eigenvalues --   -0.14993   0.03571
 Alpha virt. eigenvalues --    0.04824   0.06860   0.07190   0.07959   0.08169
 Alpha virt. eigenvalues --    0.08491   0.08697   0.09851   0.10203   0.10256
 Alpha virt. eigenvalues --    0.11297   0.11533   0.11889   0.12183   0.12476

  Beta  occ. eigenvalues --  -88.76675 -19.07692 -19.02758 -14.29527 -14.28925
  Beta  occ. eigenvalues --  -14.23178 -14.22620 -14.21641 -10.21929 -10.15637
  Beta  occ. eigenvalues --  -10.14920 -10.14237 -10.13716 -10.13350 -10.11915
  Beta  occ. eigenvalues --  -10.11900 -10.10538  -7.85239  -5.81630  -5.81284
  Beta  occ. eigenvalues --   -5.80592  -1.01999  -0.97124  -0.94306  -0.93280
  Beta  occ. eigenvalues --   -0.83697  -0.81009  -0.74333  -0.69904  -0.69388
  Beta  occ. eigenvalues --   -0.65036  -0.61920  -0.61119  -0.53939  -0.52446
  Beta  occ. eigenvalues --   -0.51629  -0.49240  -0.47398  -0.45202  -0.42824
  Beta  occ. eigenvalues --   -0.41178  -0.39904  -0.39530  -0.39435  -0.37970
  Beta  occ. eigenvalues --   -0.37219  -0.36930  -0.35547  -0.33819  -0.33023
  Beta  occ. eigenvalues --   -0.32467  -0.31832  -0.31598  -0.31190  -0.30452
  Beta  occ. eigenvalues --   -0.25892  -0.23783  -0.22364  -0.20457  -0.19862
  Beta  occ. eigenvalues --   -0.19819  -0.19612  -0.17645  -0.16773  -0.15328
  Beta  occ. eigenvalues --   -0.14928
  Beta virt. eigenvalues --    0.06028   0.06421   0.07360   0.07859   0.08030
  Beta virt. eigenvalues --    0.08710   0.08920   0.09089   0.09916   0.10374
  Beta virt. eigenvalues --    0.10462   0.11486   0.11597   0.11997   0.12159

 Mulliken charges and spin densities:
               1          2
     1  C    0.154189  -0.524992
     2  N   -0.016889   0.096749
     3  C    0.034953   0.002718
     4  C    0.316832  -0.270633
     5  N   -0.040682   0.024775
     6  C    0.428453  -0.230460
     7  C   -1.000452  -0.470619
     8  N    0.258015   0.017980
     9  C    0.080816   0.033550
    10  N   -0.136892  -0.011300
    11  N    0.029548   0.043635
    12  C   -0.534058  -0.066812
    13  S    0.069722   0.183121
    14  C    0.691400  -1.227982
    15  C   -0.111777   0.177003
    16  O   -0.270093  -0.018399
    17  O   -0.124875   0.016176
    18  H   -0.624240   0.809339
    19  H    0.203585   0.033047
    20  H    0.181185  -0.023601
    21  H   -0.632414   0.808516
    22  H    0.129388   0.032328
    23  H    0.229627   0.031512
    24  H    0.199973  -0.002896
    25  H    0.197497  -0.003490
    26  H   -0.453106   0.710207
    27  H    0.251187   0.022965
    28  H   -0.510892   0.807564
 Sum of Mulliken charges =  -1.00000   1.00000

 Dipole moment (field-independent basis, Debye):
    X=             -3.8597    Y=             -0.5726    Z=             -0.0022  Tot=              3.9020
 Quadrupole moment (field-independent basis, Debye-Ang):
   XX=           -193.6668   YY=           -150.4947   ZZ=           -141.7767
   XY=             10.4461   XZ=            -13.6988   YZ=              2.3815

 Summary of Natural Population Analysis:

                                       Natural Population
                Natural  -----------------------------------------------
    Atom  No    Charge         Core      Valence    Rydberg      Total
 -----------------------------------------------------------------------
      C    1   -0.17816      0.99964     2.17078    0.00774     3.17816
      N    2   -0.20218      0.99961     2.69249    0.01008     3.70218
      C    3   -0.02987      0.99955     2.01840    0.01192     3.02987
      C    4   -0.03843      0.99959     2.02484    0.01401     3.03843
      N    5   -0.25498      0.99970     2.74644    0.00885     3.75498
      C    6    0.18144      0.99959     1.80143    0.01754     2.81856
      C    7   -0.11011      0.99956     2.09949    0.01105     3.11011
      N    8   -0.20646      0.99958     2.69478    0.01211     3.70646
      C    9    0.09878      0.99964     1.88446    0.01711     2.90122
      N   10   -0.16185      0.99974     2.64993    0.01219     3.66185
      N   11   -0.15373      0.99966     2.63977    0.01429     3.65373
      C   12    0.09937      0.99954     1.87773    0.02336     2.90063
      S   13    0.13016      4.99953     2.85078    0.01953     7.86984
      C   14   -0.28856      0.99953     2.27691    0.01213     3.28856
      C   15    0.40581      0.99971     1.56934    0.02514     2.59419
      O   16   -0.30890      0.99986     3.30234    0.00670     4.30890
      O   17   -0.34142      0.99988     3.33467    0.00688     4.34142
      H   18    0.10642      0.00000     0.39166    0.00193     0.39358
      H   19    0.10359      0.00000     0.39519    0.00122     0.39641
      H   20    0.10601      0.00000     0.39299    0.00100     0.39399
      H   21    0.10625      0.00000     0.39228    0.00147     0.39375
      H   22    0.09649      0.00000     0.40267    0.00083     0.40351
      H   23    0.12114      0.00000     0.37800    0.00086     0.37886
      H   24    0.12389      0.00000     0.37501    0.00110     0.37611
      H   25    0.10169      0.00000     0.39744    0.00087     0.39831
      H   26    0.12329      0.00000     0.37472    0.00199     0.37671
      H   27    0.12327      0.00000     0.37527    0.00146     0.37673
      H   28    0.24707      0.00000     0.22702    0.02591     0.25293
 =======================================================================
   * Total *   -0.00000     20.99391    44.73683    0.26926    66.00000

 Normal termination of Gaussian 16 at Fri Dec 11 14:07:08 2020.
