 Gaussian 16, Revision A.03,

 ----------------------------------------------------------------------
 # opt=(cartesian,calcfc) freq B3LYP/6-31G(d) empiricaldispersion=gd3bj
  scf=xqc
 ----------------------------------------------------------------------

 --------------------------------
 CID_141447302_JID_10071_neutraal
 --------------------------------
 Symbolic Z-matrix:
 Charge =  0 Multiplicity = 1

 SCF Done:  E(RB3LYP) =  -842.266040053     A.U. after   15 cycles
 SCF Done:  E(RB3LYP) =  -842.266070953     A.U. after   11 cycles
 SCF Done:  E(RB3LYP) =  -842.266071340     A.U. after    7 cycles
 SCF Done:  E(RB3LYP) =  -842.266071354     A.U. after    7 cycles
 Optimization completed.
    -- Stationary point found.
 Normal termination of Gaussian 16 at Mon Jan  4 10:50:34 2021.

 --------------------------------------------------------------------
 #N Geom=AllCheck Guess=TCheck SCRF=Check GenChk RB3LYP/6-31G(d) Freq
 --------------------------------------------------------------------

 Structure from the checkpoint file:  "JID_10071.chk"
 --------------------------------
 CID_141447302_JID_10071_neutraal
 --------------------------------
 Charge =  0 Multiplicity = 1

 SCF Done:  E(RB3LYP) =  -842.266071354     A.U. after    1 cycles

  Exact polarizability: 195.169 -11.385 210.391 -27.312  -4.842 123.242
 Approx polarizability: 298.484 -32.115 339.802 -63.074  -8.176 216.898

                      1                      2                      3
                      A                      A                      A
 Frequencies --     45.9654                59.5325                69.9313
 Red. masses --      4.9895                 4.4591                 4.6238
 Frc consts  --      0.0062                 0.0093                 0.0133
 IR Inten    --      0.8122                 0.5112                 0.0474

                      4                      5                      6
                      A                      A                      A
 Frequencies --     88.1320               112.0590               141.5619
 Red. masses --      4.2634                 5.0323                 2.3245
 Frc consts  --      0.0195                 0.0372                 0.0274
 IR Inten    --      0.9292                 0.1046                 1.2995

                      7                      8                      9
                      A                      A                      A
 Frequencies --    171.3423               224.7369               234.7705
 Red. masses --      5.7578                 3.3129                 4.8181
 Frc consts  --      0.0996                 0.0986                 0.1565
 IR Inten    --      2.2942                 0.2955                 0.1241

                     10                     11                     12
                      A                      A                      A
 Frequencies --    267.3912               272.1498               296.5923
 Red. masses --      3.6863                 4.7899                 4.4167
 Frc consts  --      0.1553                 0.2090                 0.2289
 IR Inten    --      2.3096                 1.1073                 6.2982

                     13                     14                     15
                      A                      A                      A
 Frequencies --    337.3765               361.9652               417.5812
 Red. masses --      4.6573                 3.8536                 3.4858
 Frc consts  --      0.3123                 0.2975                 0.3581
 IR Inten    --      1.4776                 2.0424                 0.8386

                     16                     17                     18
                      A                      A                      A
 Frequencies --    423.6512               462.3605               496.9345
 Red. masses --      4.0442                 2.4111                 7.5669
 Frc consts  --      0.4277                 0.3037                 1.1009
 IR Inten    --      1.9685                11.6916                 5.5974

                     19                     20                     21
                      A                      A                      A
 Frequencies --    509.5095               535.2849               557.9702
 Red. masses --      1.5936                 3.0865                 3.5302
 Frc consts  --      0.2437                 0.5211                 0.6476
 IR Inten    --     50.5895                27.4111                22.5231

                     22                     23                     24
                      A                      A                      A
 Frequencies --    574.7899               635.6061               638.3394
 Red. masses --      3.9588                 5.6421                 5.1212
 Frc consts  --      0.7706                 1.3430                 1.2295
 IR Inten    --      0.9172                 5.0936                10.7556

                     25                     26                     27
                      A                      A                      A
 Frequencies --    655.6638               698.6620               706.3065
 Red. masses --      5.6166                 6.2098                 5.8472
 Frc consts  --      1.4226                 1.7859                 1.7186
 IR Inten    --      5.6693                 8.0027                 2.5447

                     28                     29                     30
                      A                      A                      A
 Frequencies --    717.9945               747.0739               756.9635
 Red. masses --      1.7134                 3.9010                 1.9304
 Frc consts  --      0.5204                 1.2828                 0.6517
 IR Inten    --     37.6787                59.5099                14.5067

                     31                     32                     33
                      A                      A                      A
 Frequencies --    761.2507               770.3634               772.6980
 Red. masses --      1.4129                 1.9843                 2.7541
 Frc consts  --      0.4824                 0.6938                 0.9688
 IR Inten    --      2.7702               104.0530                 3.0858

                     34                     35                     36
                      A                      A                      A
 Frequencies --    803.1397               832.4313               856.7432
 Red. masses --      2.3500                 2.8529                 2.2316
 Frc consts  --      0.8931                 1.1648                 0.9651
 IR Inten    --     18.7993                 0.4146                 1.8994

                     37                     38                     39
                      A                      A                      A
 Frequencies --    859.9528               866.3388               898.5546
 Red. masses --      1.2706                 1.3945                 4.0499
 Frc consts  --      0.5536                 0.6167                 1.9266
 IR Inten    --      0.7909                 0.9257                 3.5654

                     40                     41                     42
                      A                      A                      A
 Frequencies --    915.5213               928.3804               942.2905
 Red. masses --      2.4221                 1.7827                 1.4291
 Frc consts  --      1.1961                 0.9053                 0.7476
 IR Inten    --      0.6576                 0.5858                 6.9648

                     43                     44                     45
                      A                      A                      A
 Frequencies --    964.9072               971.9233               977.9856
 Red. masses --      1.3519                 1.9223                 2.0039
 Frc consts  --      0.7416                 1.0699                 1.1292
 IR Inten    --      0.6474                10.3367                 5.2786

                     46                     47                     48
                      A                      A                      A
 Frequencies --    993.0398              1003.7845              1022.4673
 Red. masses --      1.2751                 3.8268                 6.0060
 Frc consts  --      0.7409                 2.2718                 3.6994
 IR Inten    --      0.2701                 8.9904                 0.1781

                     49                     50                     51
                      A                      A                      A
 Frequencies --   1024.5240              1039.6714              1059.8053
 Red. masses --      2.4837                 2.8077                 2.1395
 Frc consts  --      1.5360                 1.7881                 1.4158
 IR Inten    --      2.7243                 6.4525                 4.9978

                     52                     53                     54
                      A                      A                      A
 Frequencies --   1067.1324              1092.5188              1119.3734
 Red. masses --      2.0362                 2.5039                 2.2138
 Frc consts  --      1.3662                 1.7609                 1.6343
 IR Inten    --      0.4025                 8.6284                15.1772

                     55                     56                     57
                      A                      A                      A
 Frequencies --   1132.1469              1142.2281              1192.8826
 Red. masses --      1.7821                 2.2478                 1.1494
 Frc consts  --      1.3458                 1.7279                 0.9637
 IR Inten    --      0.9282                57.5672                 4.2164

                     58                     59                     60
                      A                      A                      A
 Frequencies --   1194.4079              1200.2326              1218.8515
 Red. masses --      1.0953                 1.4866                 2.2096
 Frc consts  --      0.9206                 1.2618                 1.9340
 IR Inten    --      0.1551                 3.5947                86.9589

                     61                     62                     63
                      A                      A                      A
 Frequencies --   1220.9695              1243.5771              1255.0891
 Red. masses --      1.1432                 1.9715                 1.4000
 Frc consts  --      1.0041                 1.7964                 1.2994
 IR Inten    --      0.7272                15.6594                 2.6526

                     64                     65                     66
                      A                      A                      A
 Frequencies --   1271.1357              1283.9237              1305.8823
 Red. masses --      1.7330                 1.2161                 2.8536
 Frc consts  --      1.6498                 1.1811                 2.8672
 IR Inten    --     20.0377                 3.4585                 2.2022

                     67                     68                     69
                      A                      A                      A
 Frequencies --   1319.1695              1328.5210              1349.6683
 Red. masses --      2.5546                 2.8754                 1.6564
 Frc consts  --      2.6192                 2.9901                 1.7777
 IR Inten    --     12.0353                12.3242                 0.8334

                     70                     71                     72
                      A                      A                      A
 Frequencies --   1364.8059              1370.6415              1375.6508
 Red. masses --      2.3079                 2.1038                 1.3935
 Frc consts  --      2.5328                 2.3287                 1.5537
 IR Inten    --     28.9024                 0.2644                 2.9161

                     73                     74                     75
                      A                      A                      A
 Frequencies --   1396.1881              1436.9580              1472.9685
 Red. masses --      1.4453                 2.3821                 1.2305
 Frc consts  --      1.6600                 2.8981                 1.5729
 IR Inten    --      0.9116                28.8356                19.6249

                     76                     77                     78
                      A                      A                      A
 Frequencies --   1502.2664              1517.4870              1521.1896
 Red. masses --      2.0612                 1.1789                 2.4269
 Frc consts  --      2.7407                 1.5995                 3.3089
 IR Inten    --      5.2957                27.2700                50.0310

                     79                     80                     81
                      A                      A                      A
 Frequencies --   1534.0281              1541.7864              1549.0922
 Red. masses --      2.4461                 1.1656                 2.1624
 Frc consts  --      3.3916                 1.6325                 3.0573
 IR Inten    --     20.5148                 4.3016                 9.9397

                     82                     83                     84
                      A                      A                      A
 Frequencies --   1643.8874              1657.1951              1666.6634
 Red. masses --      5.3847                 6.2166                 5.5666
 Frc consts  --      8.5735                10.0588                 9.1103
 IR Inten    --      1.1999                 3.5039                 6.8783

                     85                     86                     87
                      A                      A                      A
 Frequencies --   1681.0671              1834.1658              3070.7169
 Red. masses --      6.6734                10.7894                 1.0650
 Frc consts  --     11.1114                21.3858                 5.9164
 IR Inten    --     74.8137               403.7067                44.9095

                     88                     89                     90
                      A                      A                      A
 Frequencies --   3078.9729              3095.4509              3119.0365
 Red. masses --      1.0842                 1.0657                 1.1026
 Frc consts  --      6.0558                 6.0163                 6.3198
 IR Inten    --     12.0472                32.8667                13.5551

                     91                     92                     93
                      A                      A                      A
 Frequencies --   3152.5829              3179.9400              3185.2383
 Red. masses --      1.1029                 1.0851                 1.0872
 Frc consts  --      6.4583                 6.4651                 6.4988
 IR Inten    --     17.6919                 5.0293                 0.1547

                     94                     95                     96
                      A                      A                      A
 Frequencies --   3188.6162              3195.7148              3200.9093
 Red. masses --      1.0859                 1.0909                 1.0902
 Frc consts  --      6.5050                 6.5640                 6.5813
 IR Inten    --      2.4934                19.5919                13.4978

                     97                     98                     99
                      A                      A                      A
 Frequencies --   3203.6247              3210.3892              3212.0530
 Red. masses --      1.0931                 1.0944                 1.0978
 Frc consts  --      6.6099                 6.6457                 6.6731
 IR Inten    --     34.1492                24.6454                15.3846

                    100                    101                    102
                      A                      A                      A
 Frequencies --   3222.3548              3501.9981              3635.8122
 Red. masses --      1.0948                 1.0748                 1.0788
 Frc consts  --      6.6980                 7.7661                 8.4021
 IR Inten    --      8.5794                 0.1485                40.3290

 - Thermochemistry -
 -------------------
 Temperature   298.150 Kelvin.  Pressure   1.00000 Atm.
 Atom     1 has atomic number  6 and mass  12.00000

 Molecular mass:   264.12626 amu.
 Principal axes and moments of inertia in atomic units:
                           1         2         3
     Eigenvalues --  3760.446494844.476307333.17402
           X            0.99964   0.02586  -0.00662
           Y           -0.02592   0.99962  -0.00897
           Z            0.00639   0.00914   0.99994
 This molecule is an asymmetric top.
 Rotational symmetry number  1.
 Warning -- assumption of classical behavior for rotation
           may cause significant error
 Rotational temperatures (Kelvin)      0.02303     0.01788     0.01181
 Rotational constants (GHZ):           0.47993     0.37254     0.24611
 Zero-point vibrational energy     783201.9 (Joules/Mol)
                                  187.18975 (Kcal/Mol)
 Warning -- explicit consideration of  22 degrees of freedom as
           vibrations may cause significant error
 Vibrational temperatures:     66.13    85.65   100.62   126.80   161.23
          (Kelvin)            203.68   246.52   323.35   337.78   384.72
                              391.56   426.73   485.41   520.79   600.81
                              609.54   665.23   714.98   733.07   770.16
                              802.79   826.99   914.50   918.43   943.35
                             1005.22  1016.22  1033.03  1074.87  1089.10
                             1095.27  1108.38  1111.74  1155.54  1197.68
                             1232.66  1237.28  1246.47  1292.82  1317.23
                             1335.73  1355.75  1388.29  1398.38  1407.10
                             1428.76  1444.22  1471.10  1474.06  1495.86
                             1524.82  1535.37  1571.89  1610.53  1628.91
                             1643.41  1716.29  1718.49  1726.87  1753.66
                             1756.70  1789.23  1805.79  1828.88  1847.28
                             1878.87  1897.99  1911.45  1941.87  1963.65
                             1972.05  1979.25  2008.80  2067.46  2119.27
                             2161.43  2183.33  2188.65  2207.12  2218.29
                             2228.80  2365.19  2384.33  2397.96  2418.68
                             2638.96  4418.08  4429.96  4453.66  4487.60
                             4535.86  4575.22  4582.85  4587.71  4597.92
                             4605.39  4609.30  4619.03  4621.43  4636.25
                             5038.59  5231.12

 Zero-point correction=                           0.298306 (Hartree/Particle)
 Thermal correction to Energy=                    0.313688
 Thermal correction to Enthalpy=                  0.314633
 Thermal correction to Gibbs Free Energy=         0.255634
 Sum of electronic and zero-point Energies=           -841.967766
 Sum of electronic and thermal Energies=              -841.952383
 Sum of electronic and thermal Enthalpies=            -841.951439
 Sum of electronic and thermal Free Energies=         -842.010438

                     E (Thermal)             CV                S
                      KCal/Mol        Cal/Mol-Kelvin    Cal/Mol-Kelvin
 Total                  196.842             63.305            124.173
 Electronic               0.000              0.000              0.000
 Translational            0.889              2.981             42.613
 Rotational               0.889              2.981             33.257
 Vibrational            195.065             57.343             48.303
 Vibration     1          0.595              1.979              4.984
 Vibration     2          0.597              1.974              4.473
 Vibration     3          0.598              1.968              4.155
 Vibration     4          0.601              1.958              3.701
 Vibration     5          0.607              1.939              3.233
 Vibration     6          0.615              1.912              2.783
 Vibration     7          0.626              1.878              2.421
 Vibration     8          0.649              1.803              1.921
 Vibration     9          0.655              1.788              1.842
 Vibration    10          0.672              1.733              1.613
 Vibration    11          0.675              1.725              1.583
 Vibration    12          0.690              1.680              1.436
 Vibration    13          0.718              1.601              1.225
 Vibration    14          0.736              1.551              1.114
 Vibration    15          0.781              1.432              0.900
 Vibration    16          0.786              1.419              0.880
 Vibration    17          0.820              1.334              0.759
 Vibration    18          0.852              1.257              0.666
 Vibration    19          0.865              1.229              0.635
 Vibration    20          0.890              1.172              0.576
 Vibration    21          0.914              1.122              0.528
 Vibration    22          0.931              1.086              0.495

 Optimization completed.
    -- Stationary point found.
 Normal termination of Gaussian 16 at Mon Jan  4 11:11:14 2021.

 ----------------------------------------------------------------------
 # B3LYP/6-311++G(d,p) empiricaldispersion=gd3bj scf=xqc pop=npa geom=c
 heck
 ----------------------------------------------------------------------

 ----------------------------------------
 CID_141447302_JID_10071_Energie_neutraal
 ----------------------------------------
 Structure from the checkpoint file:  "JID_10071.chk"
 Charge =  0 Multiplicity = 1

 SCF Done:  E(RB3LYP) =  -842.489698278     A.U. after   16 cycles
 Normal termination of Gaussian 16 at Mon Jan  4 11:19:16 2021.

 ----------------------------------------------------------------------
 # B3LYP/6-311++G(d,p) empiricaldispersion=gd3bj scf=xqc pop=npa geom=c
 heck
 ----------------------------------------------------------------------

 --------------------------------------
 CID_141447302_JID_10071_Energie_kation
 --------------------------------------
 Structure from the checkpoint file:  "JID_10071.chk"
 Charge =  1 Multiplicity = 2

 SCF Done:  E(UB3LYP) =  -842.203100994     A.U. after   28 cycles
 Normal termination of Gaussian 16 at Mon Jan  4 11:38:07 2021.
 Gaussian 16:  ES64L-G16RevA.03 25-Dec-2016

 ----------------------------------------------------------------------
 # B3LYP/6-311++G(d,p) empiricaldispersion=gd3bj scf=xqc pop=npa geom=c
 heck
 ----------------------------------------------------------------------

 -------------------------------------
 CID_141447302_JID_10071_Energie_anion
 -------------------------------------
 Structure from the checkpoint file:  "JID_10071.chk"
 Charge = -1 Multiplicity = 2

                         Standard orientation:
 ---------------------------------------------------------------------
 Center     Atomic      Atomic             Coordinates (Angstroms)
 Number     Number       Type             X           Y           Z
 ---------------------------------------------------------------------
      1          6           0       -0.520691   -2.795301   -0.314064
      2          6           0        0.046228   -2.843523    1.135165
      3          7           0        0.582713   -1.503954    1.456615
      4          6           0        0.775876   -0.812398    0.176591
      5          6           0       -0.391878   -1.321709   -0.760254
      6          6           0       -1.639746   -0.494043   -0.571142
      7          6           0       -1.903157    0.573298   -1.439336
      8          6           0       -2.992756    1.417010   -1.235229
      9          6           0       -3.843936    1.210616   -0.148123
     10          6           0       -3.601897    0.145413    0.719424
     11          6           0       -2.512283   -0.701020    0.506376
     12          6           0        0.968332    0.679873    0.321569
     13          6           0        0.145685    1.666577    0.845790
     14          6           0        0.596128    2.994351    0.863854
     15          6           0        1.855294    3.320611    0.360745
     16          6           0        2.700448    2.335624   -0.165622
     17          6           0        2.237998    1.026754   -0.169448
     18          7           0        2.888996   -0.126958   -0.624092
     19          6           0        2.132269   -1.265768   -0.436598
     20          8           0        2.473472   -2.397768   -0.723805
     21          1           0        0.083074   -3.427819   -0.965926
     22          1           0       -1.557783   -3.136967   -0.372277
     23          1           0        0.854391   -3.576108    1.194734
     24          1           0       -0.708787   -3.118922    1.879247
     25          1           0       -0.103065   -0.972202    1.988364
     26          1           0       -0.081841   -1.251368   -1.807667
     27          1           0       -1.231486    0.751798   -2.275038
     28          1           0       -3.174490    2.239202   -1.921758
     29          1           0       -4.692392    1.868654    0.016276
     30          1           0       -4.264137   -0.032108    1.562473
     31          1           0       -2.351216   -1.534225    1.183647
     32          1           0       -0.838785    1.422184    1.229868
     33          1           0       -0.043897    3.772126    1.268672
     34          1           0        2.192270    4.353173    0.377066
     35          1           0        3.684017    2.587903   -0.550599
     36          1           0        3.832898   -0.164999   -0.982510
 ---------------------------------------------------------------------

 SCF Done:  E(UB3LYP) =  -842.480104106     A.U. after   33 cycles
 SCF Done:  E(UB3LYP) =  -842.480104106     a.u. after    1 cycles

 The electronic state is 2-A.
 Alpha  occ. eigenvalues --  -18.99883 -14.25383 -14.20854 -10.17269 -10.12303
 Alpha  occ. eigenvalues --  -10.11837 -10.09807 -10.08876 -10.08317 -10.07888
 Alpha  occ. eigenvalues --  -10.07884 -10.07832 -10.07770 -10.07717 -10.07596
 Alpha  occ. eigenvalues --  -10.07588 -10.07586 -10.07407 -10.07211 -10.06987
 Alpha  occ. eigenvalues --   -0.95041  -0.86405  -0.83066  -0.76325  -0.74893
 Alpha  occ. eigenvalues --   -0.69477  -0.67845  -0.65139  -0.64377  -0.63851
 Alpha  occ. eigenvalues --   -0.61823  -0.56699  -0.51984  -0.51717  -0.50898
 Alpha  occ. eigenvalues --   -0.49490  -0.48035  -0.46953  -0.44329  -0.42034
 Alpha  occ. eigenvalues --   -0.40841  -0.38941  -0.37607  -0.36434  -0.36339
 Alpha  occ. eigenvalues --   -0.35691  -0.35064  -0.34399  -0.33988  -0.32587
 Alpha  occ. eigenvalues --   -0.32168  -0.31725  -0.30112  -0.29394  -0.28210
 Alpha  occ. eigenvalues --   -0.27175  -0.26931  -0.26654  -0.26570  -0.25483
 Alpha  occ. eigenvalues --   -0.24063  -0.23588  -0.23302  -0.21556  -0.17305
 Alpha  occ. eigenvalues --   -0.16647  -0.15753  -0.15361  -0.13409  -0.12259
 Alpha  occ. eigenvalues --    0.04149
 Alpha virt. eigenvalues --    0.05789   0.06345   0.06974   0.07435   0.07678
 Alpha virt. eigenvalues --    0.07954   0.08150   0.08626   0.09160   0.09395
 Alpha virt. eigenvalues --    0.09424   0.10323   0.10877   0.11338   0.11945

  Beta  occ. eigenvalues --  -18.99821 -14.25381 -14.20815 -10.17182 -10.12309
  Beta  occ. eigenvalues --  -10.11807 -10.09798 -10.08860 -10.08277 -10.07886
  Beta  occ. eigenvalues --  -10.07871 -10.07812 -10.07768 -10.07706 -10.07540
  Beta  occ. eigenvalues --  -10.07522 -10.07518 -10.07366 -10.07211 -10.06972
  Beta  occ. eigenvalues --   -0.94916  -0.86332  -0.83013  -0.76251  -0.74810
  Beta  occ. eigenvalues --   -0.69398  -0.67747  -0.65068  -0.64306  -0.63787
  Beta  occ. eigenvalues --   -0.61713  -0.56596  -0.51933  -0.51668  -0.50791
  Beta  occ. eigenvalues --   -0.49396  -0.47934  -0.46903  -0.44278  -0.41972
  Beta  occ. eigenvalues --   -0.40769  -0.38883  -0.37502  -0.36361  -0.36239
  Beta  occ. eigenvalues --   -0.35628  -0.34969  -0.34337  -0.33945  -0.32544
  Beta  occ. eigenvalues --   -0.32099  -0.31638  -0.29999  -0.29310  -0.28088
  Beta  occ. eigenvalues --   -0.27014  -0.26870  -0.26522  -0.26504  -0.25450
  Beta  occ. eigenvalues --   -0.24029  -0.23520  -0.23260  -0.21323  -0.17244
  Beta  occ. eigenvalues --   -0.16469  -0.15603  -0.15109  -0.13316  -0.12036
  Beta virt. eigenvalues --    0.06307   0.06836   0.07041   0.07428   0.07604
  Beta virt. eigenvalues --    0.07953   0.08370   0.08538   0.08845   0.09395
  Beta virt. eigenvalues --    0.09490   0.09617   0.10490   0.11119   0.11612

 Mulliken charges and spin densities:
               1          2
     1  C   -0.336045  -0.289987
     2  C   -0.225704   0.007648
     3  N   -0.134817   0.066113
     4  C    1.234283  -0.929902
     5  C    0.355626  -0.276238
     6  C    0.361178   0.331042
     7  C   -0.297490   0.319275
     8  C   -0.170453  -0.172744
     9  C    0.940034  -1.196233
    10  C   -0.078521  -0.390915
    11  C   -1.110385   0.609725
    12  C    1.387640  -0.904718
    13  C   -0.365306   0.310152
    14  C   -0.828199   0.248416
    15  C    0.669371  -0.945196
    16  C   -1.176336   0.623891
    17  C   -0.093479  -0.276007
    18  N   -0.241831   0.062975
    19  C    0.363349  -0.093550
    20  O   -0.374528   0.047660
    21  H    0.195277   0.010694
    22  H    0.069591   0.082965
    23  H    0.194252  -0.002122
    24  H   -0.000294   0.132223
    25  H    0.213844   0.034910
    26  H    0.022284   0.245837
    27  H    0.014136   0.118281
    28  H   -0.209956   0.385017
    29  H   -0.367330   0.521356
    30  H   -0.641150   0.814682
    31  H    0.219967  -0.060878
    32  H    0.234592  -0.046756
    33  H   -0.094842   0.253830
    34  H    0.014270   0.128282
    35  H   -0.739647   0.897151
    36  H   -0.003378   0.333121
 Sum of Mulliken charges =  -1.00000   1.00000

 Dipole moment (field-independent basis, Debye):
    X=             -0.0845    Y=             -2.4918    Z=              0.5409  Tot=              2.5512
 Quadrupole moment (field-independent basis, Debye-Ang):
   XX=           -198.9035   YY=           -164.0739   ZZ=           -146.0361
   XY=              4.7852   XZ=              5.9675   YZ=             -1.0468

 Summary of Natural Population Analysis:

                                       Natural Population
                Natural  -----------------------------------------------
    Atom  No    Charge         Core      Valence    Rydberg      Total
 -----------------------------------------------------------------------
      C    1   -0.20300      0.99963     2.19605    0.00732     3.20300
      C    2   -0.09352      0.99965     2.08435    0.00953     3.09352
      N    3   -0.32824      0.99972     2.81799    0.01052     3.82824
      C    4    0.03252      0.99949     1.95380    0.01420     2.96748
      C    5   -0.11060      0.99954     2.09925    0.01181     3.11060
      C    6   -0.00982      0.99950     1.99788    0.01244     3.00982
      C    7   -0.08837      0.99951     2.07963    0.00924     3.08837
      C    8   -0.09949      0.99956     2.08963    0.01030     3.09949
      C    9   -0.10058      0.99956     2.09076    0.01027     3.10058
      C   10   -0.09694      0.99956     2.08644    0.01095     3.09694
      C   11   -0.11613      0.99950     2.10637    0.01026     3.11613
      C   12   -0.02411      0.99945     2.01349    0.01118     3.02411
      C   13   -0.08689      0.99952     2.07819    0.00917     3.08689
      C   14   -0.11207      0.99957     2.10335    0.00916     3.11207
      C   15   -0.08081      0.99958     2.07084    0.01039     3.08081
      C   16   -0.12722      0.99952     2.11827    0.00943     3.12722
      C   17    0.09539      0.99944     1.89385    0.01132     2.90461
      N   18   -0.30627      0.99963     2.79739    0.00925     3.80627
      C   19    0.36709      0.99963     1.60780    0.02549     2.63291
      O   20   -0.31078      0.99987     3.30540    0.00551     4.31078
      H   21    0.11097      0.00000     0.38802    0.00101     0.38903
      H   22    0.10190      0.00000     0.39707    0.00102     0.39810
      H   23    0.09799      0.00000     0.40079    0.00123     0.40201
      H   24    0.08972      0.00000     0.40920    0.00108     0.41028
      H   25    0.17679      0.00000     0.32034    0.00287     0.32321
      H   26    0.10877      0.00000     0.38978    0.00145     0.39123
      H   27    0.10084      0.00000     0.39776    0.00140     0.39916
      H   28    0.10095      0.00000     0.39812    0.00093     0.39905
      H   29    0.10135      0.00000     0.39732    0.00133     0.39865
      H   30    0.10093      0.00000     0.39772    0.00134     0.39907
      H   31    0.09870      0.00000     0.39914    0.00216     0.40130
      H   32    0.10751      0.00000     0.39058    0.00191     0.39249
      H   33    0.09981      0.00000     0.39933    0.00085     0.40019
      H   34    0.09807      0.00000     0.40113    0.00080     0.40193
      H   35    0.10412      0.00000     0.39409    0.00179     0.39588
      H   36    0.20144      0.00000     0.29528    0.00328     0.29856
 =======================================================================
   * Total *    0.00000     19.99140    49.76642    0.24218    70.00000

 Normal termination of Gaussian 16 at Mon Jan  4 12:00:52 2021.
