 Gaussian 16, Revision A.03,

 -----------------------------------------------------------
 # opt freq B3LYP/6-31G(d) empiricaldispersion=gd3bj scf=xqc
 -----------------------------------------------------------

 ------------------------------
 CID_81941376_JID_4965_neutraal
 ------------------------------
 Symbolic Z-matrix:
 Charge =  0 Multiplicity = 1

 SCF Done:  E(RB3LYP) =  -667.974661723     A.U. after   14 cycles
 SCF Done:  E(RB3LYP) =  -667.979981838     A.U. after   13 cycles
 SCF Done:  E(RB3LYP) =  -667.981483763     A.U. after   12 cycles
 SCF Done:  E(RB3LYP) =  -667.983760895     A.U. after   15 cycles
 SCF Done:  E(RB3LYP) =  -667.967340627     A.U. after   14 cycles
 SCF Done:  E(RB3LYP) =  -667.980593431     A.U. after   14 cycles
 SCF Done:  E(RB3LYP) =  -667.984143614     A.U. after   11 cycles
 SCF Done:  E(RB3LYP) =  -667.985099032     A.U. after   12 cycles
 SCF Done:  E(RB3LYP) =  -667.986364198     A.U. after   14 cycles
 SCF Done:  E(RB3LYP) =  -667.987417616     A.U. after   12 cycles
 SCF Done:  E(RB3LYP) =  -667.989088960     A.U. after   10 cycles
 SCF Done:  E(RB3LYP) =  -667.989090069     A.U. after    9 cycles
 SCF Done:  E(RB3LYP) =  -667.989091064     A.U. after    8 cycles
 SCF Done:  E(RB3LYP) =  -667.989091269     A.U. after    7 cycles
 SCF Done:  E(RB3LYP) =  -667.989091323     A.U. after    6 cycles
 Optimization completed.
    -- Stationary point found.
 Normal termination of Gaussian 16 at Thu Dec 10 11:11:23 2020.

 --------------------------------------------------------------------
 #N Geom=AllCheck Guess=TCheck SCRF=Check GenChk RB3LYP/6-31G(d) Freq
 --------------------------------------------------------------------

 Structure from the checkpoint file:  "JID_4965.chk"
 ------------------------------
 CID_81941376_JID_4965_neutraal
 ------------------------------
 Charge =  0 Multiplicity = 1

 SCF Done:  E(RB3LYP) =  -667.989091323     A.U. after    1 cycles

  Exact polarizability: 124.287  -2.344 116.312  -5.160  -1.165  99.211
 Approx polarizability: 148.246  -1.580 187.030  -8.063 -14.584 155.416

                      1                      2                      3
                      A                      A                      A
 Frequencies --     34.6503                58.1200                67.7020
 Red. masses --      4.6647                 4.8187                 3.4733
 Frc consts  --      0.0033                 0.0096                 0.0094
 IR Inten    --      1.8449                 2.8735                 0.3489

                      4                      5                      6
                      A                      A                      A
 Frequencies --     85.1676                95.8840               115.9264
 Red. masses --      4.0955                 4.1709                 1.6844
 Frc consts  --      0.0175                 0.0226                 0.0133
 IR Inten    --      3.0262                 5.1019                 0.4333

                      7                      8                      9
                      A                      A                      A
 Frequencies --    162.9657               209.8681               235.2083
 Red. masses --      6.0968                 3.8287                 1.3710
 Frc consts  --      0.0954                 0.0994                 0.0447
 IR Inten    --      8.3268                 1.6731                 0.2177

                     10                     11                     12
                      A                      A                      A
 Frequencies --    249.1299               266.3872               276.7613
 Red. masses --      2.2348                 3.0599                 4.0337
 Frc consts  --      0.0817                 0.1279                 0.1820
 IR Inten    --      5.0255                 4.0009                19.4759

                     13                     14                     15
                      A                      A                      A
 Frequencies --    303.2570               336.2492               346.3724
 Red. masses --      2.7255                 1.1268                 2.1601
 Frc consts  --      0.1477                 0.0751                 0.1527
 IR Inten    --      7.0300                43.8005                 1.0442

                     16                     17                     18
                      A                      A                      A
 Frequencies --    376.5111               422.4917               464.0611
 Red. masses --      3.7217                 2.8166                 3.1599
 Frc consts  --      0.3108                 0.2962                 0.4009
 IR Inten    --      1.8822                 7.3247                10.5036

                     19                     20                     21
                      A                      A                      A
 Frequencies --    513.4052               528.2378               581.0550
 Red. masses --      1.2713                 3.5125                 2.7432
 Frc consts  --      0.1974                 0.5775                 0.5457
 IR Inten    --    379.7366                 5.8488                 1.1470

                     22                     23                     24
                      A                      A                      A
 Frequencies --    633.5181               646.3557               698.0249
 Red. masses --      2.5044                 1.6463                 3.5466
 Frc consts  --      0.5922                 0.4052                 1.0181
 IR Inten    --      8.4595                10.3715                 4.6346

                     25                     26                     27
                      A                      A                      A
 Frequencies --    704.5664               764.9036               788.3106
 Red. masses --      3.0147                 2.5908                 3.1336
 Frc consts  --      0.8817                 0.8931                 1.1473
 IR Inten    --     21.9712                14.7124                 1.8087

                     28                     29                     30
                      A                      A                      A
 Frequencies --    790.6698               802.2232               850.8931
 Red. masses --      1.8379                 2.9939                 2.0032
 Frc consts  --      0.6770                 1.1352                 0.8545
 IR Inten    --      0.1480                 0.9105                 1.2007

                     31                     32                     33
                      A                      A                      A
 Frequencies --    923.8842               936.8247               965.2324
 Red. masses --      1.8912                 1.6855                 1.8335
 Frc consts  --      0.9511                 0.8716                 1.0064
 IR Inten    --      3.2552               163.5741                 2.0228

                     34                     35                     36
                      A                      A                      A
 Frequencies --    980.0546              1000.5032              1039.8500
 Red. masses --      1.8800                 1.6112                 2.0877
 Frc consts  --      1.0639                 0.9503                 1.3300
 IR Inten    --     16.6050                 7.0070                 0.9164

                     37                     38                     39
                      A                      A                      A
 Frequencies --   1052.4384              1065.5902              1074.7273
 Red. masses --      2.7617                 2.3620                 2.1533
 Frc consts  --      1.8022                 1.5802                 1.4654
 IR Inten    --     20.2618                 5.9094                 6.3781

                     40                     41                     42
                      A                      A                      A
 Frequencies --   1119.4275              1133.8058              1147.4582
 Red. masses --      1.6924                 1.9878                 1.9469
 Frc consts  --      1.2495                 1.5056                 1.5103
 IR Inten    --      0.1624                 6.7986                18.1998

                     43                     44                     45
                      A                      A                      A
 Frequencies --   1158.0178              1189.4152              1215.6600
 Red. masses --      1.5993                 1.7839                 1.3035
 Frc consts  --      1.2636                 1.4869                 1.1350
 IR Inten    --      1.7882                18.9337                 2.6673

                     46                     47                     48
                      A                      A                      A
 Frequencies --   1258.7081              1265.4343              1274.6968
 Red. masses --      1.3312                 1.8408                 1.5129
 Frc consts  --      1.2426                 1.7367                 1.4483
 IR Inten    --      2.6836                 5.3903                 5.8975

                     49                     50                     51
                      A                      A                      A
 Frequencies --   1304.0704              1308.0526              1325.7350
 Red. masses --      1.8464                 1.3705                 1.4895
 Frc consts  --      1.8501                 1.3816                 1.5424
 IR Inten    --     13.7581                 6.4316                46.8920

                     52                     53                     54
                      A                      A                      A
 Frequencies --   1336.8683              1342.5330              1378.0136
 Red. masses --      1.7569                 1.4473                 1.4018
 Frc consts  --      1.8501                 1.5369                 1.5683
 IR Inten    --     34.7901                32.8765                 7.8876

                     55                     56                     57
                      A                      A                      A
 Frequencies --   1383.0577              1393.5112              1412.8420
 Red. masses --      1.5662                 1.5184                 1.4929
 Frc consts  --      1.7651                 1.7372                 1.7558
 IR Inten    --     36.0918                25.6286                 1.1806

                     58                     59                     60
                      A                      A                      A
 Frequencies --   1444.3788              1458.8226              1477.6372
 Red. masses --      1.2540                 1.6380                 1.8130
 Frc consts  --      1.5414                 2.0538                 2.3323
 IR Inten    --      6.5653                19.2492                42.5688

                     61                     62                     63
                      A                      A                      A
 Frequencies --   1496.0108              1511.7007              1519.1570
 Red. masses --      1.0903                 1.2182                 1.1044
 Frc consts  --      1.4377                 1.6402                 1.5017
 IR Inten    --      5.9371                23.0191                 4.4603

                     64                     65                     66
                      A                      A                      A
 Frequencies --   1531.6472              1536.4004              1561.1972
 Red. masses --      1.0599                 1.0679                 1.1140
 Frc consts  --      1.4650                 1.4853                 1.5997
 IR Inten    --      1.0068                 4.9435                16.6839

                     67                     68                     69
                      A                      A                      A
 Frequencies --   1656.0674              1705.2076              1770.5950
 Red. masses --      1.2429                 1.0917                 9.1244
 Frc consts  --      2.0083                 1.8704                16.8536
 IR Inten    --     82.2275                34.6317               178.5880

                     70                     71                     72
                      A                      A                      A
 Frequencies --   1792.9701              3034.9025              3039.3213
 Red. masses --      8.7185                 1.0612                 1.0657
 Frc consts  --     16.5135                 5.7587                 5.7999
 IR Inten    --    353.5141                25.8265                 7.6872

                     73                     74                     75
                      A                      A                      A
 Frequencies --   3047.8765              3056.0585              3065.3996
 Red. masses --      1.0373                 1.0700                 1.0955
 Frc consts  --      5.6774                 5.8881                 6.0649
 IR Inten    --     23.9384                23.3019                 6.8506

                     76                     77                     78
                      A                      A                      A
 Frequencies --   3081.5219              3083.4165              3094.9033
 Red. masses --      1.0869                 1.0627                 1.0993
 Frc consts  --      6.0810                 5.9527                 6.2039
 IR Inten    --     48.9797                 9.3182                28.8375

                     79                     80                     81
                      A                      A                      A
 Frequencies --   3113.8263              3119.9508              3123.0906
 Red. masses --      1.1018                 1.1015                 1.0964
 Frc consts  --      6.2943                 6.3171                 6.3006
 IR Inten    --     56.2696                28.3818                17.8684

                     82                     83                     84
                      A                      A                      A
 Frequencies --   3123.7352              3142.3773              3448.4099
 Red. masses --      1.0924                 1.1005                 1.0509
 Frc consts  --      6.2804                 6.4028                 7.3627
 IR Inten    --      0.7989                15.3135                 3.3898

                     85                     86                     87
                      A                      A                      A
 Frequencies --   3537.3322              3539.3120              3668.7657
 Red. masses --      1.0508                 1.0864                 1.1034
 Frc consts  --      7.7465                 8.0182                 8.7505
 IR Inten    --     42.5671                 9.9202                49.1358

 - Thermochemistry -
 -------------------
 Temperature   298.150 Kelvin.  Pressure   1.00000 Atm.
 Atom     1 has atomic number  6 and mass  12.00000

 Molecular mass:   199.13208 amu.
 Principal axes and moments of inertia in atomic units:
                           1         2         3
     Eigenvalues --  1482.937274358.258154650.12476
           X            0.99988   0.01237  -0.00982
           Y           -0.01147   0.99614   0.08699
           Z            0.01086  -0.08687   0.99616
 This molecule is an asymmetric top.
 Rotational symmetry number  1.
 Warning -- assumption of classical behavior for rotation
           may cause significant error
 Rotational temperatures (Kelvin)      0.05841     0.01987     0.01863
 Rotational constants (GHZ):           1.21700     0.41410     0.38811
 Zero-point vibrational energy     712838.4 (Joules/Mol)
                                  170.37248 (Kcal/Mol)
 Warning -- explicit consideration of  21 degrees of freedom as
           vibrations may cause significant error
 Vibrational temperatures:     49.85    83.62    97.41   122.54   137.96
          (Kelvin)            166.79   234.47   301.95   338.41   358.44
                              383.27   398.20   436.32   483.79   498.35
                              541.72   607.87   667.68   738.68   760.02
                              836.01   911.49   929.96  1004.30  1013.71
                             1100.53  1134.20  1137.60  1154.22  1224.25
                             1329.26  1347.88  1388.75  1410.08  1439.50
                             1496.11  1514.22  1533.15  1546.29  1610.61
                             1631.29  1650.94  1666.13  1711.30  1749.06
                             1811.00  1820.68  1834.00  1876.27  1882.00
                             1907.44  1923.46  1931.61  1982.65  1989.91
                             2004.95  2032.76  2078.14  2098.92  2125.99
                             2152.43  2175.00  2185.73  2203.70  2210.54
                             2246.21  2382.71  2453.41  2547.49  2579.68
                             4366.55  4372.91  4385.21  4396.99  4410.43
                             4433.62  4436.35  4452.88  4480.10  4488.91
                             4493.43  4494.36  4521.18  4961.49  5089.43
                             5092.28  5278.54

 Zero-point correction=                           0.271506 (Hartree/Particle)
 Thermal correction to Energy=                    0.286250
 Thermal correction to Enthalpy=                  0.287194
 Thermal correction to Gibbs Free Energy=         0.229326
 Sum of electronic and zero-point Energies=           -667.717585
 Sum of electronic and thermal Energies=              -667.702842
 Sum of electronic and thermal Enthalpies=            -667.701897
 Sum of electronic and thermal Free Energies=         -667.759766

                     E (Thermal)             CV                S
                      KCal/Mol        Cal/Mol-Kelvin    Cal/Mol-Kelvin
 Total                  179.624             55.077            121.794
 Electronic               0.000              0.000              0.000
 Translational            0.889              2.981             41.771
 Rotational               0.889              2.981             31.775
 Vibrational            177.847             49.115             48.248
 Vibration     1          0.594              1.983              5.544
 Vibration     2          0.596              1.974              4.520
 Vibration     3          0.598              1.970              4.219
 Vibration     4          0.601              1.959              3.768
 Vibration     5          0.603              1.952              3.536
 Vibration     6          0.608              1.936              3.167
 Vibration     7          0.623              1.888              2.515
 Vibration     8          0.642              1.826              2.045
 Vibration     9          0.655              1.787              1.839
 Vibration    10          0.662              1.764              1.737
 Vibration    11          0.672              1.735              1.620
 Vibration    12          0.678              1.716              1.554
 Vibration    13          0.695              1.668              1.399
 Vibration    14          0.717              1.603              1.230
 Vibration    15          0.724              1.583              1.183
 Vibration    16          0.747              1.520              1.053
 Vibration    17          0.785              1.421              0.884
 Vibration    18          0.822              1.330              0.754
 Vibration    19          0.868              1.220              0.625
 Vibration    20          0.883              1.188              0.591
 Vibration    21          0.938              1.072              0.483

 Optimization completed.
    -- Stationary point found.
 Normal termination of Gaussian 16 at Thu Dec 10 11:20:17 2020.

 ----------------------------------------------------------------------
 # B3LYP/6-311++G(d,p) empiricaldispersion=gd3bj scf=xqc pop=npa geom=c
 heck
 ----------------------------------------------------------------------

 --------------------------------------
 CID_81941376_JID_4965_Energie_neutraal
 --------------------------------------
 Structure from the checkpoint file:  "JID_4965.chk"
 Charge =  0 Multiplicity = 1

 SCF Done:  E(RB3LYP) =  -668.196442601     A.U. after   14 cycles
 Normal termination of Gaussian 16 at Thu Dec 10 11:25:36 2020.

 ----------------------------------------------------------------------
 # B3LYP/6-311++G(d,p) empiricaldispersion=gd3bj scf=xqc pop=npa geom=c
 heck
 ----------------------------------------------------------------------

 ------------------------------------
 CID_81941376_JID_4965_Energie_kation
 ------------------------------------
 Structure from the checkpoint file:  "JID_4965.chk"
 Charge =  1 Multiplicity = 2

 SCF Done:  E(UB3LYP) =  -667.880800694     A.U. after   26 cycles
 Normal termination of Gaussian 16 at Thu Dec 10 11:36:51 2020.
 Gaussian 16:  ES64L-G16RevA.03 25-Dec-2016

 ----------------------------------------------------------------------
 # B3LYP/6-311++G(d,p) empiricaldispersion=gd3bj scf=xqc pop=npa geom=c
 heck
 ----------------------------------------------------------------------

 -----------------------------------
 CID_81941376_JID_4965_Energie_anion
 -----------------------------------
 Structure from the checkpoint file:  "JID_4965.chk"
 Charge = -1 Multiplicity = 2

                         Standard orientation:
 ---------------------------------------------------------------------
 Center     Atomic      Atomic             Coordinates (Angstroms)
 Number     Number       Type             X           Y           Z
 ---------------------------------------------------------------------
      1          6           0       -4.231768   -1.328334    0.161183
      2          6           0       -3.428652   -0.103304   -0.281818
      3          6           0       -2.259453    0.246357    0.653295
      4          6           0       -1.570995    1.560508    0.237440
      5          6           0       -0.399305    1.129183   -0.637102
      6          8           0        0.314905    1.857978   -1.325126
      7          7           0       -0.227406   -0.209043   -0.465882
      8          6           0       -1.105778   -0.779944    0.553974
      9          6           0        0.896730   -0.947798   -1.024534
     10          6           0        2.284320   -0.374070   -0.660622
     11          6           0        2.280057    0.072871    0.811131
     12          8           0        2.371606   -0.749202    1.718664
     13          7           0        2.192981    1.415998    1.016458
     14          7           0        3.270525   -1.421411   -0.917389
     15          1           0       -3.614158   -2.232825    0.198493
     16          1           0       -5.058801   -1.525684   -0.529025
     17          1           0       -4.658323   -1.177272    1.160221
     18          1           0       -3.038590   -0.255067   -1.297812
     19          1           0       -4.098824    0.764304   -0.336691
     20          1           0       -2.631341    0.297065    1.682295
     21          1           0       -1.156349    2.098718    1.099602
     22          1           0       -2.221618    2.256041   -0.299781
     23          1           0       -0.561419   -0.893165    1.501341
     24          1           0       -1.448329   -1.772297    0.243976
     25          1           0        0.836770   -1.968468   -0.638842
     26          1           0        0.815525   -0.994203   -2.114646
     27          1           0        2.487899    0.479291   -1.309611
     28          1           0        1.867273    2.012762    0.263685
     29          1           0        2.076770    1.737293    1.968715
     30          1           0        4.201860   -1.009312   -0.947055
     31          1           0        3.265927   -2.039025   -0.103164
 ---------------------------------------------------------------------

 SCF Done:  E(UB3LYP) =  -668.184604865     A.U. after   33 cycles
 SCF Done:  E(UB3LYP) =  -668.184604865     a.u. after    1 cycles

 The electronic state is 2-A.
 Alpha  occ. eigenvalues --  -19.00248 -18.99726 -14.25169 -14.23903 -14.21471
 Alpha  occ. eigenvalues --  -10.18206 -10.17550 -10.12207 -10.12091 -10.11248
 Alpha  occ. eigenvalues --  -10.08641 -10.07896 -10.07267 -10.06255  -0.95178
 Alpha  occ. eigenvalues --   -0.94569  -0.86037  -0.81619  -0.80732  -0.72655
 Alpha  occ. eigenvalues --   -0.66889  -0.63341  -0.61738  -0.57204  -0.54023
 Alpha  occ. eigenvalues --   -0.49660  -0.48159  -0.45827  -0.43817  -0.42534
 Alpha  occ. eigenvalues --   -0.40980  -0.39648  -0.37319  -0.36728  -0.35642
 Alpha  occ. eigenvalues --   -0.34770  -0.34072  -0.33640  -0.32237  -0.31145
 Alpha  occ. eigenvalues --   -0.30368  -0.29803  -0.28821  -0.28315  -0.27133
 Alpha  occ. eigenvalues --   -0.26669  -0.25068  -0.23569  -0.22679  -0.19354
 Alpha  occ. eigenvalues --   -0.18173  -0.16835  -0.16166  -0.15373   0.04307
 Alpha virt. eigenvalues --    0.06178   0.06674   0.08041   0.08113   0.08734
 Alpha virt. eigenvalues --    0.09309   0.09826   0.10295   0.10504   0.11222
 Alpha virt. eigenvalues --    0.11570   0.12050   0.12113   0.12631   0.14009

  Beta  occ. eigenvalues --  -19.00240 -18.99721 -14.25162 -14.23859 -14.21458
  Beta  occ. eigenvalues --  -10.18205 -10.17542 -10.12201 -10.12082 -10.11231
  Beta  occ. eigenvalues --  -10.08623 -10.07871 -10.07247 -10.06213  -0.95165
  Beta  occ. eigenvalues --   -0.94556  -0.86021  -0.81572  -0.80703  -0.72619
  Beta  occ. eigenvalues --   -0.66853  -0.63298  -0.61694  -0.57157  -0.53942
  Beta  occ. eigenvalues --   -0.49605  -0.48093  -0.45791  -0.43796  -0.42484
  Beta  occ. eigenvalues --   -0.40926  -0.39616  -0.37289  -0.36694  -0.35611
  Beta  occ. eigenvalues --   -0.34722  -0.34048  -0.33605  -0.32214  -0.31115
  Beta  occ. eigenvalues --   -0.30339  -0.29764  -0.28784  -0.28276  -0.27106
  Beta  occ. eigenvalues --   -0.26636  -0.24997  -0.23534  -0.22636  -0.19329
  Beta  occ. eigenvalues --   -0.18149  -0.16811  -0.16149  -0.15349
  Beta virt. eigenvalues --    0.06447   0.06962   0.07793   0.08426   0.08653
  Beta virt. eigenvalues --    0.09136   0.09823   0.09943   0.10488   0.10846
  Beta virt. eigenvalues --    0.11630   0.11833   0.12232   0.12593   0.12942

 Mulliken charges and spin densities:
               1          2
     1  C    1.357236  -1.976318
     2  C   -0.158259  -0.066937
     3  C   -0.407164   0.841905
     4  C    0.957600  -1.469286
     5  C   -0.691978   0.408932
     6  O   -0.344932   0.017536
     7  N    0.244037  -0.001407
     8  C    0.247526  -0.807201
     9  C   -0.438938   0.275339
    10  C    0.866611  -1.160503
    11  C   -0.129908  -0.158582
    12  O   -0.351397   0.038795
    13  N   -0.246341   0.063961
    14  N   -0.361881   0.119626
    15  H   -0.263588   0.384135
    16  H   -0.382178   0.518911
    17  H   -0.221291   0.364981
    18  H   -0.026786   0.169330
    19  H   -0.189108   0.331817
    20  H   -0.749822   1.004372
    21  H   -0.313564   0.524749
    22  H   -0.072230   0.255922
    23  H    0.160980   0.045740
    24  H    0.028010   0.120979
    25  H   -0.000775   0.183549
    26  H    0.088733   0.097213
    27  H    0.157282   0.093797
    28  H    0.202157   0.059664
    29  H   -0.249426   0.547427
    30  H    0.095232   0.139805
    31  H    0.194163   0.031748
 Sum of Mulliken charges =  -1.00000   1.00000

 Dipole moment (field-independent basis, Debye):
    X=              4.8116    Y=             -1.3854    Z=             -3.6824  Tot=              6.2154
 Quadrupole moment (field-independent basis, Debye-Ang):
   XX=           -160.9160   YY=           -127.3719   ZZ=           -130.5607
   XY=             -3.2800   XZ=              2.3178   YZ=             -3.6498

 Summary of Natural Population Analysis:

                                       Natural Population
                Natural  -----------------------------------------------
    Atom  No    Charge         Core      Valence    Rydberg      Total
 -----------------------------------------------------------------------
      C    1   -0.28359      0.99967     2.27951    0.00441     3.28359
      C    2   -0.18795      0.99962     2.17914    0.00919     3.18795
      C    3   -0.11549      0.99960     2.10348    0.01241     3.11549
      C    4   -0.22747      0.99958     2.21773    0.01016     3.22747
      C    5    0.35268      0.99962     1.62368    0.02402     2.64732
      O    6   -0.34354      0.99987     3.33808    0.00559     4.34354
      N    7   -0.25545      0.99962     2.74578    0.01005     3.75545
      C    8   -0.07535      0.99960     2.06521    0.01054     3.07535
      C    9   -0.08008      0.99959     2.06863    0.01185     3.08008
      C   10   -0.05703      0.99956     2.04579    0.01168     3.05703
      C   11    0.32783      0.99967     1.64569    0.02681     2.67217
      O   12   -0.33040      0.99988     3.32408    0.00645     4.33040
      N   13   -0.39970      0.99969     2.89152    0.00848     3.89970
      N   14   -0.41685      0.99977     2.90823    0.00885     3.91685
      H   15    0.09463      0.00000     0.40392    0.00145     0.40537
      H   16    0.10026      0.00000     0.39846    0.00128     0.39974
      H   17    0.09882      0.00000     0.39942    0.00176     0.40118
      H   18    0.09393      0.00000     0.40448    0.00158     0.40607
      H   19    0.09878      0.00000     0.39991    0.00131     0.40122
      H   20    0.10574      0.00000     0.39172    0.00254     0.39426
      H   21    0.11737      0.00000     0.37976    0.00287     0.38263
      H   22    0.11063      0.00000     0.38814    0.00124     0.38937
      H   23    0.10127      0.00000     0.39742    0.00131     0.39873
      H   24    0.09647      0.00000     0.40223    0.00130     0.40353
      H   25    0.10304      0.00000     0.39566    0.00130     0.39696
      H   26    0.10487      0.00000     0.39398    0.00115     0.39513
      H   27    0.10632      0.00000     0.39215    0.00153     0.39368
      H   28    0.20628      0.00000     0.29117    0.00256     0.29372
      H   29    0.19737      0.00000     0.29840    0.00423     0.30263
      H   30    0.17528      0.00000     0.32318    0.00154     0.32472
      H   31    0.18131      0.00000     0.31666    0.00203     0.31869
 =======================================================================
   * Total *    0.00000     13.99535    39.81321    0.19144    54.00000

 Normal termination of Gaussian 16 at Thu Dec 10 11:50:06 2020.
