 Gaussian 16, Revision A.03,

 -----------------------------------------------------------
 # opt freq B3LYP/6-31G(d) empiricaldispersion=gd3bj scf=xqc
 -----------------------------------------------------------

 -------------------------------
 CID_150873094_JID_6387_neutraal
 -------------------------------
 Symbolic Z-matrix:
 Charge =  0 Multiplicity = 1

 SCF Done:  E(RB3LYP) =  -1603.93370982     A.U. after   17 cycles
 SCF Done:  E(RB3LYP) =  -1603.95365029     A.U. after   15 cycles
 SCF Done:  E(RB3LYP) =  -1603.95754880     A.U. after   14 cycles
 SCF Done:  E(RB3LYP) =  -1603.95848971     A.U. after   14 cycles
 SCF Done:  E(RB3LYP) =  -1603.95923539     A.U. after   13 cycles
 SCF Done:  E(RB3LYP) =  -1603.95953788     A.U. after   13 cycles
 SCF Done:  E(RB3LYP) =  -1603.95986979     A.U. after   13 cycles
 SCF Done:  E(RB3LYP) =  -1603.96004874     A.U. after   13 cycles
 SCF Done:  E(RB3LYP) =  -1603.96015088     A.U. after   12 cycles
 SCF Done:  E(RB3LYP) =  -1603.96023883     A.U. after   12 cycles
 SCF Done:  E(RB3LYP) =  -1603.96306610     A.U. after   12 cycles
 SCF Done:  E(RB3LYP) =  -1603.96306771     A.U. after    9 cycles
 SCF Done:  E(RB3LYP) =  -1603.96306832     A.U. after    9 cycles
 SCF Done:  E(RB3LYP) =  -1603.96306840     A.U. after    8 cycles
 SCF Done:  E(RB3LYP) =  -1603.96306842     A.U. after    8 cycles
 Optimization completed.
    -- Stationary point found.
 Normal termination of Gaussian 16 at Thu Dec 10 22:39:04 2020.

 --------------------------------------------------------------------
 #N Geom=AllCheck Guess=TCheck SCRF=Check GenChk RB3LYP/6-31G(d) Freq
 --------------------------------------------------------------------

 Structure from the checkpoint file:  "JID_6387.chk"
 -------------------------------
 CID_150873094_JID_6387_neutraal
 -------------------------------
 Charge =  0 Multiplicity = 1

 SCF Done:  E(RB3LYP) =  -1603.96306842     A.U. after    1 cycles

  Exact polarizability: 155.232  16.721 113.640  -5.897  -7.152 102.865
 Approx polarizability: 267.279  30.105 163.771 -19.071 -12.895 183.011

                      1                      2                      3
                      A                      A                      A
 Frequencies --     29.6470                38.0788                51.0934
 Red. masses --      7.8419                 8.9861                 5.7848
 Frc consts  --      0.0041                 0.0077                 0.0089
 IR Inten    --      1.7556                 0.5217                 1.0600

                      4                      5                      6
                      A                      A                      A
 Frequencies --     52.7676                71.6718               108.1534
 Red. masses --      8.6165                 5.5396                 6.4599
 Frc consts  --      0.0141                 0.0168                 0.0445
 IR Inten    --      1.1365                 1.9761                10.7968

                      7                      8                      9
                      A                      A                      A
 Frequencies --    116.3248               153.4268               179.3473
 Red. masses --      8.1183                12.0362                 6.3794
 Frc consts  --      0.0647                 0.1669                 0.1209
 IR Inten    --      2.5029                 0.0399                 2.3187

                     10                     11                     12
                      A                      A                      A
 Frequencies --    193.7074               205.4721               217.6339
 Red. masses --      4.7061                 1.2531                 1.2149
 Frc consts  --      0.1040                 0.0312                 0.0339
 IR Inten    --      0.3944                 0.4945                 1.7869

                     13                     14                     15
                      A                      A                      A
 Frequencies --    233.0272               250.0267               262.0501
 Red. masses --      2.8426                 5.5151                 6.4709
 Frc consts  --      0.0909                 0.2031                 0.2618
 IR Inten    --      3.3964                 5.6066                 6.0525

                     16                     17                     18
                      A                      A                      A
 Frequencies --    306.3527               324.1396               342.9537
 Red. masses --      7.5662                 3.8991                 3.7351
 Frc consts  --      0.4184                 0.2414                 0.2588
 IR Inten    --     15.3628                 5.8688                 4.3185

                     19                     20                     21
                      A                      A                      A
 Frequencies --    384.3130               393.1866               423.9060
 Red. masses --     11.0144                11.2788                 3.0966
 Frc consts  --      0.9585                 1.0273                 0.3278
 IR Inten    --      3.9011                 3.0272                 6.2096

                     22                     23                     24
                      A                      A                      A
 Frequencies --    460.7287               482.8926               507.9692
 Red. masses --      3.7900                 7.5059                 5.7978
 Frc consts  --      0.4740                 1.0312                 0.8814
 IR Inten    --      7.7001                48.3897                54.2996

                     25                     26                     27
                      A                      A                      A
 Frequencies --    520.7155               547.1650               556.7562
 Red. masses --      4.7326                 6.1893                 2.2679
 Frc consts  --      0.7560                 1.0918                 0.4142
 IR Inten    --     88.3269               118.3632                13.6804

                     28                     29                     30
                      A                      A                      A
 Frequencies --    571.4911               580.3195               632.1868
 Red. masses --      9.1903                 5.8248                 4.0638
 Frc consts  --      1.7685                 1.1557                 0.9569
 IR Inten    --      1.3302                40.1579                38.1293

                     31                     32                     33
                      A                      A                      A
 Frequencies --    694.3116               701.7958               732.4638
 Red. masses --      1.9130                 4.7920                 4.1108
 Frc consts  --      0.5434                 1.3906                 1.2994
 IR Inten    --     94.9432                93.1104                 2.4235

                     34                     35                     36
                      A                      A                      A
 Frequencies --    769.1002               827.8066               894.4890
 Red. masses --      8.5669                 3.9261                 3.2076
 Frc consts  --      2.9857                 1.5851                 1.5121
 IR Inten    --     95.5562                92.8386               110.7862

                     37                     38                     39
                      A                      A                      A
 Frequencies --   1010.7018              1020.9202              1035.9785
 Red. masses --      1.3869                 1.3477                 1.6615
 Frc consts  --      0.8347                 0.8276                 1.0506
 IR Inten    --     33.4557                18.7600                38.0055

                     40                     41                     42
                      A                      A                      A
 Frequencies --   1071.7124              1115.1546              1132.3184
 Red. masses --      1.7324                 6.8860                 9.8696
 Frc consts  --      1.1724                 5.0453                 7.4557
 IR Inten    --      1.8697               198.0936               143.5370

                     43                     44                     45
                      A                      A                      A
 Frequencies --   1151.9834              1201.0758              1258.7576
 Red. masses --      4.9712                 2.8152                 7.7093
 Frc consts  --      3.8869                 2.3928                 7.1970
 IR Inten    --     28.3292               102.9267               195.2691

                     46                     47                     48
                      A                      A                      A
 Frequencies --   1290.1587              1305.0871              1332.0506
 Red. masses --      1.5945                 1.8686                 1.3513
 Frc consts  --      1.5638                 1.8752                 1.4127
 IR Inten    --    127.3478               115.9617                22.9505

                     49                     50                     51
                      A                      A                      A
 Frequencies --   1342.9449              1346.6549              1389.7663
 Red. masses --      7.4172                11.5410                 1.2282
 Frc consts  --      7.8815                12.3313                 1.3977
 IR Inten    --    177.0213               286.3048                 3.5914

                     52                     53                     54
                      A                      A                      A
 Frequencies --   1425.5715              1436.3054              1479.5554
 Red. masses --      1.3706                 1.3705                 1.0653
 Frc consts  --      1.6411                 1.6658                 1.3740
 IR Inten    --     52.3474                57.1807                 2.9261

                     55                     56                     57
                      A                      A                      A
 Frequencies --   1491.2368              1500.2468              1509.6228
 Red. masses --      1.0510                 1.4001                 1.1203
 Frc consts  --      1.3771                 1.8566                 1.5042
 IR Inten    --     13.1447                62.4574                58.3308

                     58                     59                     60
                      A                      A                      A
 Frequencies --   1519.2301              1836.6286              2266.5598
 Red. masses --      1.0814                 8.9866                13.9446
 Frc consts  --      1.4705                17.8603                42.2075
 IR Inten    --     27.1183               351.7571               468.1692

                     61                     62                     63
                      A                      A                      A
 Frequencies --   3062.9605              3092.3800              3127.5665
 Red. masses --      1.0390                 1.0290                 1.1016
 Frc consts  --      5.7430                 5.7975                 6.3487
 IR Inten    --      2.5762                 3.0062                 2.1956

                     64                     65                     66
                      A                      A                      A
 Frequencies --   3139.5741              3185.8305              3193.5837
 Red. masses --      1.0860                 1.1003                 1.1069
 Frc consts  --      6.3069                 6.5795                 6.6517
 IR Inten    --     12.5407                 4.3799                 0.2587

                     67                     68                     69
                      A                      A                      A
 Frequencies --   3211.1731              3541.3218              3549.7215
 Red. masses --      1.1086                 1.0759                 1.0755
 Frc consts  --      6.7354                 7.9499                 7.9844
 IR Inten    --      8.3148                54.2462                28.4261

 - Thermochemistry -
 -------------------
 Temperature   298.150 Kelvin.  Pressure   1.00000 Atm.
 Atom     1 has atomic number  6 and mass  12.00000

 Molecular mass:   271.00451 amu.
 Principal axes and moments of inertia in atomic units:
                           1         2         3
     Eigenvalues --  3440.050544679.422916406.08261
           X            0.99872   0.05033  -0.00396
           Y           -0.05037   0.99866  -0.01223
           Z            0.00334   0.01241   0.99992
 This molecule is an asymmetric top.
 Rotational symmetry number  1.
 Warning -- assumption of classical behavior for rotation
           may cause significant error
 Rotational temperatures (Kelvin)      0.02518     0.01851     0.01352
 Rotational constants (GHZ):           0.52463     0.38568     0.28172
 Zero-point vibrational energy     450943.1 (Joules/Mol)
                                  107.77800 (Kcal/Mol)
 Warning -- explicit consideration of  29 degrees of freedom as
           vibrations may cause significant error
 Vibrational temperatures:     42.66    54.79    73.51    75.92   103.12
          (Kelvin)            155.61   167.37   220.75   258.04   278.70
                              295.63   313.13   335.27   359.73   377.03
                              440.77   466.36   493.43   552.94   565.71
                              609.91   662.89   694.77   730.85   749.19
                              787.25   801.05   822.25   834.95   909.58
                              998.96  1009.73  1053.85  1106.56  1191.03
                             1286.97  1454.17  1468.88  1490.54  1541.96
                             1604.46  1629.15  1657.45  1728.08  1811.07
                             1856.25  1877.73  1916.52  1932.20  1937.54
                             1999.56  2051.08  2066.52  2128.75  2145.56
                             2158.52  2172.01  2185.83  2642.50  3261.07
                             4406.92  4449.25  4499.87  4517.15  4583.70
                             4594.85  4620.16  5095.17  5107.26

 Zero-point correction=                           0.171755 (Hartree/Particle)
 Thermal correction to Energy=                    0.189306
 Thermal correction to Enthalpy=                  0.190250
 Thermal correction to Gibbs Free Energy=         0.124876
 Sum of electronic and zero-point Energies=          -1603.791313
 Sum of electronic and thermal Energies=             -1603.773762
 Sum of electronic and thermal Enthalpies=           -1603.772818
 Sum of electronic and thermal Free Energies=        -1603.838192

                     E (Thermal)             CV                S
                      KCal/Mol        Cal/Mol-Kelvin    Cal/Mol-Kelvin
 Total                  118.791             62.170            137.592
 Electronic               0.000              0.000              0.000
 Translational            0.889              2.981             42.690
 Rotational               0.889              2.981             33.000
 Vibrational            117.014             56.208             61.902
 Vibration     1          0.593              1.984              5.853
 Vibration     2          0.594              1.982              5.357
 Vibration     3          0.595              1.977              4.775
 Vibration     4          0.596              1.977              4.711
 Vibration     5          0.598              1.968              4.107
 Vibration     6          0.606              1.943              3.302
 Vibration     7          0.608              1.936              3.161
 Vibration     8          0.619              1.899              2.629
 Vibration     9          0.629              1.868              2.335
 Vibration    10          0.635              1.849              2.192
 Vibration    11          0.640              1.832              2.084
 Vibration    12          0.646              1.814              1.979
 Vibration    13          0.654              1.790              1.856
 Vibration    14          0.663              1.763              1.730
 Vibration    15          0.669              1.742              1.648
 Vibration    16          0.697              1.662              1.382
 Vibration    17          0.709              1.627              1.289
 Vibration    18          0.722              1.590              1.198
 Vibration    19          0.753              1.504              1.022
 Vibration    20          0.760              1.485              0.988
 Vibration    21          0.786              1.418              0.879
 Vibration    22          0.819              1.337              0.764
 Vibration    23          0.839              1.288              0.702
 Vibration    24          0.863              1.232              0.638
 Vibration    25          0.876              1.204              0.608
 Vibration    26          0.902              1.146              0.550
 Vibration    27          0.912              1.125              0.530
 Vibration    28          0.928              1.093              0.501
 Vibration    29          0.937              1.074              0.485

 Optimization completed.
    -- Stationary point found.
 Normal termination of Gaussian 16 at Thu Dec 10 22:47:03 2020.

 ----------------------------------------------------------------------
 # B3LYP/6-311++G(d,p) empiricaldispersion=gd3bj scf=xqc pop=npa geom=c
 heck
 ----------------------------------------------------------------------

 ---------------------------------------
 CID_150873094_JID_6387_Energie_neutraal
 ---------------------------------------
 Structure from the checkpoint file:  "JID_6387.chk"
 Charge =  0 Multiplicity = 1

 SCF Done:  E(RB3LYP) =  -1604.26365630     A.U. after   18 cycles
 Normal termination of Gaussian 16 at Thu Dec 10 22:50:33 2020.

 ----------------------------------------------------------------------
 # B3LYP/6-311++G(d,p) empiricaldispersion=gd3bj scf=xqc pop=npa geom=c
 heck
 ----------------------------------------------------------------------

 -------------------------------------
 CID_150873094_JID_6387_Energie_kation
 -------------------------------------
 Structure from the checkpoint file:  "JID_6387.chk"
 Charge =  1 Multiplicity = 2

 SCF Done:  E(UB3LYP) =  -1603.89779276     A.U. after   33 cycles
 SCF Done:  E(UB3LYP) =  -1603.89779276     a.u. after    2 cycles
 Normal termination of Gaussian 16 at Thu Dec 10 23:07:31 2020.
 Gaussian 16:  ES64L-G16RevA.03 25-Dec-2016

 ----------------------------------------------------------------------
 # B3LYP/6-311++G(d,p) empiricaldispersion=gd3bj scf=xqc pop=npa geom=c
 heck
 ----------------------------------------------------------------------

 ------------------------------------
 CID_150873094_JID_6387_Energie_anion
 ------------------------------------
 Structure from the checkpoint file:  "JID_6387.chk"
 Charge = -1 Multiplicity = 2

                         Standard orientation:
 ---------------------------------------------------------------------
 Center     Atomic      Atomic             Coordinates (Angstroms)
 Number     Number       Type             X           Y           Z
 ---------------------------------------------------------------------
      1          6           0       -2.971451   -1.812376    0.805787
      2          6           0       -2.903967   -1.086156   -0.518923
      3          8           0       -3.847648   -0.940841   -1.266430
      4          7           0       -1.651067   -0.573621   -0.899395
      5          6           0       -0.539313   -0.406260   -0.047510
      6          7           0        0.720291   -0.492795   -0.744500
      7         16           0        1.978222   -1.424731   -0.014683
      8          8           0        1.416110   -2.058461    1.180196
      9          8           0        2.551703   -2.202710   -1.111179
     10          6           0        3.144005   -0.162281    0.491637
     11         16           0       -0.586653    1.304282    0.756537
     12          8           0       -1.921263    1.547940    1.287310
     13          8           0        0.623750    1.503048    1.561291
     14          7           0       -0.471211    2.288280   -0.713956
     15          7           0        0.706728    2.610146   -0.964367
     16          7           0        1.746892    2.959615   -1.254500
     17          1           0       -3.956752   -2.271458    0.884897
     18          1           0       -2.842142   -1.103100    1.631047
     19          1           0       -2.201481   -2.587205    0.890220
     20          1           0       -1.716698    0.055983   -1.695152
     21          1           0       -0.575133   -1.082735    0.808640
     22          1           0        0.613213   -0.810947   -1.705559
     23          1           0        3.477082    0.371480   -0.399533
     24          1           0        2.639975    0.506237    1.189799
     25          1           0        3.978538   -0.681822    0.967556
 ---------------------------------------------------------------------

 SCF Done:  E(UB3LYP) =  -1604.29640065     A.U. after   29 cycles

 The electronic state is 2-A.
 Alpha  occ. eigenvalues --  -88.98174 -88.89999 -19.03849 -19.03789 -19.00706
 Alpha  occ. eigenvalues --  -18.99740 -18.99620 -14.27600 -14.26181 -14.25619
 Alpha  occ. eigenvalues --  -14.20844 -14.19081 -10.19277 -10.17738 -10.11299
 Alpha  occ. eigenvalues --  -10.09035  -8.04392  -7.96841  -6.00706  -6.00638
 Alpha  occ. eigenvalues --   -6.00429  -5.93066  -5.92983  -5.92850  -1.04031
 Alpha  occ. eigenvalues --   -0.99538  -0.96162  -0.95928  -0.93281  -0.88873
 Alpha  occ. eigenvalues --   -0.87931  -0.81160  -0.80563  -0.68906  -0.66054
 Alpha  occ. eigenvalues --   -0.62860  -0.55427  -0.53426  -0.50295  -0.46110
 Alpha  occ. eigenvalues --   -0.44356  -0.43310  -0.40810  -0.40033  -0.38802
 Alpha  occ. eigenvalues --   -0.38344  -0.36192  -0.35990  -0.35272  -0.34140
 Alpha  occ. eigenvalues --   -0.33954  -0.32989  -0.32642  -0.32425  -0.31666
 Alpha  occ. eigenvalues --   -0.28967  -0.28855  -0.27426  -0.25057  -0.24901
 Alpha  occ. eigenvalues --   -0.24369  -0.23266  -0.22991  -0.21417  -0.20232
 Alpha  occ. eigenvalues --   -0.18900  -0.17856  -0.17526  -0.14493  -0.12099
 Alpha  occ. eigenvalues --    0.03725
 Alpha virt. eigenvalues --    0.07392   0.08091   0.08732   0.09710   0.10837
 Alpha virt. eigenvalues --    0.11673   0.11871   0.12459   0.12781   0.13300
 Alpha virt. eigenvalues --    0.13644   0.14210   0.14835   0.15000   0.15179

  Beta  occ. eigenvalues --  -88.98172 -88.89794 -19.03846 -19.03785 -19.00663
  Beta  occ. eigenvalues --  -18.99657 -18.99531 -14.27012 -14.26179 -14.25636
  Beta  occ. eigenvalues --  -14.20810 -14.18190 -10.19233 -10.17632 -10.11279
  Beta  occ. eigenvalues --  -10.09035  -8.04390  -7.96612  -6.00700  -6.00637
  Beta  occ. eigenvalues --   -6.00425  -5.92909  -5.92696  -5.92570  -1.04021
  Beta  occ. eigenvalues --   -0.99080  -0.96049  -0.94834  -0.93276  -0.88642
  Beta  occ. eigenvalues --   -0.87876  -0.81147  -0.79804  -0.68870  -0.66015
  Beta  occ. eigenvalues --   -0.62589  -0.54862  -0.52944  -0.50242  -0.46011
  Beta  occ. eigenvalues --   -0.44310  -0.42827  -0.40759  -0.39949  -0.38581
  Beta  occ. eigenvalues --   -0.38310  -0.35979  -0.35710  -0.34106  -0.33982
  Beta  occ. eigenvalues --   -0.33794  -0.32564  -0.32540  -0.31632  -0.31212
  Beta  occ. eigenvalues --   -0.28788  -0.27428  -0.26847  -0.24859  -0.24306
  Beta  occ. eigenvalues --   -0.24085  -0.23213  -0.22971  -0.21247  -0.19818
  Beta  occ. eigenvalues --   -0.18624  -0.17583  -0.17304  -0.13346  -0.11698
  Beta virt. eigenvalues --    0.07273   0.08056   0.08951   0.09622   0.10776
  Beta virt. eigenvalues --    0.11465   0.11751   0.12403   0.12542   0.13302
  Beta virt. eigenvalues --    0.13382   0.13707   0.14239   0.14970   0.15031

 Mulliken charges and spin densities:
               1          2
     1  C   -0.370121  -0.023871
     2  C    0.099574   0.012768
     3  O   -0.323892   0.014426
     4  N    0.005453  -0.005972
     5  C   -1.536886   0.021123
     6  N   -0.263214   0.013711
     7  S    0.400019   0.025750
     8  O   -0.174595   0.003278
     9  O   -0.198368  -0.002808
    10  C   -0.448918  -0.133269
    11  S    0.704129   0.138693
    12  O   -0.153359   0.028078
    13  O   -0.209521   0.024851
    14  N   -0.269251   0.028692
    15  N    0.256741   0.145692
    16  N   -0.561319   0.492737
    17  H    0.189506   0.006218
    18  H    0.196527   0.002791
    19  H    0.124046   0.033083
    20  H    0.294797   0.000606
    21  H    0.371888   0.006650
    22  H    0.344315  -0.003402
    23  H    0.170925   0.058027
    24  H    0.216054   0.057011
    25  H    0.135468   0.055138
 Sum of Mulliken charges =  -1.00000   1.00000

 Dipole moment (field-independent basis, Debye):
    X=              1.3126    Y=             -5.9868    Z=              0.9161  Tot=              6.1971
 Quadrupole moment (field-independent basis, Debye-Ang):
   XX=           -145.4865   YY=           -149.6018   ZZ=           -125.1013
   XY=              1.3214   XZ=             -0.2193   YZ=             -0.1889

 Summary of Natural Population Analysis:

                                       Natural Population
                Natural  -----------------------------------------------
    Atom  No    Charge         Core      Valence    Rydberg      Total
 -----------------------------------------------------------------------
      C    1   -0.34320      0.99962     2.33897    0.00462     3.34320
      C    2    0.36064      0.99972     1.61846    0.02117     2.63936
      O    3   -0.30395      0.99987     3.29760    0.00648     4.30395
      N    4   -0.34023      0.99965     2.82879    0.01180     3.84023
      C    5   -0.00392      0.99957     1.97796    0.02638     3.00392
      N    6   -0.43823      0.99971     2.92378    0.01474     3.93823
      S    7    1.08901      4.99938     1.81252    0.09910     6.91099
      O    8   -0.46244      0.99990     3.45661    0.00592     4.46244
      O    9   -0.46392      0.99991     3.45879    0.00522     4.46392
      C   10   -0.38979      0.99960     2.38061    0.00959     3.38979
      S   11    1.08683      4.99934     1.81601    0.09782     6.91317
      O   12   -0.45525      0.99990     3.44992    0.00543     4.45525
      O   13   -0.46657      0.99990     3.46005    0.00662     4.46657
      N   14   -0.34252      0.99974     2.82691    0.01587     3.84252
      N   15    0.15078      0.99971     2.33400    0.01552     3.34922
      N   16    0.07873      0.99981     2.40849    0.01297     3.42127
      H   17    0.11148      0.00000     0.38764    0.00087     0.38852
      H   18    0.12147      0.00000     0.37722    0.00131     0.37853
      H   19    0.10929      0.00000     0.38957    0.00114     0.39071
      H   20    0.20571      0.00000     0.29257    0.00172     0.29429
      H   21    0.12004      0.00000     0.37765    0.00231     0.37996
      H   22    0.20312      0.00000     0.29499    0.00189     0.29688
      H   23    0.12382      0.00000     0.37475    0.00143     0.37618
      H   24    0.13903      0.00000     0.35949    0.00148     0.36097
      H   25    0.11007      0.00000     0.38881    0.00113     0.38993
 =======================================================================
   * Total *   -0.00000     23.99534    45.63215    0.37252    70.00000

 Normal termination of Gaussian 16 at Thu Dec 10 23:14:59 2020.
