 Gaussian 16, Revision A.03,

 -----------------------------------------------------------
 # opt freq B3LYP/6-31G(d) empiricaldispersion=gd3bj scf=xqc
 -----------------------------------------------------------

 ------------------------------
 CID_149598255_JID_389_neutraal
 ------------------------------
 Symbolic Z-matrix:
 Charge =  0 Multiplicity = 1

 SCF Done:  E(RB3LYP) =  -440.045286114     A.U. after   13 cycles
 SCF Done:  E(RB3LYP) =  -440.049447100     A.U. after   11 cycles
 SCF Done:  E(RB3LYP) =  -440.050714059     A.U. after   11 cycles
 SCF Done:  E(RB3LYP) =  -440.050805056     A.U. after   10 cycles
 SCF Done:  E(RB3LYP) =  -440.050817870     A.U. after   10 cycles
 SCF Done:  E(RB3LYP) =  -440.050835199     A.U. after    8 cycles
 SCF Done:  E(RB3LYP) =  -440.050835722     A.U. after    7 cycles
 Optimization completed.
    -- Stationary point found.

 1\1\GINC-NODE314\FOpt\RB3LYP\6-31G(d)\C7H15N3\VSC10255\08-Dec-2020\0\\
 # opt freq B3LYP/6-31G(d) empiricaldispersion=gd3bj scf=xqc\\CID_14959
 8255_JID_389_neutraal\\0,1\C,1.1020562145,-0.0428007252,0.0085235884\C
 ,0.0739926136,-1.1685375841,-0.1508789527\C,0.7110289252,-2.4365251336
 ,-0.7361635294\N,1.6985688879,-2.9713189323,0.1966267723\C,1.097408402
 6,-3.4386985798,1.4545055325\C,0.3978540929,-2.2500565672,2.1022426597
 \N,0.6634363494,-1.9354361669,3.306529145\C,-0.609927273,-1.5394072542
 ,1.1881247385\N,-1.3021734611,-0.3910934676,1.7594823522\C,2.16175836,

 Normal termination of Gaussian 16 at Tue Dec  8 10:29:38 2020.

 --------------------------------------------------------------------
 #N Geom=AllCheck Guess=TCheck SCRF=Check GenChk RB3LYP/6-31G(d) Freq
 --------------------------------------------------------------------

 Structure from the checkpoint file:  "JID_389.chk"
 ------------------------------
 CID_149598255_JID_389_neutraal
 ------------------------------
 Charge =  0 Multiplicity = 1

 SCF Done:  E(RB3LYP) =  -440.050835722     A.U. after    1 cycles

  Exact polarizability:  95.948   0.188  97.560   0.061   4.628  77.029
 Approx polarizability: 124.546  -1.041 140.215  -2.661  11.056 119.983

                      1                      2                      3
                      A                      A                      A
 Frequencies --     92.6825               104.2104               195.8953
 Red. masses --      4.2324                 3.0281                 1.2708
 Frc consts  --      0.0214                 0.0194                 0.0287
 IR Inten    --      0.0352                 0.1325                 0.1137

                      4                      5                      6
                      A                      A                      A
 Frequencies --    220.5074               245.9239               260.8755
 Red. masses --      1.1049                 2.6766                 2.0918
 Frc consts  --      0.0317                 0.0954                 0.0839
 IR Inten    --      0.3063                 1.7175                 4.1473

                      7                      8                      9
                      A                      A                      A
 Frequencies --    290.7288               324.1338               349.5602
 Red. masses --      2.5386                 2.0445                 1.3906
 Frc consts  --      0.1264                 0.1266                 0.1001
 IR Inten    --      3.1768                33.0994                28.4731

                     10                     11                     12
                      A                      A                      A
 Frequencies --    370.3517               376.1124               424.9295
 Red. masses --      3.4591                 2.2318                 4.2267
 Frc consts  --      0.2795                 0.1860                 0.4497
 IR Inten    --     14.0616                 1.3001                 4.0421

                     13                     14                     15
                      A                      A                      A
 Frequencies --    462.7420               498.3276               599.3589
 Red. masses --      2.4088                 3.3008                 2.3328
 Frc consts  --      0.3039                 0.4829                 0.4937
 IR Inten    --      9.3398                 6.7676                11.2325

                     16                     17                     18
                      A                      A                      A
 Frequencies --    612.2526               693.0045               777.4033
 Red. masses --      3.8934                 2.2537                 2.3586
 Frc consts  --      0.8599                 0.6377                 0.8398
 IR Inten    --      7.4607                25.6928                13.8934

                     19                     20                     21
                      A                      A                      A
 Frequencies --    809.3992               837.4517               884.6327
 Red. masses --      1.6735                 2.4276                 1.8519
 Frc consts  --      0.6460                 1.0031                 0.8539
 IR Inten    --    105.5894                13.9114                34.5992

                     22                     23                     24
                      A                      A                      A
 Frequencies --    907.5843               948.1307               971.8443
 Red. masses --      1.9478                 1.7247                 2.1180
 Frc consts  --      0.9453                 0.9135                 1.1786
 IR Inten    --     83.4624                37.1308                13.9820

                     25                     26                     27
                      A                      A                      A
 Frequencies --    973.2391               999.7077              1038.9164
 Red. masses --      1.3183                 1.5962                 1.8018
 Frc consts  --      0.7357                 0.9399                 1.1458
 IR Inten    --     16.0818                 2.9729                17.5584

                     28                     29                     30
                      A                      A                      A
 Frequencies --   1078.5610              1100.8270              1114.1958
 Red. masses --      1.5158                 1.6849                 1.5876
 Frc consts  --      1.0390                 1.2030                 1.1612
 IR Inten    --     20.7381                 7.5627                 5.0310

                     31                     32                     33
                      A                      A                      A
 Frequencies --   1139.8296              1165.8218              1171.9063
 Red. masses --      2.1370                 2.1415                 1.6548
 Frc consts  --      1.6358                 1.7148                 1.3390
 IR Inten    --      4.0342                 2.3069                 7.2595

                     34                     35                     36
                      A                      A                      A
 Frequencies --   1187.4155              1238.9546              1285.1393
 Red. masses --      2.5524                 1.6688                 1.3520
 Frc consts  --      2.1203                 1.5093                 1.3156
 IR Inten    --     17.5072                 4.4459                 5.5581

                     37                     38                     39
                      A                      A                      A
 Frequencies --   1295.7444              1318.7327              1338.2137
 Red. masses --      1.3235                 1.4193                 1.4491
 Frc consts  --      1.3092                 1.4543                 1.5289
 IR Inten    --      5.6582                78.8915                 7.8865

                     40                     41                     42
                      A                      A                      A
 Frequencies --   1357.2896              1392.8080              1400.1056
 Red. masses --      1.3565                 1.3445                 1.3691
 Frc consts  --      1.4723                 1.5367                 1.5813
 IR Inten    --     32.3912                 4.3459                12.2148

                     43                     44                     45
                      A                      A                      A
 Frequencies --   1423.6041              1435.7057              1440.1011
 Red. masses --      1.3976                 1.4891                 1.3692
 Frc consts  --      1.6689                 1.8085                 1.6730
 IR Inten    --      5.6556                18.2875                 4.4930

                     46                     47                     48
                      A                      A                      A
 Frequencies --   1447.2764              1495.9491              1519.9655
 Red. masses --      1.3527                 1.2416                 1.0571
 Frc consts  --      1.6694                 1.6371                 1.4389
 IR Inten    --     12.0729                 2.4435                 1.8602

                     49                     50                     51
                      A                      A                      A
 Frequencies --   1523.2438              1528.9036              1530.6256
 Red. masses --      1.0926                 1.1301                 1.0696
 Frc consts  --      1.4937                 1.5564                 1.4765
 IR Inten    --      3.9294                 2.8155                 3.4424

                     52                     53                     54
                      A                      A                      A
 Frequencies --   1539.4063              1695.4839              1746.9608
 Red. masses --      1.0701                 1.0930                10.1764
 Frc consts  --      1.4941                 1.8512                18.2983
 IR Inten    --      3.0228                17.9874                47.8752

                     55                     56                     57
                      A                      A                      A
 Frequencies --   2869.4147              2915.7991              3017.0264
 Red. masses --      1.0791                 1.0735                 1.0828
 Frc consts  --      5.2348                 5.3771                 5.8071
 IR Inten    --     62.2495                97.4410                27.9990

                     58                     59                     60
                      A                      A                      A
 Frequencies --   3056.0578              3056.1626              3062.7565
 Red. masses --      1.0426                 1.0404                 1.0823
 Frc consts  --      5.7373                 5.7251                 5.9819
 IR Inten    --     38.9237                18.7123                26.8451

                     61                     62                     63
                      A                      A                      A
 Frequencies --   3081.7436              3115.2549              3133.3110
 Red. masses --      1.0876                 1.1013                 1.0932
 Frc consts  --      6.0859                 6.2974                 6.3233
 IR Inten    --     43.2152                32.0072                19.4961

                     64                     65                     66
                      A                      A                      A
 Frequencies --   3140.8610              3163.0449              3367.7839
 Red. masses --      1.1019                 1.1028                 1.0719
 Frc consts  --      6.4045                 6.5009                 7.1628
 IR Inten    --     22.1934                14.2198                15.8724

                     67                     68                     69
                      A                      A                      A
 Frequencies --   3476.4116              3501.4872              3564.2704
 Red. masses --      1.0486                 1.0746                 1.0933
 Frc consts  --      7.4667                 7.7627                 8.1830
 IR Inten    --      0.1140                 0.8459                 0.1633

 - Thermochemistry -
 -------------------
 Temperature   298.150 Kelvin.  Pressure   1.00000 Atm.
 Atom     1 has atomic number  6 and mass  12.00000

 Molecular mass:   141.12660 amu.
 Principal axes and moments of inertia in atomic units:
                           1         2         3
     Eigenvalues --  1027.339901408.909062007.15177
           X            0.99991   0.00144   0.01351
           Y           -0.00144   1.00000   0.00004
           Z           -0.01351  -0.00006   0.99991
 This molecule is an asymmetric top.
 Rotational symmetry number  1.
 Warning -- assumption of classical behavior for rotation
           may cause significant error
 Rotational temperatures (Kelvin)      0.08431     0.06148     0.04315
 Rotational constants (GHZ):           1.75671     1.28095     0.89916
 Zero-point vibrational energy     596362.7 (Joules/Mol)
                                  142.53411 (Kcal/Mol)
 Warning -- explicit consideration of  16 degrees of freedom as
           vibrations may cause significant error
 Vibrational temperatures:    133.35   149.94   281.85   317.26   353.83
          (Kelvin)            375.34   418.29   466.36   502.94   532.85
                              541.14   611.38   665.78   716.98   862.34
                              880.89   997.08  1118.51  1164.54  1204.91
                             1272.79  1305.81  1364.15  1398.27  1400.27
                             1438.36  1494.77  1551.81  1583.84  1603.08
                             1639.96  1677.36  1686.11  1708.43  1782.58
                             1849.03  1864.29  1897.36  1925.39  1952.84
                             2003.94  2014.44  2048.25  2065.66  2071.98
                             2082.31  2152.34  2186.89  2191.61  2199.75
                             2202.23  2214.86  2439.42  2513.49  4128.45
                             4195.18  4340.83  4396.99  4397.14  4406.62
                             4433.94  4482.16  4508.14  4519.00  4550.92
                             4845.49  5001.78  5037.86  5128.19

 Zero-point correction=                           0.227143 (Hartree/Particle)
 Thermal correction to Energy=                    0.237386
 Thermal correction to Enthalpy=                  0.238330
 Thermal correction to Gibbs Free Energy=         0.192543
 Sum of electronic and zero-point Energies=           -439.823693
 Sum of electronic and thermal Energies=              -439.813450
 Sum of electronic and thermal Enthalpies=            -439.812506
 Sum of electronic and thermal Free Energies=         -439.858293

                     E (Thermal)             CV                S
                      KCal/Mol        Cal/Mol-Kelvin    Cal/Mol-Kelvin
 Total                  148.962             40.468             96.367
 Electronic               0.000              0.000              0.000
 Translational            0.889              2.981             40.745
 Rotational               0.889              2.981             29.453
 Vibrational            147.184             34.507             26.169
 Vibration     1          0.602              1.954              3.603
 Vibration     2          0.605              1.946              3.374
 Vibration     3          0.636              1.846              2.171
 Vibration     4          0.647              1.810              1.955
 Vibration     5          0.660              1.770              1.760
 Vibration     6          0.669              1.744              1.656
 Vibration     7          0.687              1.691              1.470
 Vibration     8          0.709              1.627              1.289
 Vibration     9          0.727              1.576              1.168
 Vibration    10          0.742              1.533              1.078
 Vibration    11          0.747              1.521              1.055
 Vibration    12          0.787              1.416              0.875
 Vibration    13          0.820              1.333              0.758
 Vibration    14          0.854              1.254              0.662
 Vibration    15          0.957              1.033              0.451
 Vibration    16          0.971              1.006              0.429

 Optimization completed.
    -- Stationary point found.

 1\1\GINC-NODE314\Freq\RB3LYP\6-31G(d)\C7H15N3\VSC10255\08-Dec-2020\0\\
 #N Geom=AllCheck Guess=TCheck SCRF=Check GenChk RB3LYP/6-31G(d) Freq\\
 CID_149598255_JID_389_neutraal\\0,1\C,1.1020562145,-0.0428007252,0.008
 5235884\C,0.0739926136,-1.1685375841,-0.1508789527\C,0.7110289252,-2.4
 365251336,-0.7361635294\N,1.6985688879,-2.9713189323,0.1966267723\C,1.
 0974084026,-3.4386985798,1.4545055325\C,0.3978540929,-2.2500565672,2.1
 022426597\N,0.6634363494,-1.9354361669,3.306529145\C,-0.609927273,-1.5
 394072542,1.1881247385\N,-1.3021734611,-0.3910934676,1.7594823522\C,2.

 Normal termination of Gaussian 16 at Tue Dec  8 10:34:18 2020.

 ----------------------------------------------------------------------
 # B3LYP/6-311++G(d,p) empiricaldispersion=gd3bj scf=xqc pop=npa geom=c
 heck
 ----------------------------------------------------------------------

 --------------------------------------
 CID_149598255_JID_389_Energie_neutraal
 --------------------------------------
 Structure from the checkpoint file:  "JID_389.chk"
 Charge =  0 Multiplicity = 1

 SCF Done:  E(RB3LYP) =  -440.187892906     A.U. after   14 cycles
 Normal termination of Gaussian 16 at Tue Dec  8 10:37:10 2020.

 ----------------------------------------------------------------------
 # B3LYP/6-311++G(d,p) empiricaldispersion=gd3bj scf=xqc pop=npa geom=c
 heck
 ----------------------------------------------------------------------

 ------------------------------------
 CID_149598255_JID_389_Energie_kation
 ------------------------------------
 Structure from the checkpoint file:  "JID_389.chk"
 Charge =  1 Multiplicity = 2

 SCF Done:  E(UB3LYP) =  -439.877396652     A.U. after   23 cycles
 Normal termination of Gaussian 16 at Tue Dec  8 10:42:00 2020.
 Gaussian 16:  ES64L-G16RevA.03 25-Dec-2016

 -----------------------------------
 CID_149598255_JID_389_Energie_anion
 -----------------------------------
 Structure from the checkpoint file:  "JID_389.chk"
 Charge = -1 Multiplicity = 2

                         Standard orientation:
 ---------------------------------------------------------------------
 Center     Atomic      Atomic             Coordinates (Angstroms)
 Number     Number       Type             X           Y           Z
 ---------------------------------------------------------------------
      1          6           0        1.665797   -0.964013    1.292192
      2          6           0        1.336792   -0.904612   -0.203748
      3          6           0        0.167083   -1.831732   -0.562073
      4          7           0       -1.050514   -1.372369    0.099577
      5          6           0       -1.496407   -0.056160   -0.380912
      6          6           0       -0.377184    0.940276   -0.104751
      7          7           0       -0.623362    2.009950    0.539470
      8          6           0        0.986503    0.527960   -0.676248
      9          7           0        2.092569    1.445625   -0.433785
     10          6           0       -2.816917    0.321942    0.275746
     11          1           0        0.818104   -0.625478    1.894808
     12          1           0        2.543645   -0.354730    1.532287
     13          1           0        1.894516   -1.993683    1.588990
     14          1           0        2.218666   -1.220442   -0.773989
     15          1           0        0.063940   -1.865743   -1.665645
     16          1           0        0.383095   -2.850814   -0.222212
     17          1           0       -1.800726   -2.045888   -0.038506
     18          1           0       -1.633478   -0.066034   -1.484987
     19          1           0        0.240548    2.561687    0.628330
     20          1           0        0.855815    0.473481   -1.767537
     21          1           0        1.909157    2.352886   -0.857770
     22          1           0        2.219591    1.603314    0.564155
     23          1           0       -3.144448    1.309618   -0.055675
     24          1           0       -3.591356   -0.410777    0.017551
     25          1           0       -2.701919    0.348204    1.362121
 ---------------------------------------------------------------------

 SCF Done:  E(UB3LYP) =  -440.175634089     A.U. after   30 cycles

 The electronic state is 2-A.
 Alpha  occ. eigenvalues --  -14.19080 -14.18706 -14.17697 -10.09696 -10.09393
 Alpha  occ. eigenvalues --  -10.08965 -10.07923 -10.06529 -10.04758 -10.04535
 Alpha  occ. eigenvalues --   -0.82306  -0.78997  -0.76547  -0.67685  -0.63591
 Alpha  occ. eigenvalues --   -0.58687  -0.55459  -0.50748  -0.46279  -0.41969
 Alpha  occ. eigenvalues --   -0.40554  -0.38733  -0.36319  -0.34663  -0.34345
 Alpha  occ. eigenvalues --   -0.32065  -0.31337  -0.30064  -0.27834  -0.26176
 Alpha  occ. eigenvalues --   -0.25472  -0.24862  -0.23442  -0.22510  -0.22140
 Alpha  occ. eigenvalues --   -0.18950  -0.16093  -0.13799  -0.11865   0.04674
 Alpha virt. eigenvalues --    0.07109   0.07928   0.08452   0.09983   0.10428
 Alpha virt. eigenvalues --    0.10755   0.10864   0.11324   0.11809   0.12944
 Alpha virt. eigenvalues --    0.13529   0.14002   0.14419   0.15324   0.15525

  Beta  occ. eigenvalues --  -14.19039 -14.18674 -14.17631 -10.09651 -10.09384
  Beta  occ. eigenvalues --  -10.08955 -10.07892 -10.06519 -10.04733 -10.04518
  Beta  occ. eigenvalues --   -0.82228  -0.78935  -0.76450  -0.67632  -0.63526
  Beta  occ. eigenvalues --   -0.58607  -0.55390  -0.50650  -0.46216  -0.41875
  Beta  occ. eigenvalues --   -0.40480  -0.38666  -0.36244  -0.34597  -0.34286
  Beta  occ. eigenvalues --   -0.32007  -0.31291  -0.30009  -0.27799  -0.26137
  Beta  occ. eigenvalues --   -0.25418  -0.24801  -0.23395  -0.22430  -0.22093
  Beta  occ. eigenvalues --   -0.18694  -0.16029  -0.13734  -0.11774
  Beta virt. eigenvalues --    0.07200   0.08157   0.08619   0.08980   0.10580
  Beta virt. eigenvalues --    0.10970   0.11138   0.11555   0.11821   0.12058
  Beta virt. eigenvalues --    0.13370   0.13902   0.14548   0.14802   0.15422

 Mulliken charges and spin densities:
               1          2
     1  C    0.246781  -0.947708
     2  C   -0.983668   1.475161
     3  C    1.293524  -1.768608
     4  N   -0.364289   0.313811
     5  C    0.845279  -0.920241
     6  C   -1.871531   1.861993
     7  N   -0.269567   0.121102
     8  C    2.276330  -3.002598
     9  N   -0.518773   0.181380
    10  C    0.267618  -0.957189
    11  H    0.160682   0.035607
    12  H   -0.198911   0.298111
    13  H   -0.035427   0.181134
    14  H   -0.238316   0.469381
    15  H   -0.302582   0.436862
    16  H   -0.525128   0.678383
    17  H    0.051473   0.198156
    18  H   -0.470273   0.637993
    19  H   -0.009171   0.206441
    20  H   -0.178865   0.390305
    21  H   -0.200535   0.454588
    22  H    0.128610   0.109396
    23  H    0.061350   0.093737
    24  H   -0.282727   0.408914
    25  H    0.118115   0.043889
 Sum of Mulliken charges =  -1.00000   1.00000

 Dipole moment (field-independent basis, Debye):
    X=             -0.1264    Y=              0.5313    Z=              2.9163  Tot=              2.9670
 Quadrupole moment (field-independent basis, Debye-Ang):
   XX=           -107.6036   YY=           -106.6507   ZZ=            -95.7057
   XY=             -2.2507   XZ=              0.4632   YZ=             -1.7149

 Summary of Natural Population Analysis:

                                       Natural Population
                Natural  -----------------------------------------------
    Atom  No    Charge         Core      Valence    Rydberg      Total
 -----------------------------------------------------------------------
      C    1   -0.29040      0.99964     2.28517    0.00559     3.29040
      C    2   -0.11216      0.99958     2.10019    0.01239     3.11216
      C    3   -0.08408      0.99960     2.07184    0.01264     3.08408
      N    4   -0.34060      0.99972     2.82858    0.01230     3.84060
      C    5   -0.03379      0.99954     2.02096    0.01328     3.03379
      C    6    0.15935      0.99959     1.82236    0.01870     2.84065
      N    7   -0.32067      0.99970     2.81194    0.00902     3.82067
      C    8   -0.04341      0.99950     2.02930    0.01461     3.04341
      N    9   -0.42001      0.99977     2.90804    0.01220     3.92001
      C   10   -0.28584      0.99965     2.27837    0.00782     3.28584
      H   11    0.10564      0.00000     0.39311    0.00124     0.39436
      H   12    0.09687      0.00000     0.40209    0.00103     0.40313
      H   13    0.09940      0.00000     0.39959    0.00100     0.40060
      H   14    0.10280      0.00000     0.39526    0.00194     0.39720
      H   15    0.08327      0.00000     0.41382    0.00291     0.41673
      H   16    0.09593      0.00000     0.40284    0.00123     0.40407
      H   17    0.17806      0.00000     0.31853    0.00341     0.32194
      H   18    0.08741      0.00000     0.40917    0.00342     0.41259
      H   19    0.15772      0.00000     0.33968    0.00260     0.34228
      H   20    0.10663      0.00000     0.39036    0.00301     0.39337
      H   21    0.17881      0.00000     0.31873    0.00246     0.32119
      H   22    0.17355      0.00000     0.32425    0.00220     0.32645
      H   23    0.10656      0.00000     0.39259    0.00086     0.39344
      H   24    0.09505      0.00000     0.40397    0.00098     0.40495
      H   25    0.10390      0.00000     0.39504    0.00107     0.39610
 =======================================================================
   * Total *   -0.00000      9.99631    28.85580    0.14789    39.00000

 Normal termination of Gaussian 16 at Tue Dec  8 10:50:38 2020.
