 Gaussian 16, Revision A.03,

 -----------------------------------------------------------
 # opt freq B3LYP/6-31G(d) empiricaldispersion=gd3bj scf=xqc
 -----------------------------------------------------------

 ------------------------------
 CID_90239085_JID_3422_neutraal
 ------------------------------
 Symbolic Z-matrix:
 Charge =  0 Multiplicity = 1

 SCF Done:  E(RB3LYP) =  -648.518432398     A.U. after   15 cycles
 SCF Done:  E(RB3LYP) =  -648.522396005     A.U. after   14 cycles
 SCF Done:  E(RB3LYP) =  -648.517965289     A.U. after   14 cycles
 SCF Done:  E(RB3LYP) =  -648.521720346     A.U. after   14 cycles
 SCF Done:  E(RB3LYP) =  -648.523572949     A.U. after   11 cycles
 SCF Done:  E(RB3LYP) =  -648.524317285     A.U. after   14 cycles
 SCF Done:  E(RB3LYP) =  -648.524425258     A.U. after   12 cycles
 SCF Done:  E(RB3LYP) =  -648.524524522     A.U. after   13 cycles
 SCF Done:  E(RB3LYP) =  -648.524922808     A.U. after   12 cycles
 SCF Done:  E(RB3LYP) =  -648.525043526     A.U. after   12 cycles
 SCF Done:  E(RB3LYP) =  -648.528144694     A.U. after   12 cycles
 SCF Done:  E(RB3LYP) =  -648.528214997     A.U. after   12 cycles
 SCF Done:  E(RB3LYP) =  -648.528240662     A.U. after    9 cycles
 SCF Done:  E(RB3LYP) =  -648.528265810     A.U. after   10 cycles
 SCF Done:  E(RB3LYP) =  -648.528268371     A.U. after    9 cycles
 SCF Done:  E(RB3LYP) =  -648.528268776     A.U. after    8 cycles
 Optimization completed.
    -- Stationary point found.
 Normal termination of Gaussian 16 at Wed Dec  9 23:30:17 2020.

 --------------------------------------------------------------------
 #N Geom=AllCheck Guess=TCheck SCRF=Check GenChk RB3LYP/6-31G(d) Freq
 --------------------------------------------------------------------

 Structure from the checkpoint file:  "JID_3422.chk"
 ------------------------------
 CID_90239085_JID_3422_neutraal
 ------------------------------
 Charge =  0 Multiplicity = 1

 SCF Done:  E(RB3LYP) =  -648.528268776     A.U. after    1 cycles

  Exact polarizability: 109.799   0.566 104.730  -3.558   3.704  92.116
 Approx polarizability: 139.199   3.230 176.220  -2.305  10.742 138.233

                      1                      2                      3
                      A                      A                      A
 Frequencies --     44.0512                45.7666                52.3612
 Red. masses --      3.5925                 6.5140                 3.4762
 Frc consts  --      0.0041                 0.0080                 0.0056
 IR Inten    --      1.2714                 2.9361                 1.7154

                      4                      5                      6
                      A                      A                      A
 Frequencies --     61.4650                79.9562                92.5179
 Red. masses --      3.9755                 3.0530                 6.0205
 Frc consts  --      0.0088                 0.0115                 0.0304
 IR Inten    --      2.3398                 0.5855                 7.1958

                      7                      8                      9
                      A                      A                      A
 Frequencies --    129.3720               182.5835               207.7591
 Red. masses --      3.5695                 7.2756                 2.1093
 Frc consts  --      0.0352                 0.1429                 0.0536
 IR Inten    --      0.0384                10.2912                 5.3750

                     10                     11                     12
                      A                      A                      A
 Frequencies --    244.9637               256.7066               289.1460
 Red. masses --      1.1491                 1.4310                 3.9741
 Frc consts  --      0.0406                 0.0556                 0.1958
 IR Inten    --      2.9011                 5.7191                 1.2216

                     13                     14                     15
                      A                      A                      A
 Frequencies --    338.7944               348.9178               376.3717
 Red. masses --      3.1205                 2.8974                 6.4529
 Frc consts  --      0.2110                 0.2078                 0.5386
 IR Inten    --      1.0353                14.6379                 3.3987

                     16                     17                     18
                      A                      A                      A
 Frequencies --    429.5125               439.4260               496.4332
 Red. masses --      2.1660                 2.2650                 3.7455
 Frc consts  --      0.2354                 0.2577                 0.5439
 IR Inten    --      2.2146                 1.3537                25.6960

                     19                     20                     21
                      A                      A                      A
 Frequencies --    528.3252               549.1116               573.8469
 Red. masses --      1.8783                 1.9664                 3.3249
 Frc consts  --      0.3089                 0.3493                 0.6451
 IR Inten    --    131.6864               200.5500                59.6613

                     22                     23                     24
                      A                      A                      A
 Frequencies --    614.4523               622.7078               690.8103
 Red. masses --      1.3630                 3.1402                 3.2709
 Frc consts  --      0.3032                 0.7174                 0.9197
 IR Inten    --     30.9649                34.1524                 7.9775

                     25                     26                     27
                      A                      A                      A
 Frequencies --    725.7403               789.8208               805.3760
 Red. masses --      4.2094                 1.7843                 1.9965
 Frc consts  --      1.3063                 0.6558                 0.7630
 IR Inten    --      3.0129                 2.6855                12.7307

                     28                     29                     30
                      A                      A                      A
 Frequencies --    809.8780               885.9945               904.2256
 Red. masses --      1.1575                 2.6394                 4.3563
 Frc consts  --      0.4473                 1.2207                 2.0986
 IR Inten    --      5.6382                15.9828                 0.8523

                     31                     32                     33
                      A                      A                      A
 Frequencies --    953.9080               962.7182              1019.4477
 Red. masses --      2.2099                 2.2782                 2.6480
 Frc consts  --      1.1848                 1.2441                 1.6214
 IR Inten    --      4.1566                13.0504                 2.8456

                     34                     35                     36
                      A                      A                      A
 Frequencies --   1087.3969              1104.1297              1115.8338
 Red. masses --      2.0546                 2.0042                 1.7915
 Frc consts  --      1.4314                 1.4396                 1.3142
 IR Inten    --     43.5622                14.2523                11.9406

                     37                     38                     39
                      A                      A                      A
 Frequencies --   1130.4833              1158.1686              1195.5149
 Red. masses --      1.7488                 1.8533                 1.3713
 Frc consts  --      1.3168                 1.4647                 1.1547
 IR Inten    --     12.4580                64.0778                10.8748

                     40                     41                     42
                      A                      A                      A
 Frequencies --   1230.5074              1255.9468              1287.4638
 Red. masses --      2.5112                 2.6715                 1.4201
 Frc consts  --      2.2403                 2.4829                 1.3869
 IR Inten    --     76.1639                10.1513                 4.5934

                     43                     44                     45
                      A                      A                      A
 Frequencies --   1329.4099              1353.7653              1370.7451
 Red. masses --      1.3941                 1.3213                 3.2923
 Frc consts  --      1.4516                 1.4267                 3.6447
 IR Inten    --      8.1567                20.5023               129.0556

                     46                     47                     48
                      A                      A                      A
 Frequencies --   1398.2100              1416.3008              1438.0600
 Red. masses --      1.2714                 1.2959                 1.2671
 Frc consts  --      1.4645                 1.5316                 1.5439
 IR Inten    --     14.1829                15.8410                 8.9848

                     49                     50                     51
                      A                      A                      A
 Frequencies --   1450.3432              1476.0639              1497.8589
 Red. masses --      1.2362                 1.1161                 1.9583
 Frc consts  --      1.5320                 1.4327                 2.5887
 IR Inten    --     10.7824                15.4773                46.2621

                     52                     53                     54
                      A                      A                      A
 Frequencies --   1508.6150              1521.5416              1527.1899
 Red. masses --      1.1876                 1.0429                 1.0755
 Frc consts  --      1.5925                 1.4226                 1.4779
 IR Inten    --     12.8420                 4.6030                 1.6657

                     55                     56                     57
                      A                      A                      A
 Frequencies --   1531.7120              1533.2859              1548.8908
 Red. masses --      1.0614                 1.0647                 1.2203
 Frc consts  --      1.4672                 1.4747                 1.7249
 IR Inten    --      2.3529                 9.5101                12.7993

                     58                     59                     60
                      A                      A                      A
 Frequencies --   1656.4183              1709.6253              1800.3337
 Red. masses --      1.2905                 6.3951                 9.1295
 Frc consts  --      2.0862                11.0129                17.4343
 IR Inten    --    121.3729               263.7668               165.6002

                     61                     62                     63
                      A                      A                      A
 Frequencies --   1815.8165              3053.6620              3057.2161
 Red. masses --     10.8663                 1.0358                 1.0356
 Frc consts  --     21.1094                 5.6909                 5.7031
 IR Inten    --    279.0849                13.9792                20.0348

                     64                     65                     66
                      A                      A                      A
 Frequencies --   3075.7732              3088.0125              3090.1598
 Red. masses --      1.0651                 1.0717                 1.0627
 Frc consts  --      5.9368                 6.0213                 5.9791
 IR Inten    --     22.2951                27.1497                 0.8824

                     67                     68                     69
                      A                      A                      A
 Frequencies --   3119.8747              3120.5616              3133.9894
 Red. masses --      1.1024                 1.1021                 1.1019
 Frc consts  --      6.3219                 6.3234                 6.3763
 IR Inten    --      3.1749                32.9899                16.9295

                     70                     71                     72
                      A                      A                      A
 Frequencies --   3136.6631              3149.7085              3174.7435
 Red. masses --      1.0995                 1.1046                 1.1015
 Frc consts  --      6.3734                 6.4566                 6.5409
 IR Inten    --     17.3511                21.9307                 1.0846

                     73                     74                     75
                      A                      A                      A
 Frequencies --   3180.3485              3542.4257              3672.4457
 Red. masses --      1.0955                 1.0474                 1.1026
 Frc consts  --      6.5287                 7.7442                 8.7616
 IR Inten    --      3.5865                59.8397                57.3591

 - Thermochemistry -
 -------------------
 Temperature   298.150 Kelvin.  Pressure   1.00000 Atm.
 Atom     1 has atomic number  6 and mass  12.00000

 Molecular mass:   186.10044 amu.
 Principal axes and moments of inertia in atomic units:
                           1         2         3
     Eigenvalues --  1636.198003218.091823426.93271
           X            0.99984   0.00840  -0.01555
           Y           -0.00913   0.99883  -0.04749
           Z            0.01514   0.04762   0.99875
 This molecule is an asymmetric top.
 Rotational symmetry number  1.
 Warning -- assumption of classical behavior for rotation
           may cause significant error
 Rotational temperatures (Kelvin)      0.05294     0.02691     0.02527
 Rotational constants (GHZ):           1.10301     0.56081     0.52663
 Zero-point vibrational energy     595726.4 (Joules/Mol)
                                  142.38204 (Kcal/Mol)
 Warning -- explicit consideration of  22 degrees of freedom as
           vibrations may cause significant error
 Vibrational temperatures:     63.38    65.85    75.34    88.43   115.04
          (Kelvin)            133.11   186.14   262.70   298.92   352.45
                              369.34   416.02   487.45   502.01   541.51
                              617.97   632.24   714.26   760.14   790.05
                              825.64   884.06   895.94   993.92  1044.18
                             1136.38  1158.76  1165.23  1274.75  1300.98
                             1372.46  1385.14  1466.76  1564.52  1588.60
                             1605.44  1626.51  1666.35  1720.08  1770.43
                             1807.03  1852.37  1912.72  1947.77  1972.20
                             2011.71  2037.74  2069.05  2086.72  2123.73
                             2155.08  2170.56  2189.16  2197.29  2203.79
                             2206.06  2228.51  2383.22  2459.77  2590.28
                             2612.56  4393.54  4398.65  4425.35  4442.96
                             4446.05  4488.80  4489.79  4509.11  4512.96
                             4531.73  4567.75  4575.81  5096.76  5283.83

 Zero-point correction=                           0.226900 (Hartree/Particle)
 Thermal correction to Energy=                    0.241484
 Thermal correction to Enthalpy=                  0.242429
 Thermal correction to Gibbs Free Energy=         0.184214
 Sum of electronic and zero-point Energies=           -648.301369
 Sum of electronic and thermal Energies=              -648.286784
 Sum of electronic and thermal Enthalpies=            -648.285840
 Sum of electronic and thermal Free Energies=         -648.344054

                     E (Thermal)             CV                S
                      KCal/Mol        Cal/Mol-Kelvin    Cal/Mol-Kelvin
 Total                  151.534             52.056            122.522
 Electronic               0.000              0.000              0.000
 Translational            0.889              2.981             41.569
 Rotational               0.889              2.981             31.268
 Vibrational            149.756             46.095             49.685
 Vibration     1          0.595              1.980              5.068
 Vibration     2          0.595              1.979              4.992
 Vibration     3          0.596              1.977              4.726
 Vibration     4          0.597              1.973              4.410
 Vibration     5          0.600              1.963              3.892
 Vibration     6          0.602              1.955              3.606
 Vibration     7          0.612              1.924              2.955
 Vibration     8          0.630              1.863              2.302
 Vibration     9          0.641              1.829              2.063
 Vibration    10          0.660              1.771              1.767
 Vibration    11          0.666              1.751              1.684
 Vibration    12          0.686              1.694              1.479
 Vibration    13          0.719              1.598              1.218
 Vibration    14          0.726              1.577              1.171
 Vibration    15          0.747              1.520              1.054
 Vibration    16          0.791              1.406              0.860
 Vibration    17          0.799              1.384              0.828
 Vibration    18          0.852              1.258              0.667
 Vibration    19          0.883              1.187              0.591
 Vibration    20          0.904              1.142              0.546
 Vibration    21          0.930              1.088              0.497
 Vibration    22          0.974              1.001              0.425

                           ! Non-Optimized Parameters !
 Normal termination of Gaussian 16 at Wed Dec  9 23:36:55 2020.

 ----------------------------------------------------------------------
 # B3LYP/6-311++G(d,p) empiricaldispersion=gd3bj scf=xqc pop=npa geom=c
 heck
 ----------------------------------------------------------------------

 --------------------------------------
 CID_90239085_JID_3422_Energie_neutraal
 --------------------------------------
 Structure from the checkpoint file:  "JID_3422.chk"
 Charge =  0 Multiplicity = 1

 SCF Done:  E(RB3LYP) =  -648.727872460     A.U. after   15 cycles
 Normal termination of Gaussian 16 at Wed Dec  9 23:40:23 2020.

 ----------------------------------------------------------------------
 # B3LYP/6-311++G(d,p) empiricaldispersion=gd3bj scf=xqc pop=npa geom=c
 heck
 ----------------------------------------------------------------------

 ------------------------------------
 CID_90239085_JID_3422_Energie_kation
 ------------------------------------
 Structure from the checkpoint file:  "JID_3422.chk"
 Charge =  1 Multiplicity = 2

 SCF Done:  E(UB3LYP) =  -648.395886582     A.U. after   28 cycles
 Normal termination of Gaussian 16 at Wed Dec  9 23:48:24 2020.
 Gaussian 16:  ES64L-G16RevA.03 25-Dec-2016

 ----------------------------------------------------------------------
 # B3LYP/6-311++G(d,p) empiricaldispersion=gd3bj scf=xqc pop=npa geom=c
 heck
 ----------------------------------------------------------------------

 -----------------------------------
 CID_90239085_JID_3422_Energie_anion
 -----------------------------------
 Structure from the checkpoint file:  "JID_3422.chk"
 Charge = -1 Multiplicity = 2

                         Standard orientation:
 ---------------------------------------------------------------------
 Center     Atomic      Atomic             Coordinates (Angstroms)
 Number     Number       Type             X           Y           Z
 ---------------------------------------------------------------------
      1          6           0        3.584467   -0.954387   -0.049271
      2          6           0        2.380047   -0.497922   -0.871483
      3          7           0        1.362623    0.155854   -0.039795
      4          6           0        1.414029    1.622184    0.087425
      5          6           0        0.569607    2.324671   -0.976731
      6          6           0        0.379322   -0.612298    0.468637
      7          8           0        0.300054   -1.838132    0.301374
      8          6           0       -0.733549    0.037919    1.310148
      9          8           0       -0.502574    0.802485    2.223869
     10          6           0       -2.131684   -0.449956    0.968209
     11          6           0       -2.440919   -0.240300   -0.521139
     12          8           0       -2.934684    0.800166   -0.931482
     13          7           0       -2.114873   -1.294849   -1.322780
     14          1           0        4.051941   -0.111654    0.471819
     15          1           0        4.336956   -1.414781   -0.698885
     16          1           0        3.271012   -1.691891    0.695070
     17          1           0        2.679194    0.216576   -1.645146
     18          1           0        1.910281   -1.354600   -1.359215
     19          1           0        1.091041    1.897570    1.089754
     20          1           0        2.467054    1.905876   -0.003745
     21          1           0       -0.491612    2.076010   -0.869823
     22          1           0        0.674565    3.411151   -0.884890
     23          1           0        0.885828    2.036795   -1.985778
     24          1           0       -2.194700   -1.511729    1.227792
     25          1           0       -2.844026    0.125385    1.559533
     26          1           0       -1.444330   -1.975732   -0.983050
     27          1           0       -2.157742   -1.131626   -2.320267
 ---------------------------------------------------------------------

 SCF Done:  E(UB3LYP) =  -648.738296118     A.U. after   31 cycles

 The electronic state is 2-A.
 Alpha  occ. eigenvalues --  -18.95767 -18.93511 -18.92856 -14.20200 -14.20154
 Alpha  occ. eigenvalues --  -10.13914 -10.10401 -10.08539 -10.08029 -10.06609
 Alpha  occ. eigenvalues --  -10.05145 -10.04522 -10.03187  -0.90781  -0.89289
 Alpha  occ. eigenvalues --   -0.86641  -0.80115  -0.77677  -0.65369  -0.62311
 Alpha  occ. eigenvalues --   -0.61341  -0.53215  -0.52063  -0.46905  -0.44657
 Alpha  occ. eigenvalues --   -0.40912  -0.40069  -0.36528  -0.34282  -0.34063
 Alpha  occ. eigenvalues --   -0.33125  -0.31667  -0.30560  -0.29041  -0.28621
 Alpha  occ. eigenvalues --   -0.28114  -0.27906  -0.26303  -0.25956  -0.25095
 Alpha  occ. eigenvalues --   -0.23819  -0.23601  -0.23462  -0.23158  -0.20278
 Alpha  occ. eigenvalues --   -0.15187  -0.14312  -0.12545  -0.11499  -0.07518
 Alpha  occ. eigenvalues --    0.04944
 Alpha virt. eigenvalues --    0.07133   0.08815   0.09450   0.10201   0.11227
 Alpha virt. eigenvalues --    0.11684   0.12351   0.12629   0.13372   0.14373
 Alpha virt. eigenvalues --    0.14747   0.14839   0.15166   0.15902   0.16393

  Beta  occ. eigenvalues --  -18.95693 -18.93272 -18.92255 -14.20153 -14.20124
  Beta  occ. eigenvalues --  -10.13833 -10.10217 -10.08542 -10.08029 -10.06143
  Beta  occ. eigenvalues --  -10.05112 -10.04517 -10.03228  -0.90639  -0.88756
  Beta  occ. eigenvalues --   -0.85631  -0.79886  -0.77629  -0.65323  -0.62175
  Beta  occ. eigenvalues --   -0.61000  -0.52946  -0.51993  -0.46381  -0.44183
  Beta  occ. eigenvalues --   -0.40835  -0.39922  -0.36332  -0.34061  -0.33661
  Beta  occ. eigenvalues --   -0.32948  -0.31411  -0.30222  -0.28687  -0.28498
  Beta  occ. eigenvalues --   -0.27836  -0.27628  -0.26264  -0.25748  -0.24639
  Beta  occ. eigenvalues --   -0.23538  -0.23400  -0.23211  -0.22331  -0.17859
  Beta  occ. eigenvalues --   -0.14973  -0.13751  -0.12348  -0.10771  -0.06990
  Beta virt. eigenvalues --    0.07363   0.08804   0.09378   0.10209   0.11101
  Beta virt. eigenvalues --    0.11287   0.12108   0.12617   0.12791   0.13486
  Beta virt. eigenvalues --    0.14516   0.14699   0.15028   0.15427   0.16131

 Mulliken charges and spin densities:
               1          2
     1  C    0.221018  -0.646558
     2  C   -0.380420   0.261161
     3  N    0.305781   0.002840
     4  C   -0.233835  -0.079522
     5  C   -0.466972   0.016084
     6  C   -0.653292   0.178562
     7  O   -0.389467   0.083878
     8  C    0.430713   0.249037
     9  O   -0.389797   0.210389
    10  C   -0.275676  -0.202824
    11  C   -0.066727   0.134815
    12  O   -0.371323   0.028722
    13  N   -0.270270   0.007701
    14  H    0.041273   0.074630
    15  H   -0.225196   0.344584
    16  H    0.071938   0.104856
    17  H    0.001874   0.113911
    18  H    0.197381  -0.029755
    19  H    0.199850   0.001257
    20  H    0.087000   0.020337
    21  H    0.197309   0.001328
    22  H    0.104214   0.000196
    23  H    0.111464  -0.003819
    24  H    0.059140   0.130946
    25  H    0.182199  -0.004134
    26  H    0.265645  -0.000005
    27  H    0.246179   0.001384
 Sum of Mulliken charges =  -1.00000   1.00000

 Dipole moment (field-independent basis, Debye):
    X=              2.0128    Y=              0.3304    Z=             -3.6846  Tot=              4.2115
 Quadrupole moment (field-independent basis, Debye-Ang):
   XX=           -119.5196   YY=            -98.2952   ZZ=            -97.3129
   XY=             11.8968   XZ=              0.0487   YZ=              0.6057

 Summary of Natural Population Analysis:

                                       Natural Population
                Natural  -----------------------------------------------
    Atom  No    Charge         Core      Valence    Rydberg      Total
 -----------------------------------------------------------------------
      C    1   -0.29034      0.99966     2.28533    0.00535     3.29034
      C    2   -0.08871      0.99963     2.07688    0.01219     3.08871
      N    3   -0.24485      0.99962     2.73313    0.01209     3.74485
      C    4   -0.08840      0.99962     2.07876    0.01002     3.08840
      C    5   -0.29201      0.99966     2.28853    0.00382     3.29201
      C    6    0.33613      0.99958     1.63913    0.02515     2.66387
      O    7   -0.33832      0.99988     3.33312    0.00533     4.33832
      C    8    0.31068      0.99965     1.66717    0.02249     2.68932
      O    9   -0.24007      0.99987     3.23354    0.00666     4.24007
      C   10   -0.27767      0.99956     2.26717    0.01094     3.27767
      C   11    0.34924      0.99972     1.62631    0.02474     2.65076
      O   12   -0.32683      0.99987     3.32005    0.00691     4.32683
      N   13   -0.41251      0.99969     2.90570    0.00712     3.91251
      H   14    0.09363      0.00000     0.40542    0.00095     0.40637
      H   15    0.09333      0.00000     0.40501    0.00167     0.40667
      H   16    0.10593      0.00000     0.39305    0.00101     0.39407
      H   17    0.08635      0.00000     0.41262    0.00103     0.41365
      H   18    0.10566      0.00000     0.39289    0.00145     0.39434
      H   19    0.11919      0.00000     0.37966    0.00115     0.38081
      H   20    0.08452      0.00000     0.41433    0.00115     0.41548
      H   21    0.11498      0.00000     0.38405    0.00097     0.38502
      H   22    0.09138      0.00000     0.40783    0.00080     0.40862
      H   23    0.08999      0.00000     0.40910    0.00091     0.41001
      H   24    0.11545      0.00000     0.38250    0.00205     0.38455
      H   25    0.11089      0.00000     0.38723    0.00187     0.38911
      H   26    0.20857      0.00000     0.28926    0.00216     0.29143
      H   27    0.18379      0.00000     0.31387    0.00235     0.31621
 =======================================================================
   * Total *    0.00000     12.99602    36.83165    0.17233    50.00000

 Normal termination of Gaussian 16 at Wed Dec  9 23:57:10 2020.
