 Gaussian 16, Revision A.03,

 -----------------------------------------------------------
 # opt freq B3LYP/6-31G(d) empiricaldispersion=gd3bj scf=xqc
 -----------------------------------------------------------

 ------------------------------
 CID_80283682_JID_4949_neutraal
 ------------------------------
 Symbolic Z-matrix:
 Charge =  0 Multiplicity = 1

 SCF Done:  E(RB3LYP) =  -644.422389898     A.U. after   14 cycles
 SCF Done:  E(RB3LYP) =  -644.425540131     A.U. after   12 cycles
 SCF Done:  E(RB3LYP) =  -644.426768162     A.U. after   12 cycles
 SCF Done:  E(RB3LYP) =  -644.427062528     A.U. after   12 cycles
 SCF Done:  E(RB3LYP) =  -644.427226742     A.U. after   11 cycles
 SCF Done:  E(RB3LYP) =  -644.427368305     A.U. after   12 cycles
 SCF Done:  E(RB3LYP) =  -644.427449527     A.U. after   12 cycles
 SCF Done:  E(RB3LYP) =  -644.427563464     A.U. after   11 cycles
 SCF Done:  E(RB3LYP) =  -644.427677144     A.U. after   12 cycles
 SCF Done:  E(RB3LYP) =  -644.427700915     A.U. after   10 cycles
 SCF Done:  E(RB3LYP) =  -644.427765557     A.U. after    9 cycles
 SCF Done:  E(RB3LYP) =  -644.427767347     A.U. after    9 cycles
 SCF Done:  E(RB3LYP) =  -644.427767601     A.U. after    8 cycles
 SCF Done:  E(RB3LYP) =  -644.427767664     A.U. after    7 cycles
 SCF Done:  E(RB3LYP) =  -644.427767654     A.U. after    7 cycles
 SCF Done:  E(RB3LYP) =  -644.427767689     A.U. after    7 cycles
 Optimization completed.
    -- Stationary point found.
 Normal termination of Gaussian 16 at Thu Dec 10 11:07:07 2020.

 --------------------------------------------------------------------
 #N Geom=AllCheck Guess=TCheck SCRF=Check GenChk RB3LYP/6-31G(d) Freq
 --------------------------------------------------------------------

 Structure from the checkpoint file:  "JID_4949.chk"
 ------------------------------
 CID_80283682_JID_4949_neutraal
 ------------------------------
 Charge =  0 Multiplicity = 1

 SCF Done:  E(RB3LYP) =  -644.427767689     A.U. after    1 cycles

  Exact polarizability: 143.926  -4.101 116.402 -12.195  -7.134  80.896
 Approx polarizability: 200.521 -18.139 187.338 -20.791 -18.588 131.589

                      1                      2                      3
                      A                      A                      A
 Frequencies --     29.2504                43.7637                63.0894
 Red. masses --      3.9984                 4.9694                 1.0862
 Frc consts  --      0.0020                 0.0056                 0.0025
 IR Inten    --      0.3107                 1.3116                 0.1052

                      4                      5                      6
                      A                      A                      A
 Frequencies --     85.2114                93.2427               142.2991
 Red. masses --      4.5916                 4.5865                 4.3166
 Frc consts  --      0.0196                 0.0235                 0.0515
 IR Inten    --      3.5178                 3.2817                 4.9123

                      7                      8                      9
                      A                      A                      A
 Frequencies --    184.8229               225.0693               278.1340
 Red. masses --      3.5826                 5.1038                 2.6951
 Frc consts  --      0.0721                 0.1523                 0.1228
 IR Inten    --      1.1537                 5.5844                 2.8021

                     10                     11                     12
                      A                      A                      A
 Frequencies --    309.3378               335.6535               414.2123
 Red. masses --      5.5725                 5.2848                 2.5310
 Frc consts  --      0.3142                 0.3508                 0.2558
 IR Inten    --     10.6830                10.9000                 1.0138

                     13                     14                     15
                      A                      A                      A
 Frequencies --    421.9189               457.6820               501.2441
 Red. masses --      1.2856                 3.0335                 4.8182
 Frc consts  --      0.1348                 0.3744                 0.7132
 IR Inten    --     65.6557                 3.1597                 8.3431

                     16                     17                     18
                      A                      A                      A
 Frequencies --    577.7160               631.5403               649.1593
 Red. masses --      1.6200                 3.9225                 2.6010
 Frc consts  --      0.3186                 0.9218                 0.6458
 IR Inten    --     58.6143                 1.6354                27.6543

                     19                     20                     21
                      A                      A                      A
 Frequencies --    665.8182               674.0102               703.7694
 Red. masses --      4.8243                 3.2091                 2.8308
 Frc consts  --      1.2601                 0.8589                 0.8261
 IR Inten    --      1.1558                 0.6043                20.8401

                     22                     23                     24
                      A                      A                      A
 Frequencies --    724.4440               752.6378               781.6046
 Red. masses --      1.3172                 3.0871                 2.1007
 Frc consts  --      0.4073                 1.0303                 0.7561
 IR Inten    --     41.6236                 3.6280                14.6615

                     25                     26                     27
                      A                      A                      A
 Frequencies --    805.6797               847.3761               871.7227
 Red. masses --      2.1117                 1.2811                 1.3315
 Frc consts  --      0.8076                 0.5420                 0.5961
 IR Inten    --      9.2434                10.0518                12.4575

                     28                     29                     30
                      A                      A                      A
 Frequencies --    938.7489               959.9079              1007.2318
 Red. masses --      5.0389                 2.8612                 2.4468
 Frc consts  --      2.6163                 1.5533                 1.4625
 IR Inten    --      3.5527                 6.1446                 7.4306

                     31                     32                     33
                      A                      A                      A
 Frequencies --   1011.8956              1052.9512              1054.3769
 Red. masses --      3.4225                 4.3005                 3.0667
 Frc consts  --      2.0647                 2.8093                 2.0087
 IR Inten    --     28.9818                 7.1921                26.1731

                     34                     35                     36
                      A                      A                      A
 Frequencies --   1082.1831              1107.3615              1126.5726
 Red. masses --      1.5625                 1.9391                 2.8636
 Frc consts  --      1.0781                 1.4010                 2.1413
 IR Inten    --      7.3052                75.2487                57.4192

                     37                     38                     39
                      A                      A                      A
 Frequencies --   1148.6260              1157.4665              1177.2277
 Red. masses --      1.9474                 1.3354                 1.2894
 Frc consts  --      1.5138                 1.0541                 1.0528
 IR Inten    --      5.4979                10.8774                 1.5191

                     40                     41                     42
                      A                      A                      A
 Frequencies --   1192.1403              1198.7760              1247.3187
 Red. masses --      1.7807                 2.7832                 1.3889
 Frc consts  --      1.4911                 2.3565                 1.2732
 IR Inten    --     17.3632                 7.5463                 2.0863

                     43                     44                     45
                      A                      A                      A
 Frequencies --   1271.8573              1310.4254              1343.0126
 Red. masses --      1.7033                 1.3427                 1.7908
 Frc consts  --      1.6233                 1.3585                 1.9031
 IR Inten    --     13.7868                 1.4409                31.3922

                     46                     47                     48
                      A                      A                      A
 Frequencies --   1352.7276              1381.2338              1399.1694
 Red. masses --      2.2208                 1.4161                 3.0333
 Frc consts  --      2.3943                 1.5918                 3.4986
 IR Inten    --      1.4149                 7.8087                 7.1990

                     49                     50                     51
                      A                      A                      A
 Frequencies --   1408.9538              1433.6392              1464.4230
 Red. masses --      3.5100                 3.7360                 1.8493
 Frc consts  --      4.1053                 4.5241                 2.3367
 IR Inten    --      8.5746                22.5074                90.8569

                     52                     53                     54
                      A                      A                      A
 Frequencies --   1470.0189              1490.7042              1502.9855
 Red. masses --      1.8648                 1.8450                 2.3060
 Frc consts  --      2.3743                 2.4157                 3.0692
 IR Inten    --     80.7771                13.1540                44.6772

                     55                     56                     57
                      A                      A                      A
 Frequencies --   1510.1317              1514.2035              1528.6374
 Red. masses --      1.0620                 1.2238                 3.2033
 Frc consts  --      1.4269                 1.6533                 4.4102
 IR Inten    --      8.3074                 6.4372                17.8433

                     58                     59                     60
                      A                      A                      A
 Frequencies --   1544.7581              1596.9728              1613.3412
 Red. masses --      1.1740                 3.9447                 4.7959
 Frc consts  --      1.6506                 5.9274                 7.3549
 IR Inten    --      7.4827                31.0893                 2.5664

                     61                     62                     63
                      A                      A                      A
 Frequencies --   2962.0715              3065.1114              3069.6069
 Red. masses --      1.0824                 1.0602                 1.0364
 Frc consts  --      5.5953                 5.8685                 5.7537
 IR Inten    --     54.1887                26.0496                47.4899

                     64                     65                     66
                      A                      A                      A
 Frequencies --   3110.3901              3142.1348              3173.6913
 Red. masses --      1.1047                 1.1008                 1.1056
 Frc consts  --      6.2966                 6.4031                 6.5614
 IR Inten    --     16.1545                13.8889                 6.5602

                     67                     68                     69
                      A                      A                      A
 Frequencies --   3249.2129              3268.1801              3269.7069
 Red. masses --      1.0959                 1.0920                 1.0975
 Frc consts  --      6.8165                 6.8720                 6.9134
 IR Inten    --      4.0006                 6.8808                 0.2422

                     70                     71                     72
                      A                      A                      A
 Frequencies --   3296.6175              3598.0336              3627.4989
 Red. masses --      1.1042                 1.0656                 1.0815
 Frc consts  --      7.0700                 8.1277                 8.3847
 IR Inten    --      4.4321               114.0274               138.7169

 - Thermochemistry -
 -------------------
 Temperature   298.150 Kelvin.  Pressure   1.00000 Atm.
 Atom     1 has atomic number  6 and mass  12.00000

 Molecular mass:   192.10111 amu.
 Principal axes and moments of inertia in atomic units:
                           1         2         3
     Eigenvalues --  1401.719534218.887445073.75666
           X            0.99990   0.00325  -0.01384
           Y           -0.00321   0.99999   0.00294
           Z            0.01385  -0.00290   0.99990
 This molecule is an asymmetric top.
 Rotational symmetry number  1.
 Warning -- assumption of classical behavior for rotation
           may cause significant error
 Rotational temperatures (Kelvin)      0.06179     0.02053     0.01707
 Rotational constants (GHZ):           1.28752     0.42778     0.35570
 Zero-point vibrational energy     560466.3 (Joules/Mol)
                                  133.95466 (Kcal/Mol)
 Warning -- explicit consideration of  16 degrees of freedom as
           vibrations may cause significant error
 Vibrational temperatures:     42.08    62.97    90.77   122.60   134.16
          (Kelvin)            204.74   265.92   323.82   400.17   445.07
                              482.93   595.96   607.05   658.50   721.18
                              831.20   908.65   934.00   957.96   969.75
                             1012.57  1042.31  1082.88  1124.55  1159.19
                             1219.19  1254.21  1350.65  1381.09  1449.18
                             1455.89  1514.96  1517.01  1557.02  1593.25
                             1620.89  1652.62  1665.34  1693.77  1715.22
                             1724.77  1794.61  1829.92  1885.41  1932.30
                             1946.27  1987.29  2013.09  2027.17  2062.69
                             2106.98  2115.03  2144.79  2162.46  2172.74
                             2178.60  2199.37  2222.56  2297.69  2321.24
                             4261.76  4410.01  4416.48  4475.16  4520.83
                             4566.23  4674.89  4702.18  4704.38  4743.10
                             5176.77  5219.16

 Zero-point correction=                           0.213470 (Hartree/Particle)
 Thermal correction to Energy=                    0.226225
 Thermal correction to Enthalpy=                  0.227169
 Thermal correction to Gibbs Free Energy=         0.172399
 Sum of electronic and zero-point Energies=           -644.214297
 Sum of electronic and thermal Energies=              -644.201543
 Sum of electronic and thermal Enthalpies=            -644.200599
 Sum of electronic and thermal Free Energies=         -644.255368

                     E (Thermal)             CV                S
                      KCal/Mol        Cal/Mol-Kelvin    Cal/Mol-Kelvin
 Total                  141.958             47.376            115.272
 Electronic               0.000              0.000              0.000
 Translational            0.889              2.981             41.664
 Rotational               0.889              2.981             31.773
 Vibrational            140.181             41.415             41.835
 Vibration     1          0.593              1.984              5.880
 Vibration     2          0.595              1.980              5.081
 Vibration     3          0.597              1.972              4.358
 Vibration     4          0.601              1.959              3.767
 Vibration     5          0.602              1.954              3.591
 Vibration     6          0.616              1.911              2.773
 Vibration     7          0.631              1.861              2.279
 Vibration     8          0.650              1.803              1.918
 Vibration     9          0.679              1.714              1.545
 Vibration    10          0.699              1.656              1.366
 Vibration    11          0.717              1.604              1.233
 Vibration    12          0.778              1.439              0.912
 Vibration    13          0.784              1.423              0.885
 Vibration    14          0.816              1.344              0.773
 Vibration    15          0.857              1.247              0.655
 Vibration    16          0.934              1.079              0.490

 Optimization completed.
    -- Stationary point found.
 Normal termination of Gaussian 16 at Thu Dec 10 11:13:47 2020.

 ----------------------------------------------------------------------
 # B3LYP/6-311++G(d,p) empiricaldispersion=gd3bj scf=xqc pop=npa geom=c
 heck
 ----------------------------------------------------------------------

 --------------------------------------
 CID_80283682_JID_4949_Energie_neutraal
 --------------------------------------
 Structure from the checkpoint file:  "JID_4949.chk"
 Charge =  0 Multiplicity = 1

 SCF Done:  E(RB3LYP) =  -644.614732861     A.U. after   15 cycles
 Normal termination of Gaussian 16 at Thu Dec 10 11:16:08 2020.

 ----------------------------------------------------------------------
 # B3LYP/6-311++G(d,p) empiricaldispersion=gd3bj scf=xqc pop=npa geom=c
 heck
 ----------------------------------------------------------------------

 ------------------------------------
 CID_80283682_JID_4949_Energie_kation
 ------------------------------------
 Structure from the checkpoint file:  "JID_4949.chk"
 Charge =  1 Multiplicity = 2

 SCF Done:  E(UB3LYP) =  -644.311918248     A.U. after   25 cycles
 Normal termination of Gaussian 16 at Thu Dec 10 11:21:18 2020.
 Gaussian 16:  ES64L-G16RevA.03 25-Dec-2016

 ----------------------------------------------------------------------
 # B3LYP/6-311++G(d,p) empiricaldispersion=gd3bj scf=xqc pop=npa geom=c
 heck
 ----------------------------------------------------------------------

 -----------------------------------
 CID_80283682_JID_4949_Energie_anion
 -----------------------------------
 Structure from the checkpoint file:  "JID_4949.chk"
 Charge = -1 Multiplicity = 2

                         Standard orientation:
 ---------------------------------------------------------------------
 Center     Atomic      Atomic             Coordinates (Angstroms)
 Number     Number       Type             X           Y           Z
 ---------------------------------------------------------------------
      1          6           0        4.177615   -0.523175   -0.971098
      2          7           0        2.960424   -0.225221   -0.242053
      3          6           0        2.093521    0.802552   -0.447839
      4          6           0        1.134255    0.739475    0.554038
      5          6           0        1.533549   -0.382205    1.323356
      6          7           0        2.636717   -0.962428    0.842221
      7          6           0       -0.080929    1.602004    0.724964
      8          6           0       -1.168356    1.353114   -0.346079
      9          6           0       -1.817044   -0.003917   -0.233705
     10          7           0       -3.127326   -0.151971   -0.178952
     11          6           0       -3.354007   -1.510738   -0.102178
     12          6           0       -2.162659   -2.189642   -0.114130
     13          7           0       -1.186708   -1.213667   -0.206924
     14          8           0       -2.166174    2.344198   -0.229615
     15          1           0        5.051710   -0.109669   -0.457242
     16          1           0        4.285798   -1.606683   -1.043910
     17          1           0        4.109021   -0.093237   -1.972736
     18          1           0        2.218795    1.490359   -1.272358
     19          1           0        1.054525   -0.785388    2.206942
     20          1           0       -0.526773    1.443857    1.712538
     21          1           0        0.179596    2.664205    0.659145
     22          1           0       -0.684031    1.432904   -1.335170
     23          1           0       -4.355346   -1.913533   -0.044912
     24          1           0       -1.917713   -3.239651   -0.066659
     25          1           0       -0.185847   -1.351796   -0.168097
     26          1           0       -3.017754    1.863251   -0.204623
 ---------------------------------------------------------------------

 SCF Done:  E(UB3LYP) =  -644.605254485     A.U. after   28 cycles

 The electronic state is 2-A.
 Alpha  occ. eigenvalues --  -19.02967 -14.30046 -14.28129 -14.23829 -14.21571
 Alpha  occ. eigenvalues --  -10.14882 -10.14648 -10.11591 -10.11267 -10.10860
 Alpha  occ. eigenvalues --  -10.10327 -10.09928 -10.09286 -10.08562  -0.96023
 Alpha  occ. eigenvalues --   -0.94830  -0.92631  -0.78971  -0.75150  -0.72214
 Alpha  occ. eigenvalues --   -0.68184  -0.64859  -0.60407  -0.55644  -0.52669
 Alpha  occ. eigenvalues --   -0.50785  -0.49801  -0.48564  -0.46645  -0.43165
 Alpha  occ. eigenvalues --   -0.39898  -0.38503  -0.38257  -0.36307  -0.35695
 Alpha  occ. eigenvalues --   -0.35160  -0.34096  -0.33273  -0.31805  -0.31155
 Alpha  occ. eigenvalues --   -0.30483  -0.29394  -0.27888  -0.25959  -0.20844
 Alpha  occ. eigenvalues --   -0.20566  -0.20468  -0.19166  -0.16643  -0.15589
 Alpha  occ. eigenvalues --   -0.14459   0.04136
 Alpha virt. eigenvalues --    0.06032   0.07666   0.07686   0.08077   0.08616
 Alpha virt. eigenvalues --    0.09719   0.09898   0.10165   0.10742   0.11051
 Alpha virt. eigenvalues --    0.11550   0.11918   0.12589   0.12958   0.13522

  Beta  occ. eigenvalues --  -19.02966 -14.30046 -14.28115 -14.23816 -14.21566
  Beta  occ. eigenvalues --  -10.14876 -10.14644 -10.11569 -10.11234 -10.10787
  Beta  occ. eigenvalues --  -10.10326 -10.09923 -10.09282 -10.08562  -0.96012
  Beta  occ. eigenvalues --   -0.94821  -0.92619  -0.78950  -0.75129  -0.72197
  Beta  occ. eigenvalues --   -0.68158  -0.64829  -0.60340  -0.55611  -0.52641
  Beta  occ. eigenvalues --   -0.50759  -0.49777  -0.48508  -0.46610  -0.43097
  Beta  occ. eigenvalues --   -0.39872  -0.38467  -0.38219  -0.36277  -0.35664
  Beta  occ. eigenvalues --   -0.35116  -0.34073  -0.33239  -0.31784  -0.31132
  Beta  occ. eigenvalues --   -0.30426  -0.29356  -0.27871  -0.25950  -0.20825
  Beta  occ. eigenvalues --   -0.20546  -0.20448  -0.19153  -0.16623  -0.15570
  Beta  occ. eigenvalues --   -0.14434
  Beta virt. eigenvalues --    0.06508   0.07304   0.08055   0.08129   0.08432
  Beta virt. eigenvalues --    0.09137   0.09936   0.10174   0.10428   0.11381
  Beta virt. eigenvalues --    0.11621   0.11903   0.12087   0.12548   0.13355

 Mulliken charges and spin densities:
               1          2
     1  C    2.016011  -2.299153
     2  N    0.015728   0.119673
     3  C    0.000084  -0.356702
     4  C    0.025000   0.298307
     5  C    0.352210  -0.920058
     6  N   -0.459018   0.363829
     7  C   -0.030101  -0.157674
     8  C    0.239320  -0.673288
     9  C   -0.309535  -0.162433
    10  N   -0.139747   0.038400
    11  C    0.327651  -0.393856
    12  C    0.120461  -0.129946
    13  N   -0.153379   0.086364
    14  O   -0.244562   0.005912
    15  H   -0.481268   0.662339
    16  H   -0.427025   0.598845
    17  H   -0.945844   1.115008
    18  H   -0.734656   0.927069
    19  H    0.049451   0.102524
    20  H    0.133804   0.020170
    21  H    0.152227   0.060435
    22  H   -0.030878   0.243862
    23  H   -0.006088   0.164140
    24  H   -0.843522   1.014938
    25  H    0.084891   0.272864
    26  H    0.288783  -0.001568
 Sum of Mulliken charges =  -1.00000   1.00000

 Dipole moment (field-independent basis, Debye):
    X=             -6.9253    Y=              1.7307    Z=              4.9724  Tot=              8.6994
 Quadrupole moment (field-independent basis, Debye-Ang):
   XX=           -168.5100   YY=           -129.9763   ZZ=           -120.3230
   XY=              2.6469   XZ=             16.1333   YZ=              3.0652

 Summary of Natural Population Analysis:

                                       Natural Population
                Natural  -----------------------------------------------
    Atom  No    Charge         Core      Valence    Rydberg      Total
 -----------------------------------------------------------------------
      C    1   -0.17226      0.99963     2.16367    0.00896     3.17226
      N    2   -0.09993      0.99968     2.58646    0.01380     3.59993
      C    3   -0.00097      0.99948     1.98868    0.01281     3.00097
      C    4   -0.09245      0.99954     2.08051    0.01240     3.09245
      C    5   -0.02548      0.99957     2.01109    0.01483     3.02548
      N    6   -0.15004      0.99973     2.63765    0.01266     3.65004
      C    7   -0.18495      0.99959     2.17892    0.00644     3.18495
      C    8    0.04907      0.99954     1.93440    0.01700     2.95093
      C    9    0.18074      0.99961     1.80141    0.01825     2.81926
      N   10   -0.28157      0.99967     2.77268    0.00922     3.78157
      C   11   -0.03591      0.99959     2.02222    0.01411     3.03591
      C   12   -0.03415      0.99957     2.02227    0.01232     3.03415
      N   13   -0.27036      0.99965     2.76142    0.00929     3.77036
      O   14   -0.37510      0.99990     3.36865    0.00656     4.37510
      H   15    0.10004      0.00000     0.39797    0.00200     0.39996
      H   16    0.10785      0.00000     0.38961    0.00254     0.39215
      H   17    0.10807      0.00000     0.38472    0.00721     0.39193
      H   18    0.11108      0.00000     0.38641    0.00251     0.38892
      H   19    0.09959      0.00000     0.39943    0.00098     0.40041
      H   20    0.10230      0.00000     0.39642    0.00128     0.39770
      H   21    0.10758      0.00000     0.39111    0.00131     0.39242
      H   22    0.08912      0.00000     0.40875    0.00214     0.41088
      H   23    0.09733      0.00000     0.40179    0.00088     0.40267
      H   24    0.10765      0.00000     0.39044    0.00191     0.39235
      H   25    0.21819      0.00000     0.27878    0.00303     0.28181
      H   26    0.24466      0.00000     0.25204    0.00329     0.25534
 =======================================================================
   * Total *    0.00008     13.99473    36.80748    0.19771    50.99992

 Normal termination of Gaussian 16 at Thu Dec 10 11:27:08 2020.
