 Gaussian 16, Revision A.03,

 -----------------------------------------------------------
 # opt freq B3LYP/6-31G(d) empiricaldispersion=gd3bj scf=xqc
 -----------------------------------------------------------

 ------------------------------
 CID_67742125_JID_3203_neutraal
 ------------------------------
 Symbolic Z-matrix:
 Charge =  0 Multiplicity = 1

 SCF Done:  E(RB3LYP) =  -624.953266144     A.U. after   15 cycles
 SCF Done:  E(RB3LYP) =  -624.960500383     A.U. after   12 cycles
 SCF Done:  E(RB3LYP) =  -624.961076498     A.U. after   12 cycles
 SCF Done:  E(RB3LYP) =  -624.961279863     A.U. after   12 cycles
 SCF Done:  E(RB3LYP) =  -624.961602637     A.U. after   11 cycles
 SCF Done:  E(RB3LYP) =  -624.961632556     A.U. after   10 cycles
 SCF Done:  E(RB3LYP) =  -624.961654630     A.U. after   11 cycles
 SCF Done:  E(RB3LYP) =  -624.961669446     A.U. after   10 cycles
 SCF Done:  E(RB3LYP) =  -624.961680500     A.U. after   10 cycles
 SCF Done:  E(RB3LYP) =  -624.961684283     A.U. after   10 cycles
 SCF Done:  E(RB3LYP) =  -624.965594176     A.U. after   12 cycles
 SCF Done:  E(RB3LYP) =  -624.965639647     A.U. after   12 cycles
 SCF Done:  E(RB3LYP) =  -624.965645963     A.U. after   10 cycles
 SCF Done:  E(RB3LYP) =  -624.965648163     A.U. after   10 cycles
 SCF Done:  E(RB3LYP) =  -624.965648917     A.U. after    9 cycles
 SCF Done:  E(RB3LYP) =  -624.965649000     A.U. after    7 cycles
 Optimization completed.
    -- Stationary point found.
 Normal termination of Gaussian 16 at Wed Dec  9 22:37:07 2020.

 --------------------------------------------------------------------
 #N Geom=AllCheck Guess=TCheck SCRF=Check GenChk RB3LYP/6-31G(d) Freq
 --------------------------------------------------------------------

 Structure from the checkpoint file:  "JID_3203.chk"
 ------------------------------
 CID_67742125_JID_3203_neutraal
 ------------------------------
 Charge =  0 Multiplicity = 1

 SCF Done:  E(RB3LYP) =  -624.965649000     A.U. after    1 cycles

  Exact polarizability: 112.725 -16.684 113.732 -13.256  -0.123  75.812
 Approx polarizability: 162.585 -36.224 186.959 -37.285   1.211 129.240

                      1                      2                      3
                      A                      A                      A
 Frequencies --     27.1343                48.8648                67.7336
 Red. masses --      4.2169                 5.0445                 4.2543
 Frc consts  --      0.0018                 0.0071                 0.0115
 IR Inten    --      0.9434                 1.3469                 0.2768

                      4                      5                      6
                      A                      A                      A
 Frequencies --     93.1468               147.1923               201.1160
 Red. masses --      3.7462                 5.5411                 1.8069
 Frc consts  --      0.0192                 0.0707                 0.0431
 IR Inten    --      0.8258                 1.5388                 0.7152

                      7                      8                      9
                      A                      A                      A
 Frequencies --    247.2017               254.3482               325.2529
 Red. masses --      2.0670                 4.3773                 2.7427
 Frc consts  --      0.0744                 0.1668                 0.1710
 IR Inten    --      4.5588                 0.2760                13.1175

                     10                     11                     12
                      A                      A                      A
 Frequencies --    379.6446               431.3343               494.5921
 Red. masses --      8.6283                 4.2041                 5.0929
 Frc consts  --      0.7327                 0.4608                 0.7340
 IR Inten    --      6.6467                 7.9775                 2.4485

                     13                     14                     15
                      A                      A                      A
 Frequencies --    512.2006               651.4544               670.3168
 Red. masses --      4.8155                 4.6574                 6.6387
 Frc consts  --      0.7443                 1.1646                 1.7575
 IR Inten    --     15.1000                 2.6791                 5.1005

                     16                     17                     18
                      A                      A                      A
 Frequencies --    695.6981               712.9879               763.5277
 Red. masses --      3.7562                 5.6190                 3.9160
 Frc consts  --      1.0711                 1.6830                 1.3451
 IR Inten    --      0.4804                 5.0665                 1.1032

                     19                     20                     21
                      A                      A                      A
 Frequencies --    777.9142               787.5749               803.1224
 Red. masses --      3.0813                 1.4498                 1.7696
 Frc consts  --      1.0986                 0.5299                 0.6725
 IR Inten    --     10.3656                26.0092                 8.0575

                     22                     23                     24
                      A                      A                      A
 Frequencies --    843.1705               867.0152               878.7246
 Red. masses --      1.6410                 2.4316                 1.3349
 Frc consts  --      0.6874                 1.0770                 0.6073
 IR Inten    --     17.2065                11.5727                 0.9471

                     25                     26                     27
                      A                      A                      A
 Frequencies --    928.5674               950.1657               972.9846
 Red. masses --      3.5754                 3.0156                 2.9523
 Frc consts  --      1.8163                 1.6041                 1.6467
 IR Inten    --     11.8233                 6.0978                30.6181

                     28                     29                     30
                      A                      A                      A
 Frequencies --    987.5365              1054.6160              1061.0423
 Red. masses --      2.9869                 1.6139                 4.4981
 Frc consts  --      1.7162                 1.0576                 2.9836
 IR Inten    --     13.8772                 4.1981                66.3025

                     31                     32                     33
                      A                      A                      A
 Frequencies --   1132.3637              1139.8278              1191.4046
 Red. masses --      1.9829                 3.2395                 1.8139
 Frc consts  --      1.4980                 2.4797                 1.5170
 IR Inten    --     26.1558                14.1088                46.1634

                     34                     35                     36
                      A                      A                      A
 Frequencies --   1210.9593              1232.3139              1289.9823
 Red. masses --      1.7181                 1.6458                 3.5224
 Frc consts  --      1.4844                 1.4726                 3.4534
 IR Inten    --      5.8666                45.6003               283.2996

                     37                     38                     39
                      A                      A                      A
 Frequencies --   1302.0972              1328.4466              1342.0863
 Red. masses --      1.3479                 1.6182                 2.1790
 Frc consts  --      1.3465                 1.6825                 2.3124
 IR Inten    --     38.9022                 3.2412                 9.4919

                     40                     41                     42
                      A                      A                      A
 Frequencies --   1344.1002              1378.1317              1419.9715
 Red. masses --      1.7242                 6.2713                 1.3277
 Frc consts  --      1.8352                 7.0176                 1.5773
 IR Inten    --     39.0629                31.9993                10.7524

                     43                     44                     45
                      A                      A                      A
 Frequencies --   1431.4108              1445.4158              1445.9525
 Red. masses --      3.9902                 2.0748                 1.9527
 Frc consts  --      4.8170                 2.5540                 2.4054
 IR Inten    --     19.4172                11.4009                 1.0930

                     46                     47                     48
                      A                      A                      A
 Frequencies --   1515.4982              1520.5347              1536.7648
 Red. masses --      1.0442                 1.0842                 1.0605
 Frc consts  --      1.4130                 1.4769                 1.4756
 IR Inten    --     10.4895                 3.5117                 8.2578

                     49                     50                     51
                      A                      A                      A
 Frequencies --   1607.9486              1614.9791              1829.2720
 Red. masses --      7.9856                 7.4046                11.3714
 Frc consts  --     12.1648                11.3785                22.4192
 IR Inten    --     50.4374                13.2489               271.9605

                     52                     53                     54
                      A                      A                      A
 Frequencies --   3065.5397              3100.9903              3104.5138
 Red. masses --      1.0359                 1.0595                 1.0845
 Frc consts  --      5.7356                 6.0027                 6.1584
 IR Inten    --     12.4973                19.5851                 4.0271

                     55                     56                     57
                      A                      A                      A
 Frequencies --   3136.3581              3143.0676              3165.8578
 Red. masses --      1.1000                 1.1054                 1.1090
 Frc consts  --      6.3754                 6.4339                 6.5490
 IR Inten    --     25.4676                 1.4975                20.9601

                     58                     59                     60
                      A                      A                      A
 Frequencies --   3228.8674              3260.3036              3300.3830
 Red. masses --      1.0951                 1.0945                 1.0997
 Frc consts  --      6.7269                 6.8548                 7.0575
 IR Inten    --      1.2257                 8.0271                 0.4033

 - Thermochemistry -
 -------------------
 Temperature   298.150 Kelvin.  Pressure   1.00000 Atm.
 Atom     1 has atomic number  6 and mass  12.00000

 Molecular mass:   179.06948 amu.
 Principal axes and moments of inertia in atomic units:
                           1         2         3
     Eigenvalues --  1285.529462842.269073508.72421
           X            0.99975   0.02131   0.00669
           Y           -0.02140   0.99968   0.01329
           Z           -0.00641  -0.01343   0.99989
 This molecule is an asymmetric top.
 Rotational symmetry number  1.
 Warning -- assumption of classical behavior for rotation
           may cause significant error
 Rotational temperatures (Kelvin)      0.06738     0.03047     0.02469
 Rotational constants (GHZ):           1.40389     0.63496     0.51436
 Zero-point vibrational energy     451001.3 (Joules/Mol)
                                  107.79189 (Kcal/Mol)
 Warning -- explicit consideration of  13 degrees of freedom as
           vibrations may cause significant error
 Vibrational temperatures:     39.04    70.31    97.45   134.02   211.78
          (Kelvin)            289.36   355.67   365.95   467.97   546.22
                              620.59   711.61   736.94   937.30   964.44
                             1000.95  1025.83  1098.55  1119.25  1133.14
                             1155.51  1213.13  1247.44  1264.29  1336.00
                             1367.08  1399.91  1420.84  1517.36  1526.60
                             1629.22  1639.96  1714.17  1742.30  1773.02
                             1856.00  1873.43  1911.34  1930.96  1933.86
                             1982.82  2043.02  2059.48  2079.63  2080.40
                             2180.46  2187.71  2211.06  2313.48  2323.59
                             2631.91  4410.63  4461.63  4466.70  4512.52
                             4522.17  4554.96  4645.62  4690.85  4748.51

 Zero-point correction=                           0.171777 (Hartree/Particle)
 Thermal correction to Energy=                    0.182928
 Thermal correction to Enthalpy=                  0.183872
 Thermal correction to Gibbs Free Energy=         0.132745
 Sum of electronic and zero-point Energies=           -624.793872
 Sum of electronic and thermal Energies=              -624.782721
 Sum of electronic and thermal Enthalpies=            -624.781777
 Sum of electronic and thermal Free Energies=         -624.832904

                     E (Thermal)             CV                S
                      KCal/Mol        Cal/Mol-Kelvin    Cal/Mol-Kelvin
 Total                  114.789             40.908            107.606
 Electronic               0.000              0.000              0.000
 Translational            0.889              2.981             41.455
 Rotational               0.889              2.981             30.928
 Vibrational            113.012             34.946             35.223
 Vibration     1          0.593              1.984              6.029
 Vibration     2          0.595              1.978              4.863
 Vibration     3          0.598              1.970              4.218
 Vibration     4          0.602              1.954              3.593
 Vibration     5          0.617              1.906              2.708
 Vibration     6          0.638              1.838              2.123
 Vibration     7          0.661              1.767              1.750
 Vibration     8          0.665              1.755              1.700
 Vibration     9          0.709              1.625              1.284
 Vibration    10          0.750              1.514              1.041
 Vibration    11          0.792              1.402              0.854
 Vibration    12          0.850              1.262              0.672
 Vibration    13          0.867              1.223              0.628

 Optimization completed.
    -- Stationary point found.
 Normal termination of Gaussian 16 at Wed Dec  9 22:42:31 2020.

 ----------------------------------------------------------------------
 # B3LYP/6-311++G(d,p) empiricaldispersion=gd3bj scf=xqc pop=npa geom=c
 heck
 ----------------------------------------------------------------------

 --------------------------------------
 CID_67742125_JID_3203_Energie_neutraal
 --------------------------------------
 Structure from the checkpoint file:  "JID_3203.chk"
 Charge =  0 Multiplicity = 1

 SCF Done:  E(RB3LYP) =  -625.138410767     A.U. after   15 cycles
 Normal termination of Gaussian 16 at Wed Dec  9 22:45:21 2020.

 ----------------------------------------------------------------------
 # B3LYP/6-311++G(d,p) empiricaldispersion=gd3bj scf=xqc pop=npa geom=c
 heck
 ----------------------------------------------------------------------

 ------------------------------------
 CID_67742125_JID_3203_Energie_kation
 ------------------------------------
 Structure from the checkpoint file:  "JID_3203.chk"
 Charge =  1 Multiplicity = 2

 SCF Done:  E(UB3LYP) =  -624.813672225     A.U. after   24 cycles
 Normal termination of Gaussian 16 at Wed Dec  9 22:51:01 2020.
 Gaussian 16:  ES64L-G16RevA.03 25-Dec-2016

 ----------------------------------------------------------------------
 # B3LYP/6-311++G(d,p) empiricaldispersion=gd3bj scf=xqc pop=npa geom=c
 heck
 ----------------------------------------------------------------------

 -----------------------------------
 CID_67742125_JID_3203_Energie_anion
 -----------------------------------
 Structure from the checkpoint file:  "JID_3203.chk"
 Charge = -1 Multiplicity = 2

                         Standard orientation:
 ---------------------------------------------------------------------
 Center     Atomic      Atomic             Coordinates (Angstroms)
 Number     Number       Type             X           Y           Z
 ---------------------------------------------------------------------
      1          6           0       -3.286259   -1.490853   -0.054521
      2          6           0       -2.653755   -0.490539   -1.006360
      3          8           0       -1.308817   -0.153118   -0.573986
      4          6           0       -1.204483    0.782645    0.371620
      5          8           0       -2.111730    1.420606    0.855579
      6          6           0        0.259361    1.025871    0.753227
      7          6           0        0.923164    1.995446   -0.241340
      8          7           0        1.925263    1.494538   -0.877555
      9          6           0        2.069421    0.181294   -0.410428
     10          6           0        2.803451   -0.975523   -0.592468
     11          6           0        2.205953   -1.885979    0.319895
     12          7           0        1.188207   -1.353329    1.013683
     13          7           0        1.144246   -0.091215    0.554035
     14          1           0       -2.650097   -2.374658    0.051661
     15          1           0       -4.261298   -1.805778   -0.442407
     16          1           0       -3.436399   -1.042070    0.931109
     17          1           0       -2.510405   -0.910616   -2.003502
     18          1           0       -3.239003    0.429388   -1.075379
     19          1           0        0.275165    1.412786    1.776780
     20          1           0        0.568839    3.009263   -0.397334
     21          1           0        3.628784   -1.146817   -1.265622
     22          1           0        2.483655   -2.915529    0.503066
 ---------------------------------------------------------------------

 SCF Done:  E(UB3LYP) =  -625.147286298     A.U. after   25 cycles

 The electronic state is 2-A.
 Alpha  occ. eigenvalues --  -19.04287 -18.98172 -14.22378 -14.18014 -14.14138
 Alpha  occ. eigenvalues --  -10.16637 -10.12029 -10.08855 -10.07157 -10.06372
 Alpha  occ. eigenvalues --  -10.05047 -10.03868 -10.01883  -0.98484  -0.91205
 Alpha  occ. eigenvalues --   -0.89721  -0.79239  -0.69178  -0.66250  -0.62415
 Alpha  occ. eigenvalues --   -0.58843  -0.54435  -0.46498  -0.46404  -0.44308
 Alpha  occ. eigenvalues --   -0.42899  -0.38909  -0.36709  -0.34484  -0.34065
 Alpha  occ. eigenvalues --   -0.33645  -0.31305  -0.30214  -0.29672  -0.28672
 Alpha  occ. eigenvalues --   -0.27214  -0.26710  -0.25309  -0.24362  -0.23153
 Alpha  occ. eigenvalues --   -0.20307  -0.18675  -0.16825  -0.15408  -0.11829
 Alpha  occ. eigenvalues --   -0.11032  -0.08871   0.05005
 Alpha virt. eigenvalues --    0.07112   0.09682   0.09829   0.10587   0.11287
 Alpha virt. eigenvalues --    0.11748   0.12413   0.12536   0.13027   0.14491
 Alpha virt. eigenvalues --    0.15618   0.16115   0.16451   0.17175   0.17988

  Beta  occ. eigenvalues --  -19.04249 -18.98089 -14.22214 -14.17853 -14.13765
  Beta  occ. eigenvalues --  -10.16446 -10.12023 -10.08934 -10.07118 -10.06359
  Beta  occ. eigenvalues --  -10.05097 -10.03316 -10.01821  -0.98344  -0.90919
  Beta  occ. eigenvalues --   -0.89581  -0.78584  -0.68866  -0.66164  -0.62090
  Beta  occ. eigenvalues --   -0.58582  -0.54264  -0.46372  -0.45557  -0.44056
  Beta  occ. eigenvalues --   -0.42753  -0.38667  -0.36371  -0.34280  -0.33650
  Beta  occ. eigenvalues --   -0.33453  -0.31050  -0.30034  -0.29519  -0.28407
  Beta  occ. eigenvalues --   -0.26946  -0.26558  -0.24911  -0.24117  -0.23020
  Beta  occ. eigenvalues --   -0.18758  -0.17860  -0.16557  -0.15146  -0.11371
  Beta  occ. eigenvalues --   -0.10494  -0.07398
  Beta virt. eigenvalues --    0.07370   0.09656   0.09799   0.10508   0.11200
  Beta virt. eigenvalues --    0.11629   0.11772   0.12529   0.12686   0.13926
  Beta virt. eigenvalues --    0.14398   0.15758   0.16155   0.16576   0.17073

 Mulliken charges and spin densities:
               1          2
     1  C   -0.089690  -0.283515
     2  C   -0.117607  -0.031207
     3  O    0.035837   0.008380
     4  C   -0.320529   0.203571
     5  O   -0.283892   0.022555
     6  C    0.107618  -0.277074
     7  C   -0.024813   0.406261
     8  N   -0.188757   0.151658
     9  C   -0.426900  -0.006108
    10  C   -0.047864   0.092014
    11  C   -0.355169  -0.048907
    12  N   -0.196342   0.095808
    13  N    0.157463   0.052891
    14  H    0.157959  -0.010222
    15  H   -0.124650   0.242674
    16  H    0.083693   0.083455
    17  H    0.008554   0.152081
    18  H    0.134815   0.022650
    19  H    0.120444   0.150112
    20  H    0.157716  -0.028723
    21  H    0.121439  -0.002240
    22  H    0.090675   0.003888
 Sum of Mulliken charges =  -1.00000   1.00000

 Dipole moment (field-independent basis, Debye):
    X=             -2.0913    Y=             -1.8794    Z=             -0.4724  Tot=              2.8511
 Quadrupole moment (field-independent basis, Debye-Ang):
   XX=           -109.4051   YY=            -94.9699   ZZ=            -91.2916
   XY=             -2.4016   XZ=              4.3380   YZ=              2.9571

 Summary of Natural Population Analysis:

                                       Natural Population
                Natural  -----------------------------------------------
    Atom  No    Charge         Core      Valence    Rydberg      Total
 -----------------------------------------------------------------------
      C    1   -0.29961      0.99966     2.29538    0.00457     3.29961
      C    2   -0.01831      0.99959     2.00640    0.01233     3.01831
      O    3   -0.27152      0.99985     3.26293    0.00874     4.27152
      C    4    0.43611      0.99968     1.53898    0.02524     2.56389
      O    5   -0.31498      0.99987     3.30947    0.00565     4.31498
      C    6   -0.08286      0.99955     2.06865    0.01465     3.08286
      C    7    0.15897      0.99964     1.82738    0.01402     2.84103
      N    8   -0.20229      0.99967     2.68850    0.01412     3.70229
      C    9    0.17554      0.99952     1.80842    0.01652     2.82446
      C   10   -0.17725      0.99951     2.16916    0.00858     3.17725
      C   11   -0.03428      0.99967     2.01991    0.01470     3.03428
      N   12   -0.14070      0.99973     2.62805    0.01292     3.64070
      N   13   -0.10108      0.99958     2.58723    0.01427     3.60108
      H   14    0.10266      0.00000     0.39579    0.00156     0.39734
      H   15    0.09586      0.00000     0.40281    0.00133     0.40414
      H   16    0.10573      0.00000     0.39286    0.00141     0.39427
      H   17    0.08851      0.00000     0.41024    0.00125     0.41149
      H   18    0.09291      0.00000     0.40571    0.00138     0.40709
      H   19    0.12129      0.00000     0.37714    0.00157     0.37871
      H   20    0.07788      0.00000     0.42097    0.00115     0.42212
      H   21    0.10145      0.00000     0.39776    0.00079     0.39855
      H   22    0.08596      0.00000     0.41307    0.00097     0.41404
 =======================================================================
   * Total *   -0.00000     12.99551    33.82679    0.17771    47.00000

 Normal termination of Gaussian 16 at Wed Dec  9 22:56:27 2020.
