 Gaussian 16, Revision A.03,

 -----------------------------------------------------------
 # opt freq B3LYP/6-31G(d) empiricaldispersion=gd3bj scf=xqc
 -----------------------------------------------------------

 -------------------------------
 CID_144962828_JID_5123_neutraal
 -------------------------------
 Symbolic Z-matrix:
 Charge =  0 Multiplicity = 1

 SCF Done:  E(RB3LYP) =  -618.140562703     A.U. after   14 cycles
 SCF Done:  E(RB3LYP) =  -618.143543110     A.U. after   12 cycles
 SCF Done:  E(RB3LYP) =  -618.142003228     A.U. after   12 cycles
 SCF Done:  E(RB3LYP) =  -618.144679577     A.U. after   12 cycles
 SCF Done:  E(RB3LYP) =  -618.145638294     A.U. after   14 cycles
 SCF Done:  E(RB3LYP) =  -618.146862866     A.U. after   11 cycles
 SCF Done:  E(RB3LYP) =  -618.147233978     A.U. after   11 cycles
 SCF Done:  E(RB3LYP) =  -618.147382095     A.U. after   11 cycles
 SCF Done:  E(RB3LYP) =  -618.147415858     A.U. after   10 cycles
 SCF Done:  E(RB3LYP) =  -618.147423092     A.U. after    9 cycles
 SCF Done:  E(RB3LYP) =  -618.147427328     A.U. after    8 cycles
 SCF Done:  E(RB3LYP) =  -618.147427525     A.U. after    8 cycles
 SCF Done:  E(RB3LYP) =  -618.147427492     A.U. after    8 cycles
 SCF Done:  E(RB3LYP) =  -618.147427392     A.U. after    7 cycles
 SCF Done:  E(RB3LYP) =  -618.147427338     A.U. after    6 cycles
 Optimization completed.
    -- Stationary point found.
 Normal termination of Gaussian 16 at Thu Dec 10 14:52:43 2020.

 --------------------------------------------------------------------
 #N Geom=AllCheck Guess=TCheck SCRF=Check GenChk RB3LYP/6-31G(d) Freq
 --------------------------------------------------------------------

 Structure from the checkpoint file:  "JID_5123.chk"
 -------------------------------
 CID_144962828_JID_5123_neutraal
 -------------------------------
 Charge =  0 Multiplicity = 1

 SCF Done:  E(RB3LYP) =  -618.147427338     A.U. after    1 cycles

  Exact polarizability: 155.266  10.456 147.784  12.727  -1.333 131.375
 Approx polarizability: 208.555  17.213 215.482  22.436  -5.610 211.212

                      1                      2                      3
                      A                      A                      A
 Frequencies --     20.1454                43.8136                67.4625
 Red. masses --      3.4455                 3.1333                 3.2896
 Frc consts  --      0.0008                 0.0035                 0.0088
 IR Inten    --      0.1909                 0.0886                 0.1158

                      4                      5                      6
                      A                      A                      A
 Frequencies --     83.5486               150.2329               165.3610
 Red. masses --      3.6850                 2.6912                 3.1649
 Frc consts  --      0.0152                 0.0358                 0.0510
 IR Inten    --      0.1691                 0.3194                 0.2745

                      7                      8                      9
                      A                      A                      A
 Frequencies --    197.8426               216.8901               242.1244
 Red. masses --      2.7838                 2.3177                 1.4554
 Frc consts  --      0.0642                 0.0642                 0.0503
 IR Inten    --      1.6750                 2.5433                 0.4413

                     10                     11                     12
                      A                      A                      A
 Frequencies --    270.4583               291.8371               341.0501
 Red. masses --      1.4085                 2.1597                 2.2528
 Frc consts  --      0.0607                 0.1084                 0.1544
 IR Inten    --      0.3899                 2.0671                 6.3308

                     13                     14                     15
                      A                      A                      A
 Frequencies --    360.5374               386.5342               399.7449
 Red. masses --      2.0551                 2.4910                 3.4290
 Frc consts  --      0.1574                 0.2193                 0.3228
 IR Inten    --      0.7766                 3.4731                 1.7593

                     16                     17                     18
                      A                      A                      A
 Frequencies --    422.2805               447.8322               479.2442
 Red. masses --      2.3503                 1.8980                 2.9914
 Frc consts  --      0.2469                 0.2243                 0.4048
 IR Inten    --      3.3883                 0.6558                 3.4848

                     19                     20                     21
                      A                      A                      A
 Frequencies --    489.4909               506.8697               521.1828
 Red. masses --      2.8054                 3.1795                 2.1855
 Frc consts  --      0.3960                 0.4813                 0.3498
 IR Inten    --      1.6661                 0.5957                 1.2751

                     22                     23                     24
                      A                      A                      A
 Frequencies --    549.7195               612.8971               701.3830
 Red. masses --      3.0247                 2.1212                 1.5358
 Frc consts  --      0.5385                 0.4695                 0.4451
 IR Inten    --      2.1830                 5.6237                26.8648

                     25                     26                     27
                      A                      A                      A
 Frequencies --    740.5504               754.6046               774.5872
 Red. masses --      2.4707                 2.4866                 1.8020
 Frc consts  --      0.7983                 0.8342                 0.6370
 IR Inten    --      4.5676                 7.2874                 2.0194

                     28                     29                     30
                      A                      A                      A
 Frequencies --    791.2158               855.4948               872.0555
 Red. masses --      3.0964                 1.6063                 1.6152
 Frc consts  --      1.1421                 0.6926                 0.7237
 IR Inten    --      5.8746                 0.1439                 4.8351

                     31                     32                     33
                      A                      A                      A
 Frequencies --    888.8490               914.9372               928.5969
 Red. masses --      3.1736                 2.1671                 1.8929
 Frc consts  --      1.4772                 1.0688                 0.9617
 IR Inten    --      0.8268                 2.7311                 0.5219

                     34                     35                     36
                      A                      A                      A
 Frequencies --    958.0715               976.2062               987.0178
 Red. masses --      2.1331                 1.5978                 1.7468
 Frc consts  --      1.1536                 0.8972                 1.0026
 IR Inten    --     11.9042                 0.5607                 1.1007

                     37                     38                     39
                      A                      A                      A
 Frequencies --   1003.9594              1013.5792              1039.6665
 Red. masses --      2.7598                 2.6644                 2.3731
 Frc consts  --      1.6390                 1.6127                 1.5113
 IR Inten    --      4.4222                19.3808                46.7946

                     40                     41                     42
                      A                      A                      A
 Frequencies --   1052.4089              1061.0719              1085.4574
 Red. masses --      2.0626                 2.1034                 1.7996
 Frc consts  --      1.3459                 1.3953                 1.2492
 IR Inten    --      5.6841                 4.7345                 6.1517

                     43                     44                     45
                      A                      A                      A
 Frequencies --   1092.6632              1096.4786              1097.8586
 Red. masses --      1.8936                 1.7722                 1.9980
 Frc consts  --      1.3320                 1.2553                 1.4188
 IR Inten    --     14.1705                 1.3435                 8.9504

                     46                     47                     48
                      A                      A                      A
 Frequencies --   1154.8273              1164.3077              1182.1510
 Red. masses --      1.4260                 2.2005                 2.0054
 Frc consts  --      1.1205                 1.7575                 1.6512
 IR Inten    --     43.0721                 3.8169                14.8218

                     49                     50                     51
                      A                      A                      A
 Frequencies --   1184.5283              1198.6887              1200.8328
 Red. masses --      2.6397                 1.2376                 1.1530
 Frc consts  --      2.1822                 1.0477                 0.9796
 IR Inten    --     37.7288                 2.2732                 0.2424

                     52                     53                     54
                      A                      A                      A
 Frequencies --   1213.1230              1230.1199              1249.3435
 Red. masses --      1.7608                 1.3673                 1.1722
 Frc consts  --      1.5267                 1.2191                 1.0780
 IR Inten    --      5.6017                 1.3608                14.6737

                     55                     56                     57
                      A                      A                      A
 Frequencies --   1267.4664              1285.5607              1328.2589
 Red. masses --      1.2657                 1.2565                 1.8744
 Frc consts  --      1.1980                 1.2234                 1.9484
 IR Inten    --      3.4489                 8.0633                13.8991

                     58                     59                     60
                      A                      A                      A
 Frequencies --   1330.7710              1339.0492              1371.6177
 Red. masses --      1.3747                 1.4143                 1.4391
 Frc consts  --      1.4343                 1.4941                 1.5952
 IR Inten    --     24.9865                 1.8717                 2.2196

                     61                     62                     63
                      A                      A                      A
 Frequencies --   1379.4931              1382.7154              1403.2063
 Red. masses --      1.3184                 1.5200                 1.4049
 Frc consts  --      1.4782                 1.7122                 1.6298
 IR Inten    --      0.7303                 3.4599                21.7067

                     64                     65                     66
                      A                      A                      A
 Frequencies --   1407.6427              1413.8327              1423.6249
 Red. masses --      1.2923                 1.3567                 1.6745
 Frc consts  --      1.5087                 1.5979                 1.9995
 IR Inten    --     16.8210                11.3080                40.3932

                     67                     68                     69
                      A                      A                      A
 Frequencies --   1427.3973              1429.6433              1437.8091
 Red. masses --      1.5262                 1.3165                 1.4839
 Frc consts  --      1.8321                 1.5854                 1.8074
 IR Inten    --      7.0264                 1.4502                21.4426

                     70                     71                     72
                      A                      A                      A
 Frequencies --   1445.2906              1482.1659              1495.8658
 Red. masses --      1.6510                 1.1926                 1.0796
 Frc consts  --      2.0320                 1.5437                 1.4233
 IR Inten    --      1.4147                 0.7720                 0.8407

                     73                     74                     75
                      A                      A                      A
 Frequencies --   1496.3060              1501.3329              1504.8009
 Red. masses --      1.0831                 1.0875                 1.0979
 Frc consts  --      1.4287                 1.4442                 1.4647
 IR Inten    --      3.9514                 2.5510                 5.7884

                     76                     77                     78
                      A                      A                      A
 Frequencies --   1510.6507              1512.5410              1514.4353
 Red. masses --      1.1011                 1.1171                 1.0532
 Frc consts  --      1.4805                 1.5058                 1.4232
 IR Inten    --      5.3816                 9.4904                18.4802

                     79                     80                     81
                      A                      A                      A
 Frequencies --   1520.1209              1534.8357              1537.7967
 Red. masses --      1.0893                 1.0558                 1.1050
 Frc consts  --      1.4831                 1.4654                 1.5396
 IR Inten    --      1.9205                 3.0475                 6.2280

                     82                     83                     84
                      A                      A                      A
 Frequencies --   1669.0388              1729.4517              2912.7322
 Red. masses --      7.0667                 5.5030                 1.0692
 Frc consts  --     11.5984                 9.6976                 5.3444
 IR Inten    --      4.9945                 3.8914                29.6248

                     85                     86                     87
                      A                      A                      A
 Frequencies --   2925.1774              2978.7580              2984.3013
 Red. masses --      1.0647                 1.0708                 1.0706
 Frc consts  --      5.3679                 5.5977                 5.6177
 IR Inten    --    113.5206                43.5734                35.3469

                     88                     89                     90
                      A                      A                      A
 Frequencies --   2993.8792              2995.5511              3006.6075
 Red. masses --      1.0714                 1.0699                 1.0692
 Frc consts  --      5.6580                 5.6567                 5.6947
 IR Inten    --      8.7099                74.5233                32.0164

                     91                     92                     93
                      A                      A                      A
 Frequencies --   3010.8392              3028.4839              3061.6415
 Red. masses --      1.0686                 1.0675                 1.0876
 Frc consts  --      5.7073                 5.7684                 6.0065
 IR Inten    --    103.8620                95.2495                59.5006

                     94                     95                     96
                      A                      A                      A
 Frequencies --   3065.5807              3065.6409              3071.4840
 Red. masses --      1.0908                 1.0919                 1.0875
 Frc consts  --      6.0397                 6.0459                 6.0448
 IR Inten    --     10.7874                34.7017                41.6972

                     97                     98                     99
                      A                      A                      A
 Frequencies --   3072.6470              3075.8793              3084.8828
 Red. masses --      1.0733                 1.0891                 1.0932
 Frc consts  --      5.9704                 6.0712                 6.1296
 IR Inten    --     59.8829                34.9774                42.8151

                    100                    101                    102
                      A                      A                      A
 Frequencies --   3092.8981              3115.9549              3117.0156
 Red. masses --      1.0958                 1.0927                 1.1040
 Frc consts  --      6.1759                 6.2509                 6.3199
 IR Inten    --     45.1267                30.0460                32.9680

                    103                    104                    105
                      A                      A                      A
 Frequencies --   3169.3676              3181.9751              3196.5930
 Red. masses --      1.0846                 1.0892                 1.0977
 Frc consts  --      6.4189                 6.4975                 6.6084
 IR Inten    --      5.6583                33.3447                36.1985

 - Thermochemistry -
 -------------------
 Temperature   298.150 Kelvin.  Pressure   1.00000 Atm.
 Atom     1 has atomic number  6 and mass  12.00000

 Molecular mass:   206.17830 amu.
 Principal axes and moments of inertia in atomic units:
                           1         2         3
     Eigenvalues --  2100.654533970.636474828.54532
           X            0.99999   0.00015   0.00478
           Y           -0.00012   0.99998  -0.00609
           Z           -0.00478   0.00609   0.99997
 This molecule is an asymmetric top.
 Rotational symmetry number  1.
 Warning -- assumption of classical behavior for rotation
           may cause significant error
 Rotational temperatures (Kelvin)      0.04123     0.02181     0.01794
 Rotational constants (GHZ):           0.85913     0.45452     0.37376
 Zero-point vibrational energy     885370.3 (Joules/Mol)
                                  211.60857 (Kcal/Mol)
 Warning -- explicit consideration of  23 degrees of freedom as
           vibrations may cause significant error
 Vibrational temperatures:     28.98    63.04    97.06   120.21   216.15
          (Kelvin)            237.92   284.65   312.06   348.36   389.13
                              419.89   490.70   518.73   556.14   575.14
                              607.57   644.33   689.53   704.27   729.27
                              749.87   790.92   881.82  1009.13  1065.49
                             1085.71  1114.46  1138.38  1230.87  1254.69
                             1278.86  1316.39  1336.04  1378.45  1404.54
                             1420.10  1444.47  1458.31  1495.85  1514.18
                             1526.65  1561.73  1572.10  1577.59  1579.57
                             1661.54  1675.18  1700.85  1704.27  1724.65
                             1727.73  1745.41  1769.87  1797.53  1823.60
                             1849.64  1911.07  1914.68  1926.59  1973.45
                             1984.78  1989.42  2018.90  2025.28  2034.19
                             2048.28  2053.71  2056.94  2068.69  2079.45
                             2132.51  2152.22  2152.85  2160.08  2165.07
                             2173.49  2176.21  2178.93  2187.11  2208.29
                             2212.55  2401.37  2488.30  4190.77  4208.68
                             4285.77  4293.74  4307.52  4309.93  4325.84
                             4331.93  4357.31  4405.02  4410.69  4410.77
                             4419.18  4420.85  4425.50  4438.46  4449.99
                             4483.16  4484.69  4560.01  4578.15  4599.18

 Zero-point correction=                           0.337220 (Hartree/Particle)
 Thermal correction to Energy=                    0.351738
 Thermal correction to Enthalpy=                  0.352682
 Thermal correction to Gibbs Free Energy=         0.295090
 Sum of electronic and zero-point Energies=           -617.810208
 Sum of electronic and thermal Energies=              -617.795690
 Sum of electronic and thermal Enthalpies=            -617.794746
 Sum of electronic and thermal Free Energies=         -617.852337

                     E (Thermal)             CV                S
                      KCal/Mol        Cal/Mol-Kelvin    Cal/Mol-Kelvin
 Total                  220.719             57.436            121.212
 Electronic               0.000              0.000              0.000
 Translational            0.889              2.981             41.875
 Rotational               0.889              2.981             32.066
 Vibrational            218.941             51.474             47.272
 Vibration     1          0.593              1.986              6.620
 Vibration     2          0.595              1.980              5.079
 Vibration     3          0.598              1.970              4.226
 Vibration     4          0.600              1.961              3.806
 Vibration     5          0.618              1.902              2.669
 Vibration     6          0.624              1.885              2.488
 Vibration     7          0.637              1.843              2.153
 Vibration     8          0.646              1.815              1.985
 Vibration     9          0.658              1.776              1.787
 Vibration    10          0.674              1.728              1.593
 Vibration    11          0.687              1.689              1.463
 Vibration    12          0.721              1.593              1.207
 Vibration    13          0.735              1.554              1.120
 Vibration    14          0.755              1.499              1.013
 Vibration    15          0.766              1.471              0.964
 Vibration    16          0.785              1.422              0.884
 Vibration    17          0.807              1.366              0.802
 Vibration    18          0.836              1.296              0.712
 Vibration    19          0.845              1.273              0.685
 Vibration    20          0.862              1.235              0.641
 Vibration    21          0.876              1.203              0.607
 Vibration    22          0.905              1.140              0.545
 Vibration    23          0.972              1.005              0.428

 Optimization completed.
    -- Stationary point found.
 Normal termination of Gaussian 16 at Thu Dec 10 15:05:59 2020.

 ----------------------------------------------------------------------
 # B3LYP/6-311++G(d,p) empiricaldispersion=gd3bj scf=xqc pop=npa geom=c
 heck
 ----------------------------------------------------------------------

 ---------------------------------------
 CID_144962828_JID_5123_Energie_neutraal
 ---------------------------------------
 Structure from the checkpoint file:  "JID_5123.chk"
 Charge =  0 Multiplicity = 1

 SCF Done:  E(RB3LYP) =  -618.312409959     A.U. after   14 cycles
 Normal termination of Gaussian 16 at Thu Dec 10 15:11:34 2020.

 ----------------------------------------------------------------------
 # B3LYP/6-311++G(d,p) empiricaldispersion=gd3bj scf=xqc pop=npa geom=c
 heck
 ----------------------------------------------------------------------

 -------------------------------------
 CID_144962828_JID_5123_Energie_kation
 -------------------------------------
 Structure from the checkpoint file:  "JID_5123.chk"
 Charge =  1 Multiplicity = 2

 SCF Done:  E(UB3LYP) =  -618.053340342     A.U. after   24 cycles
 Normal termination of Gaussian 16 at Thu Dec 10 15:24:38 2020.
 Gaussian 16:  ES64L-G16RevA.03 25-Dec-2016

 ----------------------------------------------------------------------
 # B3LYP/6-311++G(d,p) empiricaldispersion=gd3bj scf=xqc pop=npa geom=c
 heck
 ----------------------------------------------------------------------

 ------------------------------------
 CID_144962828_JID_5123_Energie_anion
 ------------------------------------
 Structure from the checkpoint file:  "JID_5123.chk"
 Charge = -1 Multiplicity = 2

                         Standard orientation:
 ---------------------------------------------------------------------
 Center     Atomic      Atomic             Coordinates (Angstroms)
 Number     Number       Type             X           Y           Z
 ---------------------------------------------------------------------
      1          6           0       -2.038721    2.740298   -0.101051
      2          7           0       -2.220000    1.352650    0.283797
      3          6           0       -1.103891    0.878740    1.103347
      4          6           0       -1.348921   -0.566242    1.552681
      5          7           0       -1.650009   -1.480819    0.461986
      6          6           0       -2.665720   -0.950049   -0.431660
      7          6           0       -2.401121    0.493271   -0.882330
      8          6           0       -0.608220   -2.316068   -0.102707
      9          6           0        0.404052   -1.702818   -1.102005
     10          6           0        1.469377   -0.789609   -0.540437
     11          6           0        2.102019   -1.006569    0.628767
     12          6           0        3.197537   -0.147846    1.081849
     13          6           0        3.450411    1.029764    0.489502
     14          6           0        2.572781    1.510221   -0.639603
     15          6           0        1.958155    0.341938   -1.426000
     16          1           0       -1.954307    3.364395    0.795413
     17          1           0       -1.131260    2.904037   -0.717636
     18          1           0       -2.905565    3.081782   -0.677808
     19          1           0       -0.147310    0.941347    0.555063
     20          1           0       -1.021838    1.526800    1.985050
     21          1           0       -2.206953   -0.558541    2.242430
     22          1           0       -0.478717   -0.935995    2.102046
     23          1           0       -3.633042   -0.957113    0.093361
     24          1           0       -2.756430   -1.606997   -1.303702
     25          1           0       -3.260239    0.862486   -1.456797
     26          1           0       -1.517571    0.530984   -1.552322
     27          1           0       -0.065599   -2.776225    0.731271
     28          1           0       -1.110064   -3.141459   -0.626403
     29          1           0        0.899478   -2.540944   -1.619248
     30          1           0       -0.154305   -1.174428   -1.883611
     31          1           0        1.828636   -1.850017    1.257739
     32          1           0        3.791069   -0.480242    1.930299
     33          1           0        4.240734    1.681368    0.853887
     34          1           0        3.130911    2.162471   -1.321143
     35          1           0        1.767021    2.133311   -0.216404
     36          1           0        1.138799    0.711062   -2.054250
     37          1           0        2.710186   -0.071085   -2.119832
 ---------------------------------------------------------------------

 SCF Done:  E(UB3LYP) =  -618.299008232     A.U. after   33 cycles
 SCF Done:  E(UB3LYP) =  -618.299008232     a.u. after    1 cycles

 The electronic state is 2-A.
 Alpha  occ. eigenvalues --  -14.20456 -14.19194 -10.09032 -10.08991 -10.08859
 Alpha  occ. eigenvalues --  -10.08687 -10.08437 -10.08155 -10.05656 -10.05510
 Alpha  occ. eigenvalues --  -10.05220 -10.04684 -10.04568 -10.04116 -10.03492
 Alpha  occ. eigenvalues --   -0.84228  -0.80077  -0.72334  -0.66480  -0.65903
 Alpha  occ. eigenvalues --   -0.62892  -0.62273  -0.59266  -0.54365  -0.54148
 Alpha  occ. eigenvalues --   -0.50758  -0.49827  -0.45558  -0.44304  -0.39197
 Alpha  occ. eigenvalues --   -0.38621  -0.37072  -0.36569  -0.36239  -0.35392
 Alpha  occ. eigenvalues --   -0.34976  -0.33056  -0.32666  -0.30986  -0.30238
 Alpha  occ. eigenvalues --   -0.29842  -0.29537  -0.28185  -0.27532  -0.27123
 Alpha  occ. eigenvalues --   -0.25562  -0.25429  -0.24884  -0.24147  -0.23702
 Alpha  occ. eigenvalues --   -0.22815  -0.21033  -0.19679  -0.18625  -0.12491
 Alpha  occ. eigenvalues --   -0.09560  -0.08916   0.04796
 Alpha virt. eigenvalues --    0.06488   0.07149   0.07880   0.08028   0.08771
 Alpha virt. eigenvalues --    0.09035   0.09483   0.09858   0.10413   0.11115
 Alpha virt. eigenvalues --    0.11498   0.12039   0.12446   0.12681   0.12833

  Beta  occ. eigenvalues --  -14.20450 -14.19192 -10.09019 -10.08980 -10.08848
  Beta  occ. eigenvalues --  -10.08683 -10.08408 -10.08148 -10.05654 -10.05514
  Beta  occ. eigenvalues --  -10.05223 -10.04565 -10.04507 -10.03942 -10.03441
  Beta  occ. eigenvalues --   -0.84215  -0.80064  -0.72127  -0.66345  -0.65887
  Beta  occ. eigenvalues --   -0.62765  -0.62175  -0.59152  -0.54313  -0.54104
  Beta  occ. eigenvalues --   -0.50674  -0.49761  -0.45377  -0.44189  -0.39158
  Beta  occ. eigenvalues --   -0.38539  -0.36954  -0.36546  -0.36210  -0.35296
  Beta  occ. eigenvalues --   -0.34924  -0.32912  -0.32603  -0.30921  -0.30170
  Beta  occ. eigenvalues --   -0.29764  -0.29463  -0.28132  -0.27482  -0.27073
  Beta  occ. eigenvalues --   -0.25498  -0.25340  -0.24800  -0.24111  -0.23665
  Beta  occ. eigenvalues --   -0.22768  -0.20936  -0.19575  -0.18114  -0.12430
  Beta  occ. eigenvalues --   -0.09437  -0.08240
  Beta virt. eigenvalues --    0.06710   0.07618   0.07702   0.08169   0.08640
  Beta virt. eigenvalues --    0.09292   0.09299   0.09830   0.10091   0.10656
  Beta virt. eigenvalues --    0.11280   0.11638   0.12348   0.12681   0.12830

 Mulliken charges and spin densities:
               1          2
     1  C    0.016094  -0.239321
     2  N   -0.007116   0.039599
     3  C   -0.551579   0.334459
     4  C   -0.146751  -0.286735
     5  N    0.051928   0.110779
     6  C    0.097257  -0.613736
     7  C   -0.214568   0.037028
     8  C   -0.036593  -0.438863
     9  C    0.870969  -1.178109
    10  C    0.187522   0.747561
    11  C   -0.295640   0.148082
    12  C    0.062392  -0.518726
    13  C    0.072176  -0.191393
    14  C   -0.070620  -0.368193
    15  C   -0.879458   0.305798
    16  H   -0.054201   0.174882
    17  H    0.086908   0.021393
    18  H   -0.164756   0.286993
    19  H    0.949579  -0.831840
    20  H    0.013166   0.156722
    21  H    0.064114   0.075105
    22  H    0.125670  -0.000691
    23  H    0.103268   0.039474
    24  H   -0.191602   0.347741
    25  H   -0.222853   0.379653
    26  H    0.253047  -0.177902
    27  H    0.002063   0.141581
    28  H   -0.458660   0.628580
    29  H   -0.376199   0.555484
    30  H    0.185982  -0.078898
    31  H   -0.113629   0.208135
    32  H   -0.001479   0.136286
    33  H   -0.013786   0.152562
    34  H   -0.229877   0.395367
    35  H   -0.087426   0.202319
    36  H    0.006826   0.104591
    37  H   -0.032169   0.194232
 Sum of Mulliken charges =  -1.00000   1.00000

 Dipole moment (field-independent basis, Debye):
    X=             -1.6548    Y=              2.3789    Z=              2.0184  Tot=              3.5315
 Quadrupole moment (field-independent basis, Debye-Ang):
   XX=           -155.9084   YY=           -146.3736   ZZ=           -122.4486
   XY=              0.8335   XZ=              0.8684   YZ=             -5.0585

 Summary of Natural Population Analysis:

                                       Natural Population
                Natural  -----------------------------------------------
    Atom  No    Charge         Core      Valence    Rydberg      Total
 -----------------------------------------------------------------------
      C    1   -0.17485      0.99965     2.16674    0.00845     3.17485
      N    2   -0.28141      0.99972     2.76916    0.01253     3.78141
      C    3   -0.09771      0.99961     2.08775    0.01035     3.09771
      C    4   -0.08344      0.99961     2.07304    0.01079     3.08344
      N    5   -0.28258      0.99972     2.76951    0.01335     3.78258
      C    6   -0.08579      0.99961     2.07414    0.01204     3.08579
      C    7   -0.09401      0.99961     2.08297    0.01142     3.09401
      C    8   -0.07203      0.99960     2.05918    0.01325     3.07203
      C    9   -0.21435      0.99958     2.20486    0.00991     3.21435
      C   10    0.03340      0.99949     1.95558    0.01152     2.96660
      C   11   -0.12443      0.99944     2.11507    0.00991     3.12443
      C   12   -0.11552      0.99952     2.10590    0.01010     3.11552
      C   13   -0.06046      0.99954     2.05116    0.00976     3.06046
      C   14   -0.20661      0.99963     2.19825    0.00873     3.20661
      C   15   -0.19925      0.99959     2.19120    0.00846     3.19925
      H   16    0.09324      0.00000     0.40561    0.00114     0.40676
      H   17    0.08061      0.00000     0.41802    0.00137     0.41939
      H   18    0.09325      0.00000     0.40556    0.00119     0.40675
      H   19    0.09116      0.00000     0.40645    0.00238     0.40884
      H   20    0.09205      0.00000     0.40683    0.00112     0.40795
      H   21    0.08727      0.00000     0.41134    0.00139     0.41273
      H   22    0.10123      0.00000     0.39785    0.00092     0.39877
      H   23    0.09009      0.00000     0.40829    0.00161     0.40991
      H   24    0.09789      0.00000     0.40119    0.00092     0.40211
      H   25    0.09346      0.00000     0.40491    0.00163     0.40654
      H   26    0.07926      0.00000     0.41877    0.00196     0.42074
      H   27    0.09314      0.00000     0.40564    0.00122     0.40686
      H   28    0.09327      0.00000     0.40531    0.00142     0.40673
      H   29    0.10792      0.00000     0.38889    0.00318     0.39208
      H   30    0.09414      0.00000     0.40405    0.00181     0.40586
      H   31    0.09363      0.00000     0.40472    0.00165     0.40637
      H   32    0.09344      0.00000     0.40572    0.00084     0.40656
      H   33    0.08930      0.00000     0.40986    0.00085     0.41070
      H   34    0.09954      0.00000     0.39892    0.00154     0.40046
      H   35    0.09742      0.00000     0.40078    0.00180     0.40258
      H   36    0.09710      0.00000     0.40145    0.00144     0.40290
      H   37    0.10059      0.00000     0.39791    0.00150     0.39941
 =======================================================================
   * Total *    0.00000     14.99391    41.81262    0.19347    57.00000

 Normal termination of Gaussian 16 at Thu Dec 10 15:43:12 2020.
