 Gaussian 16, Revision A.03,

 -----------------------------------------------------------
 # opt freq B3LYP/6-31G(d) empiricaldispersion=gd3bj scf=xqc
 -----------------------------------------------------------

 -------------------------------
 CID_139607425_JID_2900_neutraal
 -------------------------------
 Symbolic Z-matrix:
 Charge =  0 Multiplicity = 1

 SCF Done:  E(RB3LYP) =  -555.956875777     A.U. after   15 cycles
 SCF Done:  E(RB3LYP) =  -555.959881246     A.U. after   12 cycles
 SCF Done:  E(RB3LYP) =  -555.960261827     A.U. after   12 cycles
 SCF Done:  E(RB3LYP) =  -555.960381020     A.U. after   12 cycles
 SCF Done:  E(RB3LYP) =  -555.960415334     A.U. after   12 cycles
 SCF Done:  E(RB3LYP) =  -555.960426394     A.U. after   11 cycles
 SCF Done:  E(RB3LYP) =  -555.960430040     A.U. after   10 cycles
 SCF Done:  E(RB3LYP) =  -555.960431416     A.U. after    9 cycles
 SCF Done:  E(RB3LYP) =  -555.960431755     A.U. after    8 cycles
 Optimization completed.
    -- Stationary point found.
 Normal termination of Gaussian 16 at Wed Dec  9 17:58:34 2020.

 --------------------------------------------------------------------
 #N Geom=AllCheck Guess=TCheck SCRF=Check GenChk RB3LYP/6-31G(d) Freq
 --------------------------------------------------------------------

 Structure from the checkpoint file:  "JID_2900.chk"
 -------------------------------
 CID_139607425_JID_2900_neutraal
 -------------------------------
 Charge =  0 Multiplicity = 1

 SCF Done:  E(RB3LYP) =  -555.960431755     A.U. after    1 cycles

  Exact polarizability: 158.065  -0.004 104.840  -9.703  -0.002  66.751
 Approx polarizability: 259.080  -0.022 169.202 -31.491   0.003 103.949

                      1                      2                      3
                      A                      A                      A
 Frequencies --     31.1343                78.0064                83.1534
 Red. masses --      3.1213                 5.5259                 3.9201
 Frc consts  --      0.0018                 0.0198                 0.0160
 IR Inten    --      0.0260                 2.0949                 0.0603

                      4                      5                      6
                      A                      A                      A
 Frequencies --    192.6377               220.8915               272.9822
 Red. masses --      5.5861                 1.0168                 1.2328
 Frc consts  --      0.1221                 0.0292                 0.0541
 IR Inten    --      4.6894                 0.0175                 0.5410

                      7                      8                      9
                      A                      A                      A
 Frequencies --    283.5904               292.0701               297.0480
 Red. masses --      2.0038                 1.2240                 2.1641
 Frc consts  --      0.0949                 0.0615                 0.1125
 IR Inten    --      0.0814                 0.6134                 0.5400

                     10                     11                     12
                      A                      A                      A
 Frequencies --    352.3108               378.1969               400.0413
 Red. masses --      3.8940                 3.1238                 2.7548
 Frc consts  --      0.2848                 0.2633                 0.2597
 IR Inten    --      4.2496                 4.6129                 0.0770

                     13                     14                     15
                      A                      A                      A
 Frequencies --    437.7038               460.5183               460.7292
 Red. masses --      3.2346                 3.7452                 2.7062
 Frc consts  --      0.3651                 0.4680                 0.3385
 IR Inten    --      0.0183                11.8262                 1.7197

                     16                     17                     18
                      A                      A                      A
 Frequencies --    507.6261               522.4187               585.7771
 Red. masses --      4.9785                 3.3305                 3.1420
 Frc consts  --      0.7558                 0.5355                 0.6352
 IR Inten    --      0.1255                 8.9317                 4.8535

                     19                     20                     21
                      A                      A                      A
 Frequencies --    679.0855               700.9214               751.4668
 Red. masses --      6.9794                 4.4755                 4.4058
 Frc consts  --      1.8963                 1.2955                 1.4659
 IR Inten    --      0.8172                 2.5357                 2.0040

                     22                     23                     24
                      A                      A                      A
 Frequencies --    811.7993               819.5238               856.2609
 Red. masses --      3.3649                 1.2496                 2.1674
 Frc consts  --      1.3065                 0.4945                 0.9363
 IR Inten    --     20.2616                 0.0013                45.1955

                     25                     26                     27
                      A                      A                      A
 Frequencies --    877.0577               917.9777               927.8601
 Red. masses --      3.5231                 3.2106                 1.6451
 Frc consts  --      1.5967                 1.5940                 0.8344
 IR Inten    --     33.7162                90.9941                 0.0002

                     28                     29                     30
                      A                      A                      A
 Frequencies --    939.3557               946.7353               949.0146
 Red. masses --      1.5081                 1.2949                 1.6566
 Frc consts  --      0.7841                 0.6838                 0.8791
 IR Inten    --      1.6116                 0.0183                38.8812

                     31                     32                     33
                      A                      A                      A
 Frequencies --    977.2546              1047.4245              1057.8616
 Red. masses --      1.2011                 2.4470                 1.4160
 Frc consts  --      0.6759                 1.5817                 0.9336
 IR Inten    --      0.0008                10.3094                 1.4722

                     34                     35                     36
                      A                      A                      A
 Frequencies --   1066.5622              1111.2740              1193.5250
 Red. masses --      1.4109                 1.3857                 1.1515
 Frc consts  --      0.9457                 1.0082                 0.9665
 IR Inten    --      1.8617                 8.2703                 5.9108

                     37                     38                     39
                      A                      A                      A
 Frequencies --   1216.6584              1259.6417              1278.7351
 Red. masses --      2.2965                 5.1781                 2.6622
 Frc consts  --      2.0029                 4.8408                 2.5648
 IR Inten    --    265.5265                 5.7001                13.7295

                     40                     41                     42
                      A                      A                      A
 Frequencies --   1293.0171              1301.1448              1326.0942
 Red. masses --      3.2036                 2.8315                 1.3323
 Frc consts  --      3.1557                 2.8243                 1.3804
 IR Inten    --    100.3674                23.1304                 0.9308

                     43                     44                     45
                      A                      A                      A
 Frequencies --   1368.5514              1426.9567              1428.7402
 Red. masses --      8.5178                 1.2822                 1.3000
 Frc consts  --      9.3994                 1.5383                 1.5635
 IR Inten    --    100.5512                15.7704                13.9201

                     46                     47                     48
                      A                      A                      A
 Frequencies --   1453.5950              1497.3555              1502.7883
 Red. masses --      1.2329                 3.2975                 1.0482
 Frc consts  --      1.5348                 4.3560                 1.3948
 IR Inten    --     12.7461                 0.1583                 0.2093

                     49                     50                     51
                      A                      A                      A
 Frequencies --   1516.8896              1517.4045              1527.8744
 Red. masses --      1.0547                 1.0492                 2.0448
 Frc consts  --      1.4298                 1.4234                 2.8124
 IR Inten    --      2.5122                 0.4110               241.8711

                     52                     53                     54
                      A                      A                      A
 Frequencies --   1528.5766              1531.4998              1550.2730
 Red. masses --      1.0628                 1.1836                 1.0728
 Frc consts  --      1.4631                 1.6357                 1.5191
 IR Inten    --      0.7990                49.7842                24.9661

                     55                     56                     57
                      A                      A                      A
 Frequencies --   1574.1735              1687.7018              3055.9122
 Red. masses --      7.5129                 5.8682                 1.0346
 Frc consts  --     10.9690                 9.8479                 5.6927
 IR Inten    --      0.3454                 1.7260                16.4924

                     58                     59                     60
                      A                      A                      A
 Frequencies --   3058.3750              3065.7794              3125.9477
 Red. masses --      1.0347                 1.0355                 1.1025
 Frc consts  --      5.7021                 5.7345                 6.3471
 IR Inten    --     13.0186                 9.7241                 1.3762

                     61                     62                     63
                      A                      A                      A
 Frequencies --   3129.2078              3132.6160              3135.7976
 Red. masses --      1.1026                 1.1038                 1.1023
 Frc consts  --      6.3614                 6.3821                 6.3863
 IR Inten    --     13.0745                 4.3465                43.9104

                     64                     65                     66
                      A                      A                      A
 Frequencies --   3139.5424              3139.7258              3231.9633
 Red. masses --      1.1025                 1.1031                 1.0906
 Frc consts  --      6.4029                 6.4070                 6.7122
 IR Inten    --     49.7888                28.1331                 4.3517

                     67                     68                     69
                      A                      A                      A
 Frequencies --   3232.6255              3270.9346              3272.2430
 Red. masses --      1.0911                 1.0937                 1.0950
 Frc consts  --      6.7179                 6.8944                 6.9078
 IR Inten    --      2.5811                 0.0034                 0.1556

 - Thermochemistry -
 -------------------
 Temperature   298.150 Kelvin.  Pressure   1.00000 Atm.
 Atom     1 has atomic number  6 and mass  12.00000

 Molecular mass:   167.09463 amu.
 Principal axes and moments of inertia in atomic units:
                           1         2         3
     Eigenvalues --   743.215423608.432993873.87470
           X            0.99998   0.00001   0.00690
           Y           -0.00001   1.00000  -0.00007
           Z           -0.00690   0.00007   0.99998
 This molecule is an asymmetric top.
 Rotational symmetry number  1.
 Warning -- assumption of classical behavior for rotation
           may cause significant error
 Rotational temperatures (Kelvin)      0.11654     0.02400     0.02236
 Rotational constants (GHZ):           2.42829     0.50015     0.46587
 Zero-point vibrational energy     551874.1 (Joules/Mol)
                                  131.90107 (Kcal/Mol)
 Warning -- explicit consideration of  18 degrees of freedom as
           vibrations may cause significant error
 Vibrational temperatures:     44.80   112.23   119.64   277.16   317.81
          (Kelvin)            392.76   408.02   420.22   427.39   506.90
                              544.14   575.57   629.76   662.58   662.89
                              730.36   751.64   842.80   977.05  1008.47
                             1081.19  1168.00  1179.11  1231.97  1261.89
                             1320.77  1334.98  1351.52  1362.14  1365.42
                             1406.05  1507.01  1522.03  1534.55  1598.88
                             1717.22  1750.50  1812.34  1839.81  1860.36
                             1872.06  1907.95  1969.04  2053.07  2055.64
                             2091.40  2154.36  2162.18  2182.47  2183.21
                             2198.27  2199.28  2203.49  2230.50  2264.88
                             2428.23  4396.78  4400.32  4410.97  4497.54
                             4502.23  4507.14  4511.71  4517.10  4517.37
                             4650.07  4651.03  4706.15  4708.03

 Zero-point correction=                           0.210198 (Hartree/Particle)
 Thermal correction to Energy=                    0.221826
 Thermal correction to Enthalpy=                  0.222770
 Thermal correction to Gibbs Free Energy=         0.172483
 Sum of electronic and zero-point Energies=           -555.750234
 Sum of electronic and thermal Energies=              -555.738606
 Sum of electronic and thermal Enthalpies=            -555.737662
 Sum of electronic and thermal Free Energies=         -555.787949

                     E (Thermal)             CV                S
                      KCal/Mol        Cal/Mol-Kelvin    Cal/Mol-Kelvin
 Total                  139.198             45.326            105.839
 Electronic               0.000              0.000              0.000
 Translational            0.889              2.981             41.248
 Rotational               0.889              2.981             30.719
 Vibrational            137.420             39.365             33.871
 Vibration     1          0.594              1.983              5.756
 Vibration     2          0.599              1.964              3.940
 Vibration     3          0.600              1.961              3.815
 Vibration     4          0.635              1.850              2.202
 Vibration     5          0.648              1.809              1.952
 Vibration     6          0.676              1.723              1.577
 Vibration     7          0.682              1.704              1.512
 Vibration     8          0.687              1.689              1.462
 Vibration     9          0.691              1.679              1.433
 Vibration    10          0.729              1.571              1.156
 Vibration    11          0.748              1.517              1.046
 Vibration    12          0.766              1.470              0.962
 Vibration    13          0.798              1.388              0.834
 Vibration    14          0.818              1.338              0.765
 Vibration    15          0.819              1.337              0.764
 Vibration    16          0.863              1.233              0.639
 Vibration    17          0.877              1.200              0.604
 Vibration    18          0.943              1.062              0.475

                           ! Non-Optimized Parameters !
 Normal termination of Gaussian 16 at Wed Dec  9 18:04:54 2020.

 ----------------------------------------------------------------------
 # B3LYP/6-311++G(d,p) empiricaldispersion=gd3bj scf=xqc pop=npa geom=c
 heck
 ----------------------------------------------------------------------

 ---------------------------------------
 CID_139607425_JID_2900_Energie_neutraal
 ---------------------------------------
 Structure from the checkpoint file:  "JID_2900.chk"
 Charge =  0 Multiplicity = 1

 SCF Done:  E(RB3LYP) =  -556.118305986     A.U. after   15 cycles
 Normal termination of Gaussian 16 at Wed Dec  9 18:07:42 2020.

 ----------------------------------------------------------------------
 # B3LYP/6-311++G(d,p) empiricaldispersion=gd3bj scf=xqc pop=npa geom=c
 heck
 ----------------------------------------------------------------------

 -------------------------------------
 CID_139607425_JID_2900_Energie_kation
 -------------------------------------
 Structure from the checkpoint file:  "JID_2900.chk"
 Charge =  1 Multiplicity = 2

 SCF Done:  E(UB3LYP) =  -555.829991079     A.U. after   20 cycles
 Normal termination of Gaussian 16 at Wed Dec  9 18:12:44 2020.
 Gaussian 16:  ES64L-G16RevA.03 25-Dec-2016

 ----------------------------------------------------------------------
 # B3LYP/6-311++G(d,p) empiricaldispersion=gd3bj scf=xqc pop=npa geom=c
 heck
 ----------------------------------------------------------------------

 ------------------------------------
 CID_139607425_JID_2900_Energie_anion
 ------------------------------------
 Structure from the checkpoint file:  "JID_2900.chk"
 Charge = -1 Multiplicity = 2

                         Standard orientation:
 ---------------------------------------------------------------------
 Center     Atomic      Atomic             Coordinates (Angstroms)
 Number     Number       Type             X           Y           Z
 ---------------------------------------------------------------------
      1          6           0        3.549080    0.000892   -0.691839
      2          6           0        2.258306    0.000117    0.122804
      3          6           0        2.151665   -1.260845    0.982888
      4          6           0        2.150009    1.261159    0.982415
      5          8           0        1.217514   -0.001213   -0.911138
      6          6           0       -0.096516   -0.000602   -0.532650
      7          6           0       -0.807294    1.194950   -0.379740
      8          6           0       -2.153047    1.177491   -0.067764
      9          7           0       -2.839100    0.000229    0.099930
     10          6           0       -2.153701   -1.177480   -0.067494
     11          6           0       -0.807966   -1.195744   -0.379419
     12          8           0       -4.081980    0.000595    0.394692
     13          1           0        4.420051    0.001281   -0.028714
     14          1           0        3.594085    0.888141   -1.330674
     15          1           0        3.594972   -0.886243   -1.330766
     16          1           0        2.977078   -1.294619    1.701710
     17          1           0        1.214196   -1.282026    1.547098
     18          1           0        2.204115   -2.157934    0.357462
     19          1           0        2.200845    2.158250    0.356830
     20          1           0        1.212910    1.281229    1.547266
     21          1           0        2.975885    1.296297    1.700645
     22          1           0       -0.306591    2.146362   -0.517071
     23          1           0       -2.766241    2.058245    0.064507
     24          1           0       -2.767408   -2.057840    0.065034
     25          1           0       -0.307693   -2.147424   -0.516477
 ---------------------------------------------------------------------

 SCF Done:  E(UB3LYP) =  -556.113386838     A.U. after   33 cycles
 SCF Done:  E(UB3LYP) =  -556.113386838     a.u. after    2 cycles

 The electronic state is 2-A.
 Alpha  occ. eigenvalues --  -19.01729 -18.94716 -14.29753 -10.12771 -10.09567
 Alpha  occ. eigenvalues --  -10.08550 -10.08550 -10.06457 -10.06456 -10.05701
 Alpha  occ. eigenvalues --  -10.05408 -10.05407  -0.96565  -0.93335  -0.76269
 Alpha  occ. eigenvalues --   -0.70288  -0.65686  -0.64433  -0.59035  -0.58937
 Alpha  occ. eigenvalues --   -0.53684  -0.51403  -0.46020  -0.39722  -0.39707
 Alpha  occ. eigenvalues --   -0.37608  -0.35927  -0.34635  -0.34473  -0.33596
 Alpha  occ. eigenvalues --   -0.32345  -0.31266  -0.29310  -0.29048  -0.27649
 Alpha  occ. eigenvalues --   -0.27299  -0.26675  -0.26360  -0.24176  -0.23222
 Alpha  occ. eigenvalues --   -0.19099  -0.16419  -0.15607  -0.11564  -0.08570
 Alpha  occ. eigenvalues --    0.04709
 Alpha virt. eigenvalues --    0.06594   0.08603   0.08771   0.08938   0.09392
 Alpha virt. eigenvalues --    0.10502   0.10902   0.11193   0.11806   0.12662
 Alpha virt. eigenvalues --    0.13199   0.13814   0.14793   0.14966   0.15516

  Beta  occ. eigenvalues --  -19.01718 -18.94514 -14.29259 -10.12709 -10.09266
  Beta  occ. eigenvalues --  -10.08535 -10.08534 -10.06475 -10.06474 -10.05683
  Beta  occ. eigenvalues --  -10.05386 -10.05384  -0.95918  -0.93210  -0.75975
  Beta  occ. eigenvalues --   -0.70146  -0.65548  -0.64067  -0.58987  -0.58889
  Beta  occ. eigenvalues --   -0.53589  -0.51027  -0.45855  -0.39619  -0.39539
  Beta  occ. eigenvalues --   -0.37418  -0.35714  -0.34590  -0.34318  -0.32319
  Beta  occ. eigenvalues --   -0.32103  -0.31089  -0.29153  -0.29007  -0.27510
  Beta  occ. eigenvalues --   -0.27202  -0.26650  -0.26125  -0.24122  -0.22940
  Beta  occ. eigenvalues --   -0.18510  -0.16388  -0.15253  -0.11385  -0.07076
  Beta virt. eigenvalues --    0.07220   0.08821   0.08984   0.09001   0.09429
  Beta virt. eigenvalues --    0.09986   0.10629   0.11079   0.11417   0.12104
  Beta virt. eigenvalues --    0.12964   0.13203   0.13989   0.14798   0.15339

 Mulliken charges and spin densities:
               1          2
     1  C    0.003175  -0.393567
     2  C   -1.337153   1.549438
     3  C    0.650943  -1.273966
     4  C    0.650650  -1.273809
     5  O   -0.049566  -0.006042
     6  C   -0.179209  -0.256435
     7  C    0.276330   0.129039
     8  C   -0.375978   0.010673
     9  N   -0.132120   0.107397
    10  C   -0.376671   0.011197
    11  C    0.274257   0.129797
    12  O   -0.234032   0.094388
    13  H   -0.163454   0.311123
    14  H    0.030756   0.114756
    15  H    0.030968   0.114570
    16  H   -0.375807   0.526550
    17  H   -0.028323   0.197928
    18  H    0.045603   0.098999
    19  H    0.045472   0.099063
    20  H   -0.028219   0.197924
    21  H   -0.376161   0.526980
    22  H    0.166327  -0.010157
    23  H    0.157927   0.002118
    24  H    0.157931   0.002095
    25  H    0.166355  -0.010059
 Sum of Mulliken charges =  -1.00000   1.00000

 Dipole moment (field-independent basis, Debye):
    X=              0.8488    Y=             -0.0026    Z=             -3.5339  Tot=              3.6344
 Quadrupole moment (field-independent basis, Debye-Ang):
   XX=           -158.2341   YY=            -86.8733   ZZ=            -99.2259
   XY=             -0.0021   XZ=             -6.4418   YZ=             -0.0073

 Summary of Natural Population Analysis:

                                       Natural Population
                Natural  -----------------------------------------------
    Atom  No    Charge         Core      Valence    Rydberg      Total
 -----------------------------------------------------------------------
      C    1   -0.28870      0.99960     2.28169    0.00741     3.28870
      C    2    0.13853      0.99953     1.84754    0.01440     2.86147
      C    3   -0.30186      0.99960     2.29513    0.00713     3.30186
      C    4   -0.30189      0.99960     2.29516    0.00713     3.30189
      O    5   -0.30551      0.99985     3.29622    0.00944     4.30551
      C    6    0.18272      0.99936     1.80374    0.01418     2.81728
      C    7   -0.13198      0.99952     2.12364    0.00882     3.13198
      C    8   -0.00118      0.99957     1.98998    0.01162     3.00118
      N    9    0.08366      0.99959     2.40148    0.01527     3.41634
      C   10   -0.00119      0.99957     1.98999    0.01162     3.00119
      C   11   -0.13196      0.99952     2.12362    0.00882     3.13196
      O   12   -0.28353      0.99992     3.27534    0.00827     4.28353
      H   13    0.10233      0.00000     0.39649    0.00118     0.39767
      H   14    0.10084      0.00000     0.39829    0.00087     0.39916
      H   15    0.10085      0.00000     0.39828    0.00087     0.39915
      H   16    0.10559      0.00000     0.39283    0.00158     0.39441
      H   17    0.10666      0.00000     0.39212    0.00122     0.39334
      H   18    0.09935      0.00000     0.39975    0.00090     0.40065
      H   19    0.09935      0.00000     0.39975    0.00090     0.40065
      H   20    0.10668      0.00000     0.39210    0.00122     0.39332
      H   21    0.10561      0.00000     0.39281    0.00158     0.39439
      H   22    0.10586      0.00000     0.39332    0.00082     0.39414
      H   23    0.10196      0.00000     0.39704    0.00100     0.39804
      H   24    0.10196      0.00000     0.39704    0.00100     0.39804
      H   25    0.10586      0.00000     0.39332    0.00082     0.39414
 =======================================================================
   * Total *    0.00000     11.99526    32.86668    0.13806    45.00000

 Normal termination of Gaussian 16 at Wed Dec  9 18:26:54 2020.
