 Gaussian 16, Revision A.03,

 -----------------------------------------------------------
 # opt freq B3LYP/6-31G(d) empiricaldispersion=gd3bj scf=xqc
 -----------------------------------------------------------

 ------------------------------
 CID_58870353_JID_5525_neutraal
 ------------------------------
 Symbolic Z-matrix:
 Charge =  0 Multiplicity = 1

 SCF Done:  E(RB3LYP) =  -695.036897936     A.U. after   14 cycles
 SCF Done:  E(RB3LYP) =  -695.033914474     A.U. after   13 cycles
 SCF Done:  E(RB3LYP) =  -695.041257109     A.U. after   12 cycles
 SCF Done:  E(RB3LYP) =  -695.042583514     A.U. after   13 cycles
 SCF Done:  E(RB3LYP) =  -695.042961078     A.U. after   12 cycles
 SCF Done:  E(RB3LYP) =  -695.044153040     A.U. after   12 cycles
 SCF Done:  E(RB3LYP) =  -695.044260557     A.U. after   12 cycles
 SCF Done:  E(RB3LYP) =  -695.044601937     A.U. after   12 cycles
 SCF Done:  E(RB3LYP) =  -695.044829712     A.U. after   12 cycles
 SCF Done:  E(RB3LYP) =  -695.044926990     A.U. after   13 cycles
 SCF Done:  E(RB3LYP) =  -695.045120075     A.U. after    9 cycles
 SCF Done:  E(RB3LYP) =  -695.045120353     A.U. after    9 cycles
 SCF Done:  E(RB3LYP) =  -695.045120585     A.U. after    9 cycles
 SCF Done:  E(RB3LYP) =  -695.045120403     A.U. after    7 cycles
 SCF Done:  E(RB3LYP) =  -695.045119884     A.U. after    8 cycles
 Optimization completed.
    -- Stationary point found.
 Normal termination of Gaussian 16 at Thu Dec 10 16:31:00 2020.

 --------------------------------------------------------------------
 #N Geom=AllCheck Guess=TCheck SCRF=Check GenChk RB3LYP/6-31G(d) Freq
 --------------------------------------------------------------------

 Structure from the checkpoint file:  "JID_5525.chk"
 ------------------------------
 CID_58870353_JID_5525_neutraal
 ------------------------------
 Charge =  0 Multiplicity = 1

 SCF Done:  E(RB3LYP) =  -695.045119884     A.U. after    1 cycles

  Exact polarizability: 153.091  -1.077 120.697  -8.954  -5.828 117.742
 Approx polarizability: 184.822   6.718 188.045 -15.775 -15.884 178.193

                      1                      2                      3
                      A                      A                      A
 Frequencies --     19.9874                25.4506                34.5521
 Red. masses --      4.0690                 5.6141                 4.4049
 Frc consts  --      0.0010                 0.0021                 0.0031
 IR Inten    --      1.2823                 0.3514                 1.8414

                      4                      5                      6
                      A                      A                      A
 Frequencies --     53.5806                67.4498                93.9404
 Red. masses --      3.6033                 3.1034                 4.1716
 Frc consts  --      0.0061                 0.0083                 0.0217
 IR Inten    --      0.3085                 0.1606                 0.5513

                      7                      8                      9
                      A                      A                      A
 Frequencies --    125.5980               140.3781               173.2014
 Red. masses --      3.4174                 2.2796                 2.6199
 Frc consts  --      0.0318                 0.0265                 0.0463
 IR Inten    --      1.4041                 0.2906                 0.1415

                     10                     11                     12
                      A                      A                      A
 Frequencies --    209.5505               224.1923               251.4172
 Red. masses --      3.2328                 2.9985                 3.3737
 Frc consts  --      0.0836                 0.0888                 0.1256
 IR Inten    --      4.0136                 0.1615                 9.8782

                     13                     14                     15
                      A                      A                      A
 Frequencies --    282.6259               348.4753               352.4165
 Red. masses --      2.7488                 2.9514                 2.1370
 Frc consts  --      0.1294                 0.2112                 0.1564
 IR Inten    --      4.3088                 3.1723                 0.3548

                     16                     17                     18
                      A                      A                      A
 Frequencies --    379.0966               415.9203               461.5106
 Red. masses --      2.1688                 2.5213                 2.5300
 Frc consts  --      0.1836                 0.2570                 0.3175
 IR Inten    --      0.5237                 1.8771                 0.6235

                     19                     20                     21
                      A                      A                      A
 Frequencies --    500.9755               502.8914               574.2165
 Red. masses --      2.4893                 2.6795                 1.0785
 Frc consts  --      0.3681                 0.3993                 0.2095
 IR Inten    --     10.8703                 2.9310               105.1986

                     22                     23                     24
                      A                      A                      A
 Frequencies --    627.5887               634.2314               649.6123
 Red. masses --      2.6421                 3.7512                 1.9592
 Frc consts  --      0.6131                 0.8890                 0.4871
 IR Inten    --      4.1768                 6.4527                 1.9265

                     25                     26                     27
                      A                      A                      A
 Frequencies --    714.7255               782.9892               808.7373
 Red. masses --      2.0389                 1.8228                 2.5798
 Frc consts  --      0.6136                 0.6584                 0.9941
 IR Inten    --      2.4367                13.8893                 3.0724

                     28                     29                     30
                      A                      A                      A
 Frequencies --    821.9096               831.0707               848.7676
 Red. masses --      2.7828                 2.2760                 1.4727
 Frc consts  --      1.1076                 0.9262                 0.6251
 IR Inten    --     11.1487                 0.7648                12.4741

                     31                     32                     33
                      A                      A                      A
 Frequencies --    881.0606               900.1872               916.1149
 Red. masses --      2.8896                 2.0048                 1.9969
 Frc consts  --      1.3216                 0.9572                 0.9874
 IR Inten    --      0.8170                 5.3651                 0.4049

                     34                     35                     36
                      A                      A                      A
 Frequencies --    924.5901               939.3768               951.3237
 Red. masses --      2.0807                 2.3875                 2.1896
 Frc consts  --      1.0480                 1.2413                 1.1675
 IR Inten    --      5.6011                16.8635                 7.0102

                     37                     38                     39
                      A                      A                      A
 Frequencies --    964.1084               977.0751              1033.2750
 Red. masses --      2.2151                 1.8684                 1.7992
 Frc consts  --      1.2131                 1.0509                 1.1318
 IR Inten    --      5.9378                 4.6722                 6.7849

                     40                     41                     42
                      A                      A                      A
 Frequencies --   1046.2108              1054.3070              1072.5429
 Red. masses --      2.0364                 2.0667                 1.8332
 Frc consts  --      1.3133                 1.3535                 1.2425
 IR Inten    --      2.1190                14.6023                 8.3723

                     43                     44                     45
                      A                      A                      A
 Frequencies --   1089.8377              1101.5632              1113.8530
 Red. masses --      2.0951                 2.4354                 2.9433
 Frc consts  --      1.4661                 1.7412                 2.1515
 IR Inten    --     14.9184                 6.5660                 1.6852

                     46                     47                     48
                      A                      A                      A
 Frequencies --   1137.1838              1153.9062              1170.3852
 Red. masses --      3.4680                 1.2757                 1.3820
 Frc consts  --      2.6424                 1.0008                 1.1153
 IR Inten    --     62.3964                 9.9989                 2.5072

                     49                     50                     51
                      A                      A                      A
 Frequencies --   1178.1505              1200.7400              1238.6138
 Red. masses --      1.3436                 1.3388                 1.3898
 Frc consts  --      1.0988                 1.1373                 1.2563
 IR Inten    --     50.9051                 7.8808                40.0517

                     52                     53                     54
                      A                      A                      A
 Frequencies --   1253.0521              1259.1185              1262.5196
 Red. masses --      1.3427                 1.0846                 1.5048
 Frc consts  --      1.2422                 1.0131                 1.4132
 IR Inten    --     43.9511                21.3796                 1.8071

                     55                     56                     57
                      A                      A                      A
 Frequencies --   1280.6203              1306.8436              1316.1835
 Red. masses --      1.7725                 1.3616                 1.1678
 Frc consts  --      1.7127                 1.3701                 1.1919
 IR Inten    --    135.8788                13.6652                43.8025

                     58                     59                     60
                      A                      A                      A
 Frequencies --   1324.0909              1340.2311              1348.4091
 Red. masses --      1.2302                 1.4162                 1.5206
 Frc consts  --      1.2708                 1.4987                 1.6289
 IR Inten    --      7.7659                 4.8064                 0.3625

                     61                     62                     63
                      A                      A                      A
 Frequencies --   1373.1980              1384.2100              1388.0930
 Red. masses --      1.6656                 1.4158                 1.5555
 Frc consts  --      1.8505                 1.5983                 1.7658
 IR Inten    --      8.9921                 7.4683                16.1560

                     64                     65                     66
                      A                      A                      A
 Frequencies --   1407.8312              1412.0980              1417.5554
 Red. masses --      1.3595                 1.3870                 1.3591
 Frc consts  --      1.5876                 1.6295                 1.6091
 IR Inten    --     11.4863                20.0227                11.3934

                     67                     68                     69
                      A                      A                      A
 Frequencies --   1425.0639              1492.5703              1503.4327
 Red. masses --      1.5097                 1.2163                 1.0880
 Frc consts  --      1.8064                 1.5965                 1.4490
 IR Inten    --     28.4171               106.0279                 3.1625

                     70                     71                     72
                      A                      A                      A
 Frequencies --   1507.4813              1513.8348              1515.7158
 Red. masses --      1.1071                 1.0887                 1.1088
 Frc consts  --      1.4824                 1.4700                 1.5009
 IR Inten    --      7.3283                 0.7097                17.8006

                     73                     74                     75
                      A                      A                      A
 Frequencies --   1519.5876              1524.9774              1529.2007
 Red. masses --      1.0856                 1.0868                 1.0897
 Frc consts  --      1.4770                 1.4891                 1.5013
 IR Inten    --      1.3868                 7.2742                 5.4423

                     76                     77                     78
                      A                      A                      A
 Frequencies --   1531.3146              1538.5672              1731.1620
 Red. masses --      1.1000                 1.1058                 6.9179
 Frc consts  --      1.5197                 1.5423                12.2152
 IR Inten    --      2.1165                 0.5867                 1.6215

                     79                     80                     81
                      A                      A                      A
 Frequencies --   1789.9413              2973.0622              3012.1295
 Red. masses --     10.1179                 1.0727                 1.0712
 Frc consts  --     19.0994                 5.5862                 5.7262
 IR Inten    --    182.2204                66.2898                46.0475

                     82                     83                     84
                      A                      A                      A
 Frequencies --   3014.1190              3022.9753              3046.4918
 Red. masses --      1.0682                 1.0682                 1.0611
 Frc consts  --      5.7178                 5.7516                 5.8026
 IR Inten    --     39.9501                21.3920                39.6959

                     85                     86                     87
                      A                      A                      A
 Frequencies --   3054.1170              3061.5031              3062.9585
 Red. masses --      1.0849                 1.0668                 1.0890
 Frc consts  --      5.9622                 5.8911                 6.0196
 IR Inten    --      8.7613                 8.4742                33.0522

                     88                     89                     90
                      A                      A                      A
 Frequencies --   3073.9970              3075.3847              3075.8602
 Red. masses --      1.0806                 1.0733                 1.0839
 Frc consts  --      6.0160                 5.9811                 6.0418
 IR Inten    --     17.6153                67.1655                27.7829

                     91                     92                     93
                      A                      A                      A
 Frequencies --   3078.0409              3092.1720              3093.2810
 Red. masses --      1.0799                 1.0691                 1.0920
 Frc consts  --      6.0283                 6.0227                 6.1563
 IR Inten    --     17.6341                81.0385                15.7726

                     94                     95                     96
                      A                      A                      A
 Frequencies --   3107.1058              3114.6793              3149.9222
 Red. masses --      1.1046                 1.1044                 1.0969
 Frc consts  --      6.2831                 6.3128                 6.4125
 IR Inten    --     30.9492                42.4600                12.7986

                     97                     98                     99
                      A                      A                      A
 Frequencies --   3151.3796              3188.0915              3643.5057
 Red. masses --      1.1085                 1.0930                 1.0653
 Frc consts  --      6.4862                 6.5450                 8.3326
 IR Inten    --     18.9106                21.3747               216.7139

 - Thermochemistry -
 -------------------
 Temperature   298.150 Kelvin.  Pressure   1.00000 Atm.
 Atom     1 has atomic number  6 and mass  12.00000

 Molecular mass:   212.14124 amu.
 Principal axes and moments of inertia in atomic units:
                           1         2         3
     Eigenvalues --  1397.158557198.592007238.50433
           X            0.99997  -0.00800  -0.00052
           Y            0.00785   0.99024  -0.13913
           Z            0.00163   0.13912   0.99027
 This molecule is an asymmetric top.
 Rotational symmetry number  1.
 Warning -- assumption of classical behavior for rotation
           may cause significant error
 Rotational temperatures (Kelvin)      0.06199     0.01203     0.01197
 Rotational constants (GHZ):           1.29172     0.25071     0.24933
 Zero-point vibrational energy     815190.1 (Joules/Mol)
                                  194.83512 (Kcal/Mol)
 Warning -- explicit consideration of  21 degrees of freedom as
           vibrations may cause significant error
 Vibrational temperatures:     28.76    36.62    49.71    77.09    97.05
          (Kelvin)            135.16   180.71   201.97   249.20   301.50
                              322.56   361.73   406.64   501.38   507.05
                              545.44   598.42   664.01   720.79   723.55
                              826.17   902.96   912.52   934.65  1028.33
                             1126.55  1163.59  1182.54  1195.73  1221.19
                             1267.65  1295.17  1318.09  1330.28  1351.55
                             1368.74  1387.14  1405.79  1486.65  1505.26
                             1516.91  1543.15  1568.03  1584.90  1602.59
                             1636.15  1660.21  1683.92  1695.10  1727.60
                             1782.09  1802.86  1811.59  1816.48  1842.53
                             1880.26  1893.69  1905.07  1928.29  1940.06
                             1975.73  1991.57  1997.16  2025.56  2031.69
                             2039.55  2050.35  2147.48  2163.10  2168.93
                             2178.07  2180.78  2186.35  2194.10  2200.18
                             2203.22  2213.66  2490.76  2575.33  4277.57
                             4333.78  4336.65  4349.39  4383.22  4394.19
                             4404.82  4406.91  4422.80  4424.79  4425.48
                             4428.61  4448.95  4450.54  4470.43  4481.33
                             4532.04  4534.13  4586.95  5242.19

 Zero-point correction=                           0.310490 (Hartree/Particle)
 Thermal correction to Energy=                    0.326306
 Thermal correction to Enthalpy=                  0.327250
 Thermal correction to Gibbs Free Energy=         0.264356
 Sum of electronic and zero-point Energies=           -694.734630
 Sum of electronic and thermal Energies=              -694.718814
 Sum of electronic and thermal Enthalpies=            -694.717869
 Sum of electronic and thermal Free Energies=         -694.780764

                     E (Thermal)             CV                S
                      KCal/Mol        Cal/Mol-Kelvin    Cal/Mol-Kelvin
 Total                  204.760             58.384            132.374
 Electronic               0.000              0.000              0.000
 Translational            0.889              2.981             41.960
 Rotational               0.889              2.981             32.654
 Vibrational            202.983             52.422             57.760
 Vibration     1          0.593              1.986              6.635
 Vibration     2          0.593              1.985              6.156
 Vibration     3          0.594              1.983              5.549
 Vibration     4          0.596              1.976              4.681
 Vibration     5          0.598              1.970              4.226
 Vibration     6          0.603              1.954              3.576
 Vibration     7          0.611              1.927              3.012
 Vibration     8          0.615              1.913              2.799
 Vibration     9          0.627              1.875              2.400
 Vibration    10          0.642              1.826              2.048
 Vibration    11          0.649              1.804              1.925
 Vibration    12          0.663              1.760              1.721
 Vibration    13          0.682              1.706              1.518
 Vibration    14          0.726              1.578              1.173
 Vibration    15          0.729              1.570              1.155
 Vibration    16          0.749              1.515              1.043
 Vibration    17          0.779              1.436              0.906
 Vibration    18          0.819              1.335              0.762
 Vibration    19          0.856              1.248              0.656
 Vibration    20          0.858              1.244              0.651
 Vibration    21          0.931              1.087              0.496

 Optimization completed.
    -- Stationary point found.
 Normal termination of Gaussian 16 at Thu Dec 10 16:41:58 2020.

 ----------------------------------------------------------------------
 # B3LYP/6-311++G(d,p) empiricaldispersion=gd3bj scf=xqc pop=npa geom=c
 heck
 ----------------------------------------------------------------------

 --------------------------------------
 CID_58870353_JID_5525_Energie_neutraal
 --------------------------------------
 Structure from the checkpoint file:  "JID_5525.chk"
 Charge =  0 Multiplicity = 1

 SCF Done:  E(RB3LYP) =  -695.252175098     A.U. after   14 cycles
 Normal termination of Gaussian 16 at Thu Dec 10 16:47:30 2020.

 ----------------------------------------------------------------------
 # B3LYP/6-311++G(d,p) empiricaldispersion=gd3bj scf=xqc pop=npa geom=c
 heck
 ----------------------------------------------------------------------

 ------------------------------------
 CID_58870353_JID_5525_Energie_kation
 ------------------------------------
 Structure from the checkpoint file:  "JID_5525.chk"
 Charge =  1 Multiplicity = 2

 SCF Done:  E(UB3LYP) =  -694.942926267     A.U. after   26 cycles
 Normal termination of Gaussian 16 at Thu Dec 10 17:04:26 2020.
 Gaussian 16:  ES64L-G16RevA.03 25-Dec-2016

 ----------------------------------------------------------------------
 # B3LYP/6-311++G(d,p) empiricaldispersion=gd3bj scf=xqc pop=npa geom=c
 heck
 ----------------------------------------------------------------------

 -----------------------------------
 CID_58870353_JID_5525_Energie_anion
 -----------------------------------
 Structure from the checkpoint file:  "JID_5525.chk"
 Charge = -1 Multiplicity = 2

                         Standard orientation:
 ---------------------------------------------------------------------
 Center     Atomic      Atomic             Coordinates (Angstroms)
 Number     Number       Type             X           Y           Z
 ---------------------------------------------------------------------
      1          6           0       -4.750677   -0.115858   -0.344360
      2          6           0       -4.222214   -0.858837    0.909820
      3          6           0       -2.771438   -1.100302    0.567306
      4          6           0       -2.361437   -0.382532   -0.485756
      5          6           0       -3.492375    0.474275   -1.025659
      6          6           0       -0.978696   -0.333664   -1.064334
      7          6           0       -0.341926    1.070283   -0.996931
      8          6           0       -0.286368    1.676720    0.412092
      9          6           0        0.433564    0.793063    1.448700
     10          6           0        1.830705    0.457037    0.986339
     11          8           0        2.672852    1.295851    0.711463
     12          8           0        2.022550   -0.867260    0.874283
     13          6           0        3.333816   -1.342555    0.462621
     14          6           0        3.673322   -1.039983   -0.998273
     15          8           0        4.350438    0.178130   -1.198170
     16          1           0       -5.502779    0.642346   -0.106534
     17          1           0       -5.219294   -0.840131   -1.019781
     18          1           0       -4.310544   -0.239995    1.816172
     19          1           0       -4.777659   -1.782701    1.113469
     20          1           0       -2.132552   -1.766068    1.142813
     21          1           0       -3.553435    0.449596   -2.121507
     22          1           0       -3.339307    1.529320   -0.751783
     23          1           0       -0.336036   -1.057901   -0.551141
     24          1           0       -1.010853   -0.638982   -2.120492
     25          1           0        0.672686    1.017935   -1.412708
     26          1           0       -0.900206    1.755406   -1.646904
     27          1           0        0.222980    2.645100    0.363969
     28          1           0       -1.302533    1.859533    0.779390
     29          1           0        0.521157    1.342016    2.393502
     30          1           0       -0.125018   -0.124347    1.641462
     31          1           0        4.095899   -0.914158    1.120744
     32          1           0        3.265111   -2.418922    0.632341
     33          1           0        4.341920   -1.829716   -1.361202
     34          1           0        2.740527   -1.111163   -1.585899
     35          1           0        3.885566    0.843169   -0.655916
 ---------------------------------------------------------------------

 SCF Done:  E(UB3LYP) =  -695.239251498     A.U. after   33 cycles
 SCF Done:  E(UB3LYP) =  -695.239251499     a.u. after    1 cycles

 The electronic state is 2-A.
 Alpha  occ. eigenvalues --  -19.08739 -19.03309 -19.02228 -10.22056 -10.14427
 Alpha  occ. eigenvalues --  -10.13265 -10.08945 -10.07988 -10.07673 -10.07439
 Alpha  occ. eigenvalues --  -10.07337 -10.07144 -10.07077 -10.07051 -10.06299
 Alpha  occ. eigenvalues --   -1.02759  -0.94100  -0.92969  -0.75276  -0.72084
 Alpha  occ. eigenvalues --   -0.68428  -0.65720  -0.61398  -0.60754  -0.57740
 Alpha  occ. eigenvalues --   -0.55007  -0.49752  -0.47856  -0.46889  -0.43661
 Alpha  occ. eigenvalues --   -0.42228  -0.41901  -0.40989  -0.39002  -0.38429
 Alpha  occ. eigenvalues --   -0.37360  -0.36647  -0.35178  -0.34217  -0.32876
 Alpha  occ. eigenvalues --   -0.31970  -0.30701  -0.29999  -0.29435  -0.28819
 Alpha  occ. eigenvalues --   -0.28086  -0.26675  -0.25530  -0.25413  -0.25047
 Alpha  occ. eigenvalues --   -0.24647  -0.23951  -0.23379  -0.22875  -0.21980
 Alpha  occ. eigenvalues --   -0.20115  -0.18371  -0.13912   0.04212
 Alpha virt. eigenvalues --    0.05769   0.06584   0.07244   0.07894   0.08020
 Alpha virt. eigenvalues --    0.08615   0.08945   0.09506   0.09857   0.10095
 Alpha virt. eigenvalues --    0.10568   0.11044   0.11272   0.11626   0.12492

  Beta  occ. eigenvalues --  -19.08726 -19.03297 -19.02226 -10.22035 -10.14400
  Beta  occ. eigenvalues --  -10.13248 -10.08928 -10.07970 -10.07663 -10.07427
  Beta  occ. eigenvalues --  -10.07337 -10.07125 -10.07052 -10.07030 -10.06287
  Beta  occ. eigenvalues --   -1.02729  -0.94074  -0.92961  -0.75254  -0.72050
  Beta  occ. eigenvalues --   -0.68390  -0.65685  -0.61362  -0.60707  -0.57699
  Beta  occ. eigenvalues --   -0.54962  -0.49699  -0.47793  -0.46850  -0.43636
  Beta  occ. eigenvalues --   -0.42182  -0.41853  -0.40946  -0.38961  -0.38392
  Beta  occ. eigenvalues --   -0.37320  -0.36617  -0.35138  -0.34183  -0.32833
  Beta  occ. eigenvalues --   -0.31933  -0.30669  -0.29964  -0.29411  -0.28784
  Beta  occ. eigenvalues --   -0.28054  -0.26649  -0.25493  -0.25377  -0.25017
  Beta  occ. eigenvalues --   -0.24609  -0.23924  -0.23348  -0.22846  -0.21935
  Beta  occ. eigenvalues --   -0.20099  -0.18352  -0.13891
  Beta virt. eigenvalues --    0.06326   0.06707   0.07202   0.07615   0.08233
  Beta virt. eigenvalues --    0.08515   0.08853   0.09394   0.09808   0.10069
  Beta virt. eigenvalues --    0.10417   0.10896   0.11375   0.11414   0.11823

 Mulliken charges and spin densities:
               1          2
     1  C   -0.056004  -0.346322
     2  C    1.091135  -1.732795
     3  C   -0.922651   0.616834
     4  C    1.065058   0.064127
     5  C   -0.095950  -0.488973
     6  C   -0.346482  -0.284424
     7  C   -0.511747   0.405622
     8  C    0.332081  -0.668795
     9  C    0.825643  -1.055389
    10  C   -0.770496   0.388538
    11  O   -0.268853   0.035302
    12  O    0.016972   0.052168
    13  C    0.325050  -0.591202
    14  C   -0.002844  -0.300962
    15  O   -0.228740   0.001946
    16  H   -0.185802   0.335720
    17  H    0.015700   0.123620
    18  H   -0.090341   0.232270
    19  H   -0.049777   0.189635
    20  H   -0.446968   0.615349
    21  H   -0.181059   0.338680
    22  H   -0.087134   0.220599
    23  H    0.044955   0.163908
    24  H   -0.054434   0.220456
    25  H    0.053460   0.102043
    26  H   -0.089077   0.282814
    27  H    0.231002  -0.047037
    28  H   -0.101025   0.263285
    29  H   -0.454270   0.660950
    30  H    0.320759  -0.145649
    31  H    0.195101   0.010039
    32  H   -0.654514   0.821403
    33  H   -0.268983   0.437190
    34  H    0.139973   0.031066
    35  H    0.210263   0.047981
 Sum of Mulliken charges =  -1.00000   1.00000

 Dipole moment (field-independent basis, Debye):
    X=              0.7728    Y=              1.3618    Z=             -0.4817  Tot=              1.6382
 Quadrupole moment (field-independent basis, Debye-Ang):
   XX=           -184.1634   YY=           -138.4613   ZZ=           -129.8399
   XY=              6.6254   XZ=              5.5700   YZ=             -1.0144

 Summary of Natural Population Analysis:

                                       Natural Population
                Natural  -----------------------------------------------
    Atom  No    Charge         Core      Valence    Rydberg      Total
 -----------------------------------------------------------------------
      C    1   -0.18375      0.99965     2.17724    0.00686     3.18375
      C    2   -0.20062      0.99964     2.19420    0.00679     3.20062
      C    3   -0.09858      0.99943     2.08934    0.00981     3.09858
      C    4   -0.00605      0.99948     1.99499    0.01158     3.00605
      C    5   -0.20300      0.99959     2.19545    0.00796     3.20300
      C    6   -0.20652      0.99958     2.19713    0.00982     3.20652
      C    7   -0.18912      0.99962     2.18167    0.00782     3.18912
      C    8   -0.18770      0.99962     2.17933    0.00875     3.18770
      C    9   -0.23653      0.99957     2.22817    0.00879     3.23653
      C   10    0.42036      0.99968     1.55332    0.02664     2.57964
      O   11   -0.32860      0.99985     3.32316    0.00559     4.32860
      O   12   -0.27519      0.99986     3.26588    0.00945     4.27519
      C   13   -0.03269      0.99955     2.02067    0.01247     3.03269
      C   14   -0.02643      0.99961     2.01386    0.01295     3.02643
      O   15   -0.37870      0.99990     3.37198    0.00682     4.37870
      H   16    0.09765      0.00000     0.40097    0.00137     0.40235
      H   17    0.09416      0.00000     0.40437    0.00146     0.40584
      H   18    0.09822      0.00000     0.39999    0.00180     0.40178
      H   19    0.09751      0.00000     0.40097    0.00152     0.40249
      H   20    0.09877      0.00000     0.39984    0.00140     0.40123
      H   21    0.09989      0.00000     0.39870    0.00141     0.40011
      H   22    0.09961      0.00000     0.39885    0.00155     0.40039
      H   23    0.10401      0.00000     0.39386    0.00213     0.39599
      H   24    0.10322      0.00000     0.39546    0.00131     0.39678
      H   25    0.09729      0.00000     0.40140    0.00131     0.40271
      H   26    0.09955      0.00000     0.39936    0.00110     0.40045
      H   27    0.10235      0.00000     0.39656    0.00109     0.39765
      H   28    0.10399      0.00000     0.39451    0.00150     0.39601
      H   29    0.11601      0.00000     0.38261    0.00138     0.38399
      H   30    0.11200      0.00000     0.38589    0.00212     0.38800
      H   31    0.09404      0.00000     0.40484    0.00112     0.40596
      H   32    0.10161      0.00000     0.39588    0.00251     0.39839
      H   33    0.09033      0.00000     0.40824    0.00143     0.40967
      H   34    0.07995      0.00000     0.41849    0.00157     0.42005
      H   35    0.24298      0.00000     0.25387    0.00314     0.25702
 =======================================================================
   * Total *    0.00000     14.99463    42.82105    0.18431    58.00000

 Normal termination of Gaussian 16 at Thu Dec 10 17:30:15 2020.
