 Gaussian 16, Revision A.03,

 -----------------------------------------------------------
 # opt freq B3LYP/6-31G(d) empiricaldispersion=gd3bj scf=xqc
 -----------------------------------------------------------

 -------------------------------
 CID_104729746_JID_9265_neutraal
 -------------------------------
 Symbolic Z-matrix:
 Charge =  0 Multiplicity = 1

 SCF Done:  E(RB3LYP) =  -875.740729397     A.U. after   15 cycles
 SCF Done:  E(RB3LYP) =  -875.746517666     A.U. after   13 cycles
 SCF Done:  E(RB3LYP) =  -875.747112052     A.U. after   12 cycles
 SCF Done:  E(RB3LYP) =  -875.747021225     A.U. after   12 cycles
 SCF Done:  E(RB3LYP) =  -875.747565351     A.U. after   12 cycles
 SCF Done:  E(RB3LYP) =  -875.747806162     A.U. after   13 cycles
 SCF Done:  E(RB3LYP) =  -875.748379588     A.U. after   11 cycles
 SCF Done:  E(RB3LYP) =  -875.748414317     A.U. after   12 cycles
 SCF Done:  E(RB3LYP) =  -875.748455215     A.U. after   12 cycles
 SCF Done:  E(RB3LYP) =  -875.748544363     A.U. after   11 cycles
 SCF Done:  E(RB3LYP) =  -875.748559675     A.U. after    8 cycles
 SCF Done:  E(RB3LYP) =  -875.748560350     A.U. after    8 cycles
 SCF Done:  E(RB3LYP) =  -875.748560430     A.U. after    7 cycles
 SCF Done:  E(RB3LYP) =  -875.748560424     A.U. after    7 cycles
 SCF Done:  E(RB3LYP) =  -875.748560398     A.U. after    7 cycles
 Optimization completed.
    -- Stationary point found.
 Normal termination of Gaussian 16 at Sat Dec 12 09:36:00 2020.

 --------------------------------------------------------------------
 #N Geom=AllCheck Guess=TCheck SCRF=Check GenChk RB3LYP/6-31G(d) Freq
 --------------------------------------------------------------------

 Structure from the checkpoint file:  "JID_9265.chk"
 -------------------------------
 CID_104729746_JID_9265_neutraal
 -------------------------------
 Charge =  0 Multiplicity = 1

 SCF Done:  E(RB3LYP) =  -875.748560398     A.U. after    1 cycles

  Exact polarizability: 207.071   4.357 175.929  25.538  -2.711 110.091
 Approx polarizability: 293.338  14.260 306.613  53.895  -7.667 174.554

                      1                      2                      3
                      A                      A                      A
 Frequencies --     22.3672                29.9646                51.6634
 Red. masses --      5.3494                 5.4787                 4.6313
 Frc consts  --      0.0016                 0.0029                 0.0073
 IR Inten    --      0.6837                 0.1558                 0.1789

                      4                      5                      6
                      A                      A                      A
 Frequencies --     84.4373               106.5349               129.9659
 Red. masses --      7.5719                 1.9723                 4.3034
 Frc consts  --      0.0318                 0.0132                 0.0428
 IR Inten    --      2.7550                 0.0741                 0.1937

                      7                      8                      9
                      A                      A                      A
 Frequencies --    139.4928               144.1286               166.7788
 Red. masses --      3.0228                 4.2250                 3.8855
 Frc consts  --      0.0347                 0.0517                 0.0637
 IR Inten    --      0.7513                 0.0602                 0.5139

                     10                     11                     12
                      A                      A                      A
 Frequencies --    198.8984               212.7886               225.4589
 Red. masses --      2.1315                 3.3197                 3.8292
 Frc consts  --      0.0497                 0.0886                 0.1147
 IR Inten    --      0.4020                 2.9847                 1.2143

                     13                     14                     15
                      A                      A                      A
 Frequencies --    235.9754               253.1747               285.8280
 Red. masses --      1.1108                 3.2250                 3.1614
 Frc consts  --      0.0364                 0.1218                 0.1522
 IR Inten    --      0.3567                 3.1243                 3.5265

                     16                     17                     18
                      A                      A                      A
 Frequencies --    317.8932               326.2098               342.4827
 Red. masses --      3.3713                 1.9793                 2.0967
 Frc consts  --      0.2007                 0.1241                 0.1449
 IR Inten    --      1.8211                 0.6879                 1.5810

                     19                     20                     21
                      A                      A                      A
 Frequencies --    380.8498               414.0198               455.1736
 Red. masses --      3.7836                 2.3960                 1.5121
 Frc consts  --      0.3233                 0.2420                 0.1846
 IR Inten    --      1.4728                38.7711                78.0222

                     22                     23                     24
                      A                      A                      A
 Frequencies --    475.6892               510.0022               530.4430
 Red. masses --      4.1987                 3.1849                 4.1917
 Frc consts  --      0.5598                 0.4881                 0.6949
 IR Inten    --      8.6922                 9.1289                26.1073

                     25                     26                     27
                      A                      A                      A
 Frequencies --    544.0215               559.1668               594.7869
 Red. masses --      5.6083                 4.0908                 2.9376
 Frc consts  --      0.9779                 0.7536                 0.6123
 IR Inten    --      1.0382                 3.8489                18.7590

                     28                     29                     30
                      A                      A                      A
 Frequencies --    619.5054               627.0496               664.2610
 Red. masses --      1.6060                 4.1445                 5.5886
 Frc consts  --      0.3632                 0.9601                 1.4529
 IR Inten    --     67.2840                43.9733                 3.2979

                     31                     32                     33
                      A                      A                      A
 Frequencies --    670.4822               706.5666               728.8628
 Red. masses --      5.0003                 3.2801                 1.3950
 Frc consts  --      1.3244                 0.9648                 0.4366
 IR Inten    --      5.9760                12.1720                35.4857

                     34                     35                     36
                      A                      A                      A
 Frequencies --    743.7281               767.6237               771.3496
 Red. masses --      3.8306                 1.8508                 2.1609
 Frc consts  --      1.2484                 0.6425                 0.7575
 IR Inten    --     13.0396                11.7905                25.0543

                     37                     38                     39
                      A                      A                      A
 Frequencies --    773.9393               792.7387               809.1370
 Red. masses --      1.4225                 2.6772                 1.4740
 Frc consts  --      0.5020                 0.9913                 0.5686
 IR Inten    --     19.8473                 4.5548                13.0749

                     40                     41                     42
                      A                      A                      A
 Frequencies --    885.0534               887.6313               903.3628
 Red. masses --      2.6916                 1.3066                 4.0298
 Frc consts  --      1.2422                 0.6066                 1.9376
 IR Inten    --      4.5917                 3.3797                 4.8060

                     43                     44                     45
                      A                      A                      A
 Frequencies --    921.7787               952.5606               954.5603
 Red. masses --      1.2704                 4.1304                 1.9619
 Frc consts  --      0.6360                 2.2081                 1.0532
 IR Inten    --      0.8079                 1.0728                 7.9630

                     46                     47                     48
                      A                      A                      A
 Frequencies --    981.7772              1018.4663              1035.6224
 Red. masses --      2.1238                 1.9467                 2.8315
 Frc consts  --      1.2061                 1.1897                 1.7892
 IR Inten    --      5.5480                11.6850                 1.2580

                     49                     50                     51
                      A                      A                      A
 Frequencies --   1053.5235              1064.6647              1088.0130
 Red. masses --      1.9751                 2.3563                 1.7085
 Frc consts  --      1.2916                 1.5737                 1.1916
 IR Inten    --      8.2676                 1.7652                10.4958

                     52                     53                     54
                      A                      A                      A
 Frequencies --   1100.5235              1113.4777              1156.1923
 Red. masses --      1.9010                 1.7809                 2.9576
 Frc consts  --      1.3566                 1.3009                 2.3294
 IR Inten    --      3.7196                 7.6850               107.7909

                     55                     56                     57
                      A                      A                      A
 Frequencies --   1181.7522              1192.8113              1201.8626
 Red. masses --      3.2991                 2.2790                 2.0834
 Frc consts  --      2.7145                 1.9105                 1.7731
 IR Inten    --     87.3277                16.0900                 8.0666

                     58                     59                     60
                      A                      A                      A
 Frequencies --   1212.8237              1232.8034              1272.8452
 Red. masses --      1.5436                 2.2301                 2.5864
 Frc consts  --      1.3378                 1.9969                 2.4688
 IR Inten    --     10.1864                45.6966                39.2865

                     61                     62                     63
                      A                      A                      A
 Frequencies --   1302.8181              1319.4948              1333.1377
 Red. masses --      3.5158                 1.3496                 1.2135
 Frc consts  --      3.5160                 1.3844                 1.2707
 IR Inten    --      9.7101                17.2280                11.4196

                     64                     65                     66
                      A                      A                      A
 Frequencies --   1339.8734              1347.3468              1372.1095
 Red. masses --      1.4698                 1.9279                 2.0156
 Frc consts  --      1.5547                 2.0620                 2.2358
 IR Inten    --      1.1904                 4.9500                43.0723

                     67                     68                     69
                      A                      A                      A
 Frequencies --   1383.4547              1398.1573              1407.5463
 Red. masses --      1.4571                 2.2857                 2.1423
 Frc consts  --      1.6431                 2.6325                 2.5007
 IR Inten    --      0.8656                29.2296                22.6294

                     70                     71                     72
                      A                      A                      A
 Frequencies --   1411.5144              1421.8076              1442.3044
 Red. masses --      1.7714                 1.6101                 1.2525
 Frc consts  --      2.0794                 1.9177                 1.5351
 IR Inten    --     34.4925                 6.3837                 6.2811

                     73                     74                     75
                      A                      A                      A
 Frequencies --   1447.8400              1459.1373              1496.7241
 Red. masses --      1.2837                 3.0182                 2.2075
 Frc consts  --      1.5855                 3.7861                 2.9136
 IR Inten    --     22.2408                19.7045                15.0432

                     76                     77                     78
                      A                      A                      A
 Frequencies --   1502.0942              1513.2916              1522.9191
 Red. masses --      1.4008                 1.0760                 1.0774
 Frc consts  --      1.8621                 1.4519                 1.4722
 IR Inten    --     16.6923                 2.1904                10.5122

                     79                     80                     81
                      A                      A                      A
 Frequencies --   1532.2012              1537.0646              1540.0814
 Red. masses --      1.0479                 1.0468                 1.0685
 Frc consts  --      1.4494                 1.4572                 1.4931
 IR Inten    --      4.3161                 9.1753                 0.5589

                     82                     83                     84
                      A                      A                      A
 Frequencies --   1544.7247              1546.9588              1569.9506
 Red. masses --      1.1391                 2.4363                 3.4252
 Frc consts  --      1.6014                 3.4351                 4.9741
 IR Inten    --      3.0287                31.4875                12.3332

                     85                     86                     87
                      A                      A                      A
 Frequencies --   1591.5688              1673.0019              1825.0419
 Red. masses --      3.8421                 5.5003                 9.7665
 Frc consts  --      5.7341                 9.0704                19.1661
 IR Inten    --    577.5371                51.5151               214.0976

                     88                     89                     90
                      A                      A                      A
 Frequencies --   3049.3678              3058.1809              3059.3768
 Red. masses --      1.0638                 1.0390                 1.0374
 Frc consts  --      5.8284                 5.7251                 5.7209
 IR Inten    --     16.7407                14.9854                26.0195

                     91                     92                     93
                      A                      A                      A
 Frequencies --   3067.8188              3086.0293              3100.0746
 Red. masses --      1.0615                 1.0651                 1.0979
 Frc consts  --      5.8859                 5.9762                 6.2165
 IR Inten    --     20.1610                49.1439                12.4789

                     94                     95                     96
                      A                      A                      A
 Frequencies --   3101.9457              3121.1749              3122.8269
 Red. masses --      1.0994                 1.1006                 1.1009
 Frc consts  --      6.2324                 6.3169                 6.3256
 IR Inten    --      5.1972                32.9915                50.0202

                     97                     98                     99
                      A                      A                      A
 Frequencies --   3130.7739              3137.9315              3159.4582
 Red. masses --      1.1018                 1.1026                 1.1003
 Frc consts  --      6.3632                 6.3968                 6.4710
 IR Inten    --     35.8388                30.9051                 2.4178

                    100                    101                    102
                      A                      A                      A
 Frequencies --   3207.8307              3261.1075              3280.7334
 Red. masses --      1.0907                 1.0923                 1.0993
 Frc consts  --      6.6130                 6.8440                 6.9715
 IR Inten    --     22.6403                 7.0637                 0.5678

                    103                    104                    105
                      A                      A                      A
 Frequencies --   3281.3711              3636.5276              3690.4308
 Red. masses --      1.0979                 1.0761                 1.0639
 Frc consts  --      6.9648                 8.3847                 8.5374
 IR Inten    --      4.8324                21.1599                43.4383

 - Thermochemistry -
 -------------------
 Temperature   298.150 Kelvin.  Pressure   1.00000 Atm.
 Atom     1 has atomic number  6 and mass  12.00000

 Molecular mass:   262.14298 amu.
 Principal axes and moments of inertia in atomic units:
                           1         2         3
     Eigenvalues --  2319.637567769.963418426.57475
           X            0.99992  -0.01059   0.00686
           Y            0.01049   0.99984   0.01434
           Z           -0.00701  -0.01427   0.99987
 This molecule is an asymmetric top.
 Rotational symmetry number  1.
 Warning -- assumption of classical behavior for rotation
           may cause significant error
 Rotational temperatures (Kelvin)      0.03734     0.01115     0.01028
 Rotational constants (GHZ):           0.77803     0.23227     0.21417
 Zero-point vibrational energy     814421.7 (Joules/Mol)
                                  194.65145 (Kcal/Mol)
 Warning -- explicit consideration of  28 degrees of freedom as
           vibrations may cause significant error
 Vibrational temperatures:     32.18    43.11    74.33   121.49   153.28
          (Kelvin)            186.99   200.70   207.37   239.96   286.17
                              306.16   324.39   339.52   364.26   411.24
                              457.38   469.34   492.76   547.96   595.68
                              654.89   684.41   733.78   763.19   782.73
                              804.52   855.77   891.33   902.18   955.72
                              964.67  1016.59  1048.67  1070.06  1104.44
                             1109.80  1113.53  1140.57  1164.17  1273.39
                             1277.10  1299.74  1326.23  1370.52  1373.40
                             1412.56  1465.35  1490.03  1515.79  1531.81
                             1565.41  1583.41  1602.05  1663.50  1700.28
                             1716.19  1729.21  1744.98  1773.73  1831.34
                             1874.46  1898.46  1918.09  1927.78  1938.53
                             1974.16  1990.48  2011.64  2025.15  2030.85
                             2045.66  2075.15  2083.12  2099.37  2153.45
                             2161.18  2177.29  2191.14  2204.50  2211.49
                             2215.83  2222.51  2225.73  2258.81  2289.91
                             2407.08  2625.83  4387.36  4400.04  4401.76
                             4413.91  4440.11  4460.32  4463.01  4490.67
                             4493.05  4504.49  4514.78  4545.76  4615.35
                             4692.01  4720.24  4721.16  5232.15  5309.71

 Zero-point correction=                           0.310197 (Hartree/Particle)
 Thermal correction to Energy=                    0.328119
 Thermal correction to Enthalpy=                  0.329064
 Thermal correction to Gibbs Free Energy=         0.263629
 Sum of electronic and zero-point Energies=           -875.438364
 Sum of electronic and thermal Energies=              -875.420441
 Sum of electronic and thermal Enthalpies=            -875.419497
 Sum of electronic and thermal Free Energies=         -875.484931

                     E (Thermal)             CV                S
                      KCal/Mol        Cal/Mol-Kelvin    Cal/Mol-Kelvin
 Total                  205.898             69.037            137.718
 Electronic               0.000              0.000              0.000
 Translational            0.889              2.981             42.591
 Rotational               0.889              2.981             33.385
 Vibrational            204.121             63.076             61.743
 Vibration     1          0.593              1.985              6.412
 Vibration     2          0.594              1.984              5.832
 Vibration     3          0.596              1.977              4.753
 Vibration     4          0.601              1.960              3.785
 Vibration     5          0.605              1.944              3.331
 Vibration     6          0.612              1.923              2.947
 Vibration     7          0.615              1.914              2.811
 Vibration     8          0.616              1.909              2.748
 Vibration     9          0.624              1.883              2.471
 Vibration    10          0.637              1.841              2.143
 Vibration    11          0.644              1.821              2.020
 Vibration    12          0.650              1.802              1.915
 Vibration    13          0.655              1.786              1.833
 Vibration    14          0.664              1.757              1.708
 Vibration    15          0.684              1.700              1.499
 Vibration    16          0.704              1.639              1.321
 Vibration    17          0.710              1.623              1.279
 Vibration    18          0.722              1.591              1.201
 Vibration    19          0.751              1.511              1.036
 Vibration    20          0.778              1.440              0.913
 Vibration    21          0.814              1.349              0.780
 Vibration    22          0.832              1.304              0.722
 Vibration    23          0.865              1.228              0.634
 Vibration    24          0.885              1.183              0.586
 Vibration    25          0.899              1.153              0.557
 Vibration    26          0.915              1.120              0.525
 Vibration    27          0.952              1.043              0.459
 Vibration    28          0.979              0.991              0.417

 Optimization completed.
    -- Stationary point found.
 Normal termination of Gaussian 16 at Sat Dec 12 09:55:41 2020.

 ----------------------------------------------------------------------
 # B3LYP/6-311++G(d,p) empiricaldispersion=gd3bj scf=xqc pop=npa geom=c
 heck
 ----------------------------------------------------------------------

 ---------------------------------------
 CID_104729746_JID_9265_Energie_neutraal
 ---------------------------------------
 Structure from the checkpoint file:  "JID_9265.chk"
 Charge =  0 Multiplicity = 1

 SCF Done:  E(RB3LYP) =  -875.997082838     A.U. after   16 cycles
 Normal termination of Gaussian 16 at Sat Dec 12 10:04:36 2020.

 ----------------------------------------------------------------------
 # B3LYP/6-311++G(d,p) empiricaldispersion=gd3bj scf=xqc pop=npa geom=c
 heck
 ----------------------------------------------------------------------

 -------------------------------------
 CID_104729746_JID_9265_Energie_kation
 -------------------------------------
 Structure from the checkpoint file:  "JID_9265.chk"
 Charge =  1 Multiplicity = 2

 SCF Done:  E(UB3LYP) =  -875.721800727     A.U. after   25 cycles
 Normal termination of Gaussian 16 at Sat Dec 12 10:24:45 2020.
 Gaussian 16:  ES64L-G16RevA.03 25-Dec-2016

 ----------------------------------------------------------------------
 # B3LYP/6-311++G(d,p) empiricaldispersion=gd3bj scf=xqc pop=npa geom=c
 heck
 ----------------------------------------------------------------------

 ------------------------------------
 CID_104729746_JID_9265_Energie_anion
 ------------------------------------
 Structure from the checkpoint file:  "JID_9265.chk"
 Charge = -1 Multiplicity = 2

                         Standard orientation:
 ---------------------------------------------------------------------
 Center     Atomic      Atomic             Coordinates (Angstroms)
 Number     Number       Type             X           Y           Z
 ---------------------------------------------------------------------
      1          6           0       -3.310646    1.772068    1.482670
      2          6           0       -2.356274    1.527696    0.310991
      3          6           0       -2.183542    0.047507   -0.090361
      4          6           0       -3.530434   -0.651890   -0.408335
      5          6           0       -4.417085    0.062557   -1.434223
      6          6           0       -1.262093   -0.051960   -1.349532
      7          7           0        0.053674    0.540130   -1.203518
      8          6           0        1.127099   -0.163970   -0.721388
      9          7           0        1.055433   -1.476506   -0.616460
     10          6           0        2.156963   -2.148423   -0.164917
     11          6           0        3.327207   -1.552795    0.195884
     12          7           0        3.387252   -0.181320    0.081452
     13          6           0        2.315836    0.562945   -0.379131
     14          6           0        2.742635    1.892727   -0.361854
     15          6           0        4.057581    1.830552    0.118525
     16          7           0        4.456135    0.575230    0.389132
     17          6           0       -1.456000   -0.681054    1.038889
     18          8           0       -0.724886   -0.151597    1.849428
     19          8           0       -1.671895   -2.016553    1.031773
     20          1           0       -4.334029    1.456780    1.253659
     21          1           0       -3.341656    2.837888    1.732603
     22          1           0       -2.976252    1.232362    2.373760
     23          1           0       -2.698914    2.086977   -0.568920
     24          1           0       -1.372311    1.921857    0.582450
     25          1           0       -3.316689   -1.667330   -0.756416
     26          1           0       -4.092249   -0.771509    0.524705
     27          1           0       -3.924028    0.175553   -2.405504
     28          1           0       -5.330777   -0.517657   -1.601536
     29          1           0       -4.718746    1.058812   -1.095319
     30          1           0       -1.117575   -1.099945   -1.615355
     31          1           0       -1.764965    0.450748   -2.180853
     32          1           0        0.092050    1.540562   -1.076608
     33          1           0        2.060192   -3.227526   -0.097088
     34          1           0        4.215054   -2.045928    0.563933
     35          1           0        2.186827    2.770719   -0.655825
     36          1           0        4.748395    2.646394    0.284037
     37          1           0       -1.075029   -2.382053    1.711113
 ---------------------------------------------------------------------

 SCF Done:  E(UB3LYP) =  -875.987686310     A.U. after   33 cycles
 SCF Done:  E(UB3LYP) =  -875.987686310     a.u. after    1 cycles

 The electronic state is 2-A.
 Alpha  occ. eigenvalues --  -19.07752 -19.01876 -14.30228 -14.23144 -14.23059
 Alpha  occ. eigenvalues --  -14.19097 -10.20857 -10.14384 -10.11320 -10.11020
 Alpha  occ. eigenvalues --  -10.10568 -10.10485 -10.10216 -10.09834 -10.07670
 Alpha  occ. eigenvalues --  -10.06973 -10.06951 -10.06337 -10.06206  -1.01752
 Alpha  occ. eigenvalues --   -0.96516  -0.92572  -0.87112  -0.81129  -0.74859
 Alpha  occ. eigenvalues --   -0.73452  -0.70003  -0.65494  -0.64377  -0.62916
 Alpha  occ. eigenvalues --   -0.58880  -0.54700  -0.54066  -0.52624  -0.52153
 Alpha  occ. eigenvalues --   -0.50184  -0.46489  -0.45871  -0.42424  -0.40519
 Alpha  occ. eigenvalues --   -0.39749  -0.38885  -0.38144  -0.37799  -0.37413
 Alpha  occ. eigenvalues --   -0.36411  -0.34484  -0.34164  -0.32976  -0.32237
 Alpha  occ. eigenvalues --   -0.31964  -0.31146  -0.30985  -0.30484  -0.29850
 Alpha  occ. eigenvalues --   -0.28499  -0.27522  -0.27481  -0.25468  -0.25134
 Alpha  occ. eigenvalues --   -0.24165  -0.22927  -0.22532  -0.22452  -0.20225
 Alpha  occ. eigenvalues --   -0.18606  -0.17269  -0.16609  -0.15114  -0.10552
 Alpha  occ. eigenvalues --    0.04339
 Alpha virt. eigenvalues --    0.05979   0.06670   0.07003   0.07691   0.08204
 Alpha virt. eigenvalues --    0.08344   0.08532   0.09287   0.09745   0.10224
 Alpha virt. eigenvalues --    0.10396   0.10727   0.11341   0.12237   0.12650

  Beta  occ. eigenvalues --  -19.07746 -19.01874 -14.30039 -14.23098 -14.23033
  Beta  occ. eigenvalues --  -14.18981 -10.20857 -10.14229 -10.11325 -10.11012
  Beta  occ. eigenvalues --  -10.10585 -10.10431 -10.10212 -10.09849 -10.07660
  Beta  occ. eigenvalues --  -10.06944 -10.06889 -10.06292 -10.06186  -1.01743
  Beta  occ. eigenvalues --   -0.96299  -0.92565  -0.86927  -0.81009  -0.74713
  Beta  occ. eigenvalues --   -0.73385  -0.69895  -0.65452  -0.64274  -0.62848
  Beta  occ. eigenvalues --   -0.58789  -0.54634  -0.53992  -0.52480  -0.52079
  Beta  occ. eigenvalues --   -0.50070  -0.46391  -0.45822  -0.42342  -0.40481
  Beta  occ. eigenvalues --   -0.39722  -0.38820  -0.38071  -0.37724  -0.37074
  Beta  occ. eigenvalues --   -0.36186  -0.34442  -0.34097  -0.32929  -0.32206
  Beta  occ. eigenvalues --   -0.31916  -0.31108  -0.30950  -0.30423  -0.29665
  Beta  occ. eigenvalues --   -0.28178  -0.27452  -0.27406  -0.25429  -0.25049
  Beta  occ. eigenvalues --   -0.24085  -0.22901  -0.22473  -0.22169  -0.20168
  Beta  occ. eigenvalues --   -0.18532  -0.16898  -0.16446  -0.14877  -0.10032
  Beta virt. eigenvalues --    0.06540   0.07028   0.07387   0.07682   0.08026
  Beta virt. eigenvalues --    0.08404   0.08563   0.08686   0.09390   0.10121
  Beta virt. eigenvalues --    0.10382   0.10676   0.10888   0.11664   0.12383

 Mulliken charges and spin densities:
               1          2
     1  C    0.113300  -0.718250
     2  C    0.195030  -0.682367
     3  C    0.937334   0.485871
     4  C   -1.007420   0.985058
     5  C    1.145515  -1.764004
     6  C   -0.423691  -0.586455
     7  N    0.120853   0.045512
     8  C   -0.189127  -0.259323
     9  N   -0.063167   0.054242
    10  C    0.060061  -0.274266
    11  C   -0.121959   0.298186
    12  N    0.267681   0.039204
    13  C   -0.300331   0.111883
    14  C    0.075567  -0.257715
    15  C   -0.152423  -0.223788
    16  N   -0.165019   0.023332
    17  C   -0.789265   0.012133
    18  O   -0.127312   0.000298
    19  O   -0.082809   0.016720
    20  H    0.074980   0.061441
    21  H   -0.239761   0.385125
    22  H    0.066487   0.106028
    23  H   -0.418035   0.596525
    24  H    0.324495  -0.160638
    25  H    0.139808   0.044055
    26  H    0.041144   0.146121
    27  H   -0.373526   0.509233
    28  H   -0.411520   0.562781
    29  H   -0.252185   0.403359
    30  H    0.270980  -0.037766
    31  H   -0.050447   0.234498
    32  H    0.036223   0.244572
    33  H    0.147825   0.010084
    34  H    0.140988   0.024637
    35  H   -0.326641   0.480809
    36  H    0.089238   0.046278
    37  H    0.247130   0.036587
 Sum of Mulliken charges =  -1.00000   1.00000

 Dipole moment (field-independent basis, Debye):
    X=              3.8625    Y=             -4.4181    Z=              2.4047  Tot=              6.3420
 Quadrupole moment (field-independent basis, Debye-Ang):
   XX=           -205.3294   YY=           -146.0543   ZZ=           -146.7680
   XY=              7.9678   XZ=            -12.9108   YZ=             -2.4409

 Summary of Natural Population Analysis:

                                       Natural Population
                Natural  -----------------------------------------------
    Atom  No    Charge         Core      Valence    Rydberg      Total
 -----------------------------------------------------------------------
      C    1   -0.28693      0.99966     2.28152    0.00575     3.28693
      C    2   -0.19779      0.99961     2.18616    0.01202     3.19779
      C    3   -0.08097      0.99949     2.06806    0.01342     3.08097
      C    4   -0.19218      0.99961     2.18172    0.01086     3.19218
      C    5   -0.28800      0.99966     2.28272    0.00563     3.28800
      C    6   -0.08588      0.99957     2.07303    0.01328     3.08588
      N    7   -0.29905      0.99967     2.78904    0.01034     3.79905
      C    8    0.23561      0.99952     1.75019    0.01468     2.76439
      N    9   -0.26399      0.99967     2.75390    0.01042     3.76399
      C   10   -0.00971      0.99959     1.99628    0.01384     3.00971
      C   11   -0.01820      0.99956     2.00738    0.01126     3.01820
      N   12   -0.05935      0.99960     2.54721    0.01254     3.55935
      C   13    0.04863      0.99952     1.94133    0.01052     2.95137
      C   14   -0.15496      0.99953     2.14562    0.00981     3.15496
      C   15   -0.01462      0.99964     2.00076    0.01421     3.01462
      N   16   -0.15992      0.99974     2.64834    0.01184     3.65992
      C   17    0.41910      0.99962     1.55336    0.02792     2.58090
      O   18   -0.30819      0.99987     3.30230    0.00602     4.30819
      O   19   -0.34262      0.99987     3.33670    0.00605     4.34262
      H   20    0.09528      0.00000     0.40376    0.00096     0.40472
      H   21    0.10185      0.00000     0.39734    0.00080     0.39815
      H   22    0.09988      0.00000     0.39915    0.00097     0.40012
      H   23    0.10177      0.00000     0.39622    0.00201     0.39823
      H   24    0.10736      0.00000     0.39096    0.00168     0.39264
      H   25    0.10493      0.00000     0.39372    0.00135     0.39507
      H   26    0.09987      0.00000     0.39883    0.00130     0.40013
      H   27    0.09790      0.00000     0.40074    0.00136     0.40210
      H   28    0.10186      0.00000     0.39703    0.00111     0.39814
      H   29    0.10001      0.00000     0.39860    0.00139     0.39999
      H   30    0.11456      0.00000     0.38347    0.00198     0.38544
      H   31    0.10228      0.00000     0.39642    0.00130     0.39772
      H   32    0.19240      0.00000     0.30480    0.00280     0.30760
      H   33    0.09091      0.00000     0.40814    0.00095     0.40909
      H   34    0.10463      0.00000     0.39435    0.00102     0.39537
      H   35    0.10945      0.00000     0.38956    0.00099     0.39055
      H   36    0.09524      0.00000     0.40387    0.00089     0.40476
      H   37    0.23885      0.00000     0.25766    0.00348     0.26115
 =======================================================================
   * Total *   -0.00000     18.99301    50.76025    0.24675    70.00000

 Normal termination of Gaussian 16 at Sat Dec 12 10:50:17 2020.
