 Gaussian 16, Revision A.03,

 -----------------------------------------------------------
 # opt freq B3LYP/6-31G(d) empiricaldispersion=gd3bj scf=xqc
 -----------------------------------------------------------

 -----------------------------
 CID_13007233_JID_249_neutraal
 -----------------------------
 Symbolic Z-matrix:
 Charge =  0 Multiplicity = 1

 SCF Done:  E(RB3LYP) =  -454.858186467     A.U. after   14 cycles
 SCF Done:  E(RB3LYP) =  -454.866536231     A.U. after   12 cycles
 SCF Done:  E(RB3LYP) =  -454.870184887     A.U. after   12 cycles
 SCF Done:  E(RB3LYP) =  -454.871172910     A.U. after   12 cycles
 SCF Done:  E(RB3LYP) =  -454.871756372     A.U. after   11 cycles
 SCF Done:  E(RB3LYP) =  -454.872539283     A.U. after   12 cycles
 SCF Done:  E(RB3LYP) =  -454.873406760     A.U. after   12 cycles
 SCF Done:  E(RB3LYP) =  -454.874531866     A.U. after   12 cycles
 SCF Done:  E(RB3LYP) =  -454.875649933     A.U. after   12 cycles
 SCF Done:  E(RB3LYP) =  -454.876062261     A.U. after   11 cycles
 SCF Done:  E(RB3LYP) =  -454.876900949     A.U. after    9 cycles
 SCF Done:  E(RB3LYP) =  -454.876901630     A.U. after    8 cycles
 SCF Done:  E(RB3LYP) =  -454.876901790     A.U. after    7 cycles
 SCF Done:  E(RB3LYP) =  -454.876901924     A.U. after    8 cycles
 SCF Done:  E(RB3LYP) =  -454.876901966     A.U. after    7 cycles
 SCF Done:  E(RB3LYP) =  -454.876901988     A.U. after    7 cycles
 Optimization completed.
    -- Stationary point found.

 1\1\GINC-NODE116\FOpt\RB3LYP\6-31G(d)\C6H12N4\VSC10255\08-Dec-2020\0\\
 # opt freq B3LYP/6-31G(d) empiricaldispersion=gd3bj scf=xqc\\CID_13007
 233_JID_249_neutraal\\0,1\C,1.1216432423,-0.168620717,-0.1650172262\C,
 0.1638200138,0.2410081555,-1.2850119446\C,0.3493222785,-0.5903867127,-
 2.5588226008\N,0.1728211135,-2.0112236848,-2.3117974675\C,1.1238951112
 ,-2.9810043805,-2.2761603927\C,0.5063576623,-4.1376383403,-1.814485121
 5\C,-0.8378187075,-3.7498924062,-1.5923487711\N,-1.0461631428,-2.47146
 9782,-1.8956170853\N,1.2031784637,-5.3742721876,-1.6647174741\N,2.4718

 Normal termination of Gaussian 16 at Tue Dec  8 10:25:58 2020.

 --------------------------------------------------------------------
 #N Geom=AllCheck Guess=TCheck SCRF=Check GenChk RB3LYP/6-31G(d) Freq
 --------------------------------------------------------------------

 Structure from the checkpoint file:  "JID_249.chk"
 -----------------------------
 CID_13007233_JID_249_neutraal
 -----------------------------
 Charge =  0 Multiplicity = 1

 SCF Done:  E(RB3LYP) =  -454.876901988     A.U. after    1 cycles

  Exact polarizability: 103.550  -1.461  88.501  10.934  -3.712  64.634
 Approx polarizability: 140.470   0.667 143.544  21.824  -6.345  92.964

                      1                      2                      3
                      A                      A                      A
 Frequencies --     31.0437                55.4416               121.6674
 Red. masses --      3.4799                 3.2392                 1.8013
 Frc consts  --      0.0020                 0.0059                 0.0157
 IR Inten    --      0.9229                 0.9516                 3.2981

                      4                      5                      6
                      A                      A                      A
 Frequencies --    168.1951               201.2928               244.1696
 Red. masses --      1.0994                 2.4550                 1.4819
 Frc consts  --      0.0183                 0.0586                 0.0521
 IR Inten    --     31.6240                 2.3147                 1.2718

                      7                      8                      9
                      A                      A                      A
 Frequencies --    256.9034               295.6714               299.8708
 Red. masses --      3.4369                 2.4519                 2.7008
 Frc consts  --      0.1336                 0.1263                 0.1431
 IR Inten    --      3.1970                12.3478                 8.7538

                     10                     11                     12
                      A                      A                      A
 Frequencies --    308.5005               330.7149               446.6697
 Red. masses --      1.4553                 2.1704                 2.4178
 Frc consts  --      0.0816                 0.1399                 0.2842
 IR Inten    --     38.8850                 6.8172                 5.1468

                     13                     14                     15
                      A                      A                      A
 Frequencies --    529.9336               610.3894               658.6365
 Red. masses --      3.4611                 3.6496                 5.6846
 Frc consts  --      0.5727                 0.8012                 1.4529
 IR Inten    --      3.7070                 4.3693                 9.7349

                     16                     17                     18
                      A                      A                      A
 Frequencies --    677.7861               749.5519               764.0425
 Red. masses --      3.9545                 2.5298                 6.4084
 Frc consts  --      1.0704                 0.8374                 2.2041
 IR Inten    --     11.9795                 2.5453                 8.0667

                     19                     20                     21
                      A                      A                      A
 Frequencies --    820.7929               855.3762               858.3916
 Red. masses --      1.6033                 1.2966                 1.4090
 Frc consts  --      0.6364                 0.5589                 0.6117
 IR Inten    --     15.0151                 9.4720                64.8073

                     22                     23                     24
                      A                      A                      A
 Frequencies --    870.7376               884.1705               915.7120
 Red. masses --      1.4447                 2.3563                 1.4245
 Frc consts  --      0.6453                 1.0853                 0.7037
 IR Inten    --    277.1953                15.8081                 8.1560

                     25                     26                     27
                      A                      A                      A
 Frequencies --   1013.2998              1052.2692              1100.6511
 Red. masses --      2.3579                 1.8928                 1.9615
 Frc consts  --      1.4264                 1.2348                 1.4001
 IR Inten    --     25.0253                 1.4341                 1.6415

                     28                     29                     30
                      A                      A                      A
 Frequencies --   1117.8150              1211.0633              1218.8166
 Red. masses --      1.9786                 1.5667                 2.6745
 Frc consts  --      1.4566                 1.3538                 2.3409
 IR Inten    --      3.5781                 2.0093                 3.2048

                     31                     32                     33
                      A                      A                      A
 Frequencies --   1231.6246              1255.9768              1293.8583
 Red. masses --      1.2852                 1.9159                 2.2258
 Frc consts  --      1.1487                 1.7807                 2.1954
 IR Inten    --      0.5833                 0.2790                 6.0054

                     34                     35                     36
                      A                      A                      A
 Frequencies --   1319.4083              1337.2977              1397.0782
 Red. masses --      1.2893                 1.9201                 1.4362
 Frc consts  --      1.3224                 2.0232                 1.6516
 IR Inten    --      1.2263                29.4298                 6.5994

                     37                     38                     39
                      A                      A                      A
 Frequencies --   1411.2483              1417.7055              1448.2274
 Red. masses --      2.4016                 2.0730                 1.2801
 Frc consts  --      2.8182                 2.4548                 1.5819
 IR Inten    --     15.4140                30.1135                 4.9558

                     40                     41                     42
                      A                      A                      A
 Frequencies --   1473.7517              1506.6126              1513.4325
 Red. masses --      3.7073                 1.0952                 1.0797
 Frc consts  --      4.7441                 1.4647                 1.4570
 IR Inten    --     42.4842                 6.5224                 1.2397

                     43                     44                     45
                      A                      A                      A
 Frequencies --   1528.4887              1536.9095              1578.6954
 Red. masses --      1.0568                 1.0538                 5.8630
 Frc consts  --      1.4547                 1.4666                 8.6093
 IR Inten    --      4.5738                 8.3676                48.4670

                     46                     47                     48
                      A                      A                      A
 Frequencies --   1633.6695              1685.3211              1704.7679
 Red. masses --      2.9598                 1.1648                 1.3378
 Frc consts  --      4.6542                 1.9492                 2.2908
 IR Inten    --      6.8712                36.2389                66.0372

                     49                     50                     51
                      A                      A                      A
 Frequencies --   3047.8462              3053.2610              3073.1521
 Red. masses --      1.0654                 1.0364                 1.0599
 Frc consts  --      5.8310                 5.6924                 5.8975
 IR Inten    --     28.5047                21.4331                46.3672

                     52                     53                     54
                      A                      A                      A
 Frequencies --   3096.5018              3117.9822              3125.6554
 Red. masses --      1.0989                 1.1035                 1.1029
 Frc consts  --      6.2077                 6.3205                 6.3483
 IR Inten    --      6.9371                17.2977                34.2597

                     55                     56                     57
                      A                      A                      A
 Frequencies --   3131.5794              3237.0395              3470.8110
 Red. masses --      1.1025                 1.0958                 1.0482
 Frc consts  --      6.3704                 6.7652                 7.4400
 IR Inten    --     43.1879                14.1138                 2.0275

                     58                     59                     60
                      A                      A                      A
 Frequencies --   3479.8197              3541.4850              3569.2542
 Red. masses --      1.0484                 1.0939                 1.0946
 Frc consts  --      7.4800                 8.0834                 8.2163
 IR Inten    --     11.2032                 1.1808                15.7007

 - Thermochemistry -
 -------------------
 Temperature   298.150 Kelvin.  Pressure   1.00000 Atm.
 Atom     1 has atomic number  6 and mass  12.00000

 Molecular mass:   140.10620 amu.
 Principal axes and moments of inertia in atomic units:
                           1         2         3
     Eigenvalues --   794.964691879.686222160.75557
           X            0.99998  -0.00550  -0.00307
           Y            0.00542   0.99966  -0.02556
           Z            0.00321   0.02554   0.99967
 This molecule is an asymmetric top.
 Rotational symmetry number  1.
 Warning -- assumption of classical behavior for rotation
           may cause significant error
 Rotational temperatures (Kelvin)      0.10895     0.04608     0.04009
 Rotational constants (GHZ):           2.27022     0.96013     0.83524
 Zero-point vibrational energy     501761.9 (Joules/Mol)
                                  119.92397 (Kcal/Mol)
 Warning -- explicit consideration of  14 degrees of freedom as
           vibrations may cause significant error
 Vibrational temperatures:     44.66    79.77   175.05   242.00   289.62
          (Kelvin)            351.31   369.63   425.41   431.45   443.86
                              475.82   642.66   762.46   878.21   947.63
                              975.18  1078.44  1099.29  1180.94  1230.70
                             1235.03  1252.80  1272.12  1317.51  1457.91
                             1513.98  1583.59  1608.29  1742.45  1753.61
                             1772.03  1807.07  1861.57  1898.33  1924.07
                             2010.08  2030.47  2039.76  2083.68  2120.40
                             2167.68  2177.49  2199.15  2211.27  2271.39
                             2350.49  2424.80  2452.78  4385.17  4392.96
                             4421.58  4455.18  4486.08  4497.12  4505.64
                             4657.38  4993.72  5006.68  5095.41  5135.36

 Zero-point correction=                           0.191111 (Hartree/Particle)
 Thermal correction to Energy=                    0.201812
 Thermal correction to Enthalpy=                  0.202756
 Thermal correction to Gibbs Free Energy=         0.154353
 Sum of electronic and zero-point Energies=           -454.685791
 Sum of electronic and thermal Energies=              -454.675090
 Sum of electronic and thermal Enthalpies=            -454.674146
 Sum of electronic and thermal Free Energies=         -454.722549

                     E (Thermal)             CV                S
                      KCal/Mol        Cal/Mol-Kelvin    Cal/Mol-Kelvin
 Total                  126.639             39.134            101.872
 Electronic               0.000              0.000              0.000
 Translational            0.889              2.981             40.723
 Rotational               0.889              2.981             29.558
 Vibrational            124.861             33.172             31.591
 Vibration     1          0.594              1.983              5.762
 Vibration     2          0.596              1.975              4.613
 Vibration     3          0.609              1.931              3.074
 Vibration     4          0.625              1.882              2.456
 Vibration     5          0.638              1.838              2.121
 Vibration     6          0.659              1.772              1.772
 Vibration     7          0.666              1.751              1.683
 Vibration     8          0.690              1.682              1.441
 Vibration     9          0.692              1.674              1.418
 Vibration    10          0.698              1.658              1.370
 Vibration    11          0.713              1.614              1.257
 Vibration    12          0.806              1.368              0.806
 Vibration    13          0.885              1.184              0.587
 Vibration    14          0.969              1.010              0.432

 Optimization completed.
    -- Stationary point found.

 1\1\GINC-NODE116\Freq\RB3LYP\6-31G(d)\C6H12N4\VSC10255\08-Dec-2020\0\\
 #N Geom=AllCheck Guess=TCheck SCRF=Check GenChk RB3LYP/6-31G(d) Freq\\
 CID_13007233_JID_249_neutraal\\0,1\C,1.1216432423,-0.168620717,-0.1650
 172262\C,0.1638200138,0.2410081555,-1.2850119446\C,0.3493222785,-0.590
 3867127,-2.5588226008\N,0.1728211135,-2.0112236848,-2.3117974675\C,1.1
 238951112,-2.9810043805,-2.2761603927\C,0.5063576623,-4.1376383403,-1.
 8144851215\C,-0.8378187075,-3.7498924062,-1.5923487711\N,-1.0461631428
 ,-2.471469782,-1.8956170853\N,1.2031784637,-5.3742721876,-1.6647174741

 Normal termination of Gaussian 16 at Tue Dec  8 10:30:00 2020.

 ----------------------------------------------------------------------
 # B3LYP/6-311++G(d,p) empiricaldispersion=gd3bj scf=xqc pop=npa geom=c
 heck
 ----------------------------------------------------------------------

 -------------------------------------
 CID_13007233_JID_249_Energie_neutraal
 -------------------------------------
 Structure from the checkpoint file:  "JID_249.chk"
 Charge =  0 Multiplicity = 1

 SCF Done:  E(RB3LYP) =  -455.017306696     A.U. after   14 cycles
 Normal termination of Gaussian 16 at Tue Dec  8 10:31:43 2020.

 ----------------------------------------------------------------------
 # B3LYP/6-311++G(d,p) empiricaldispersion=gd3bj scf=xqc pop=npa geom=c
 heck
 ----------------------------------------------------------------------

 -----------------------------------
 CID_13007233_JID_249_Energie_kation
 -----------------------------------
 Structure from the checkpoint file:  "JID_249.chk"
 Charge =  1 Multiplicity = 2

 SCF Done:  E(UB3LYP) =  -454.729509490     A.U. after   22 cycles
 Normal termination of Gaussian 16 at Tue Dec  8 10:37:05 2020.
 Gaussian 16:  ES64L-G16RevA.03 25-Dec-2016

 ----------------------------------
 CID_13007233_JID_249_Energie_anion
 ----------------------------------
 Structure from the checkpoint file:  "JID_249.chk"
 Charge = -1 Multiplicity = 2

                         Standard orientation:
 ---------------------------------------------------------------------
 Center     Atomic      Atomic             Coordinates (Angstroms)
 Number     Number       Type             X           Y           Z
 ---------------------------------------------------------------------
      1          6           0       -2.339474    0.467139    1.419122
      2          6           0       -2.663256   -0.267478    0.117156
      3          6           0       -1.662605    0.038841   -1.002258
      4          7           0       -0.301081   -0.296612   -0.621897
      5          6           0        0.717470    0.549549   -0.317178
      6          6           0        1.760092   -0.230033    0.170150
      7          6           0        1.257363   -1.553460    0.122116
      8          7           0        0.018196   -1.600524   -0.359541
      9          7           0        3.010696    0.325078    0.576470
     10          7           0        0.639054    1.941102   -0.417428
     11          1           0       -1.368597    0.148522    1.811793
     12          1           0       -3.096750    0.261427    2.183229
     13          1           0       -2.294304    1.551601    1.265296
     14          1           0       -2.666123   -1.349379    0.287494
     15          1           0       -3.664078    0.007406   -0.241433
     16          1           0       -1.915208   -0.518596   -1.910299
     17          1           0       -1.676084    1.106723   -1.239949
     18          1           0        1.758107   -2.472614    0.402538
     19          1           0        3.183744    0.169578    1.567745
     20          1           0        3.787395   -0.097468    0.072048
     21          1           0        0.424521    2.261144   -1.358873
     22          1           0        1.541790    2.320999   -0.137458
 ---------------------------------------------------------------------

 SCF Done:  E(UB3LYP) =  -455.003486055     A.U. after   28 cycles

 The electronic state is 2-A.
 Alpha  occ. eigenvalues --  -14.26540 -14.20666 -14.20556 -14.19140 -10.11881
 Alpha  occ. eigenvalues --  -10.10406 -10.07239 -10.07016 -10.06922 -10.05617
 Alpha  occ. eigenvalues --   -0.93217  -0.80313  -0.77579  -0.72955  -0.66548
 Alpha  occ. eigenvalues --   -0.63054  -0.57704  -0.50846  -0.48425  -0.44503
 Alpha  occ. eigenvalues --   -0.41980  -0.38407  -0.37338  -0.36708  -0.35635
 Alpha  occ. eigenvalues --   -0.34648  -0.31745  -0.31019  -0.29699  -0.28680
 Alpha  occ. eigenvalues --   -0.25108  -0.24924  -0.23960  -0.20617  -0.19158
 Alpha  occ. eigenvalues --   -0.14322  -0.13239  -0.09906   0.04692
 Alpha virt. eigenvalues --    0.06696   0.07631   0.08712   0.09857   0.10215
 Alpha virt. eigenvalues --    0.10466   0.11084   0.11954   0.12728   0.12996
 Alpha virt. eigenvalues --    0.13869   0.14323   0.15697   0.16812   0.17474

  Beta  occ. eigenvalues --  -14.26541 -14.20661 -14.20490 -14.19074 -10.11877
  Beta  occ. eigenvalues --  -10.10380 -10.07234 -10.07013 -10.06912 -10.05601
  Beta  occ. eigenvalues --   -0.93205  -0.80226  -0.77489  -0.72915  -0.66520
  Beta  occ. eigenvalues --   -0.62994  -0.57660  -0.50809  -0.48381  -0.44438
  Beta  occ. eigenvalues --   -0.41908  -0.38346  -0.37268  -0.36656  -0.35589
  Beta  occ. eigenvalues --   -0.34623  -0.31715  -0.30980  -0.29668  -0.28642
  Beta  occ. eigenvalues --   -0.25070  -0.24899  -0.23938  -0.20574  -0.19123
  Beta  occ. eigenvalues --   -0.14265  -0.13226  -0.09872
  Beta virt. eigenvalues --    0.07129   0.07875   0.08683   0.09062   0.10305
  Beta virt. eigenvalues --    0.10865   0.10878   0.11523   0.12561   0.12843
  Beta virt. eigenvalues --    0.13374   0.14227   0.14773   0.15935   0.16912

 Mulliken charges and spin densities:
               1          2
     1  C    0.041563  -0.510508
     2  C   -0.681138   0.356821
     3  C    0.714185  -0.844552
     4  N    0.236674   0.130917
     5  C   -0.676726   0.352454
     6  C    1.383284  -1.429934
     7  C    1.194101  -1.308167
     8  N   -0.481526   0.113273
     9  N   -0.541691   0.151283
    10  N   -0.381358  -0.012798
    11  H    0.053256   0.111853
    12  H   -0.178954   0.308120
    13  H    0.098630   0.028020
    14  H    0.207451  -0.059579
    15  H   -0.172210   0.304251
    16  H   -0.092161   0.266879
    17  H   -0.317748   0.434633
    18  H   -0.104951   0.240324
    19  H   -0.358072   0.614922
    20  H   -0.417958   0.675413
    21  H   -0.470217   0.740103
    22  H   -0.054432   0.336272
 Sum of Mulliken charges =  -1.00000   1.00000

 Dipole moment (field-independent basis, Debye):
    X=             -4.3403    Y=             -3.1396    Z=              0.7775  Tot=              5.4130
 Quadrupole moment (field-independent basis, Debye-Ang):
   XX=           -118.5005   YY=            -99.0499   ZZ=            -91.8806
   XY=              0.1177   XZ=             -4.8968   YZ=              4.3809

 Summary of Natural Population Analysis:

                                       Natural Population
                Natural  -----------------------------------------------
    Atom  No    Charge         Core      Valence    Rydberg      Total
 -----------------------------------------------------------------------
      C    1   -0.28831      0.99966     2.28428    0.00437     3.28831
      C    2   -0.19394      0.99964     2.18685    0.00745     3.19394
      C    3   -0.08102      0.99960     2.06869    0.01272     3.08102
      N    4   -0.12789      0.99961     2.61340    0.01489     3.62789
      C    5    0.17886      0.99943     1.80623    0.01547     2.82114
      C    6   -0.00976      0.99939     1.99636    0.01401     3.00976
      C    7   -0.01470      0.99957     2.00001    0.01511     3.01470
      N    8   -0.17206      0.99974     2.66088    0.01145     3.67206
      N    9   -0.42385      0.99975     2.91315    0.01095     3.92385
      N   10   -0.40754      0.99972     2.89777    0.01005     3.90754
      H   11    0.10349      0.00000     0.39530    0.00121     0.39651
      H   12    0.09491      0.00000     0.40424    0.00085     0.40509
      H   13    0.09989      0.00000     0.39887    0.00124     0.40011
      H   14    0.10091      0.00000     0.39778    0.00131     0.39909
      H   15    0.09404      0.00000     0.40487    0.00109     0.40596
      H   16    0.09972      0.00000     0.39898    0.00130     0.40028
      H   17    0.10329      0.00000     0.39471    0.00200     0.39671
      H   18    0.09424      0.00000     0.40472    0.00104     0.40576
      H   19    0.18173      0.00000     0.31385    0.00442     0.31827
      H   20    0.18279      0.00000     0.31190    0.00531     0.31721
      H   21    0.18861      0.00000     0.30367    0.00772     0.31139
      H   22    0.19659      0.00000     0.30029    0.00311     0.30341
 =======================================================================
   * Total *   -0.00000      9.99612    27.85681    0.14707    38.00000

 Normal termination of Gaussian 16 at Tue Dec  8 10:43:31 2020.
