 Gaussian 16, Revision A.03,

 -----------------------------------------------------------
 # opt freq B3LYP/6-31G(d) empiricaldispersion=gd3bj scf=xqc
 -----------------------------------------------------------

 ------------------------------
 CID_53639958_JID_1008_neutraal
 ------------------------------
 Symbolic Z-matrix:
 Charge =  0 Multiplicity = 1

 SCF Done:  E(RB3LYP) =  -516.498366758     A.U. after   14 cycles
 SCF Done:  E(RB3LYP) =  -516.503167553     A.U. after   12 cycles
 SCF Done:  E(RB3LYP) =  -516.503313795     A.U. after   11 cycles
 SCF Done:  E(RB3LYP) =  -516.503919568     A.U. after   11 cycles
 SCF Done:  E(RB3LYP) =  -516.504029377     A.U. after   10 cycles
 SCF Done:  E(RB3LYP) =  -516.504088334     A.U. after   10 cycles
 SCF Done:  E(RB3LYP) =  -516.504119640     A.U. after   10 cycles
 SCF Done:  E(RB3LYP) =  -516.504149261     A.U. after   10 cycles
 SCF Done:  E(RB3LYP) =  -516.504184336     A.U. after   10 cycles
 SCF Done:  E(RB3LYP) =  -516.504264979     A.U. after   11 cycles
 SCF Done:  E(RB3LYP) =  -516.505798793     A.U. after    9 cycles
 SCF Done:  E(RB3LYP) =  -516.505830220     A.U. after   10 cycles
 SCF Done:  E(RB3LYP) =  -516.505842266     A.U. after   10 cycles
 SCF Done:  E(RB3LYP) =  -516.505844598     A.U. after    8 cycles
 SCF Done:  E(RB3LYP) =  -516.505844732     A.U. after    7 cycles
 SCF Done:  E(RB3LYP) =  -516.505844760     A.U. after    6 cycles
 Optimization completed.
    -- Stationary point found.
 Normal termination of Gaussian 16 at Tue Dec  8 19:18:25 2020.

 --------------------------------------------------------------------
 #N Geom=AllCheck Guess=TCheck SCRF=Check GenChk RB3LYP/6-31G(d) Freq
 --------------------------------------------------------------------

 Structure from the checkpoint file:  "JID_1008.chk"
 ------------------------------
 CID_53639958_JID_1008_neutraal
 ------------------------------
 Charge =  0 Multiplicity = 1

 SCF Done:  E(RB3LYP) =  -516.505844760     A.U. after    1 cycles

  Exact polarizability: 110.186  -1.632 106.871   2.127  -1.524  79.004
 Approx polarizability: 149.324   0.777 140.005   5.497  -4.187 114.758

                      1                      2                      3
                      A                      A                      A
 Frequencies --     64.3201                71.0246                99.8515
 Red. masses --      3.1834                 2.8819                 2.9050
 Frc consts  --      0.0078                 0.0086                 0.0171
 IR Inten    --      2.2421                 0.2102                 0.9702

                      4                      5                      6
                      A                      A                      A
 Frequencies --    123.0216               138.9761               148.2559
 Red. masses --      2.6402                 3.5068                 2.7927
 Frc consts  --      0.0235                 0.0399                 0.0362
 IR Inten    --      0.2939                 3.2978                 4.7430

                      7                      8                      9
                      A                      A                      A
 Frequencies --    201.2748               226.6688               250.8182
 Red. masses --      1.1653                 1.2376                 1.1853
 Frc consts  --      0.0278                 0.0375                 0.0439
 IR Inten    --      0.9513                 1.1184                 0.4179

                     10                     11                     12
                      A                      A                      A
 Frequencies --    255.7279               270.2495               296.2049
 Red. masses --      2.4576                 2.9971                 1.5997
 Frc consts  --      0.0947                 0.1290                 0.0827
 IR Inten    --      0.4309                 1.8665                 3.6146

                     13                     14                     15
                      A                      A                      A
 Frequencies --    313.9287               353.6202               381.9372
 Red. masses --      1.4205                 2.5993                 2.8541
 Frc consts  --      0.0825                 0.1915                 0.2453
 IR Inten    --      2.0085                 2.5008                 2.4448

                     16                     17                     18
                      A                      A                      A
 Frequencies --    414.4133               452.7570               492.6908
 Red. masses --      2.2018                 2.3736                 3.3750
 Frc consts  --      0.2228                 0.2867                 0.4827
 IR Inten    --     12.2151                 4.0259                 4.8410

                     19                     20                     21
                      A                      A                      A
 Frequencies --    556.6015               621.1470               774.1592
 Red. masses --      2.9530                 3.9987                 3.1326
 Frc consts  --      0.5390                 0.9090                 1.1061
 IR Inten    --     33.6534                 5.5441                 0.6757

                     22                     23                     24
                      A                      A                      A
 Frequencies --    777.9032               808.9012               829.8889
 Red. masses --      1.6937                 1.6673                 2.5024
 Frc consts  --      0.6039                 0.6428                 1.0154
 IR Inten    --     21.7365                42.4968                51.2915

                     25                     26                     27
                      A                      A                      A
 Frequencies --    862.6566               925.1576              1024.1570
 Red. masses --      4.0902                 2.0338                 2.5146
 Frc consts  --      1.7934                 1.0256                 1.5540
 IR Inten    --     25.8011                 3.0811                 9.2527

                     28                     29                     30
                      A                      A                      A
 Frequencies --   1033.7942              1063.0566              1077.3623
 Red. masses --      2.0899                 1.9528                 1.4797
 Frc consts  --      1.3160                 1.3003                 1.0119
 IR Inten    --     60.0338                33.4728                 6.9357

                     31                     32                     33
                      A                      A                      A
 Frequencies --   1111.8841              1119.3376              1136.1330
 Red. masses --      1.7817                 1.8916                 1.2745
 Frc consts  --      1.2978                 1.3964                 0.9693
 IR Inten    --     75.8598                11.4486                 9.5691

                     34                     35                     36
                      A                      A                      A
 Frequencies --   1164.7551              1175.1677              1185.7017
 Red. masses --      1.4509                 2.1856                 1.5613
 Frc consts  --      1.1597                 1.7784                 1.2933
 IR Inten    --      4.7846                36.7827                39.4456

                     37                     38                     39
                      A                      A                      A
 Frequencies --   1218.8720              1262.6927              1272.3697
 Red. masses --      2.0838                 2.4629                 3.0230
 Frc consts  --      1.8240                 2.3136                 2.8835
 IR Inten    --     39.8492                35.1095                24.6186

                     40                     41                     42
                      A                      A                      A
 Frequencies --   1312.2852              1355.1097              1366.2991
 Red. masses --      2.4713                 1.5542                 1.3766
 Frc consts  --      2.5075                 1.6816                 1.5141
 IR Inten    --     34.3766               166.0457                34.6500

                     43                     44                     45
                      A                      A                      A
 Frequencies --   1406.2650              1432.2297              1435.6129
 Red. masses --      1.2479                 1.4098                 1.3878
 Frc consts  --      1.4540                 1.7039                 1.6852
 IR Inten    --      3.6093                70.7305                66.3310

                     46                     47                     48
                      A                      A                      A
 Frequencies --   1461.8839              1465.9694              1479.6885
 Red. masses --      1.2075                 1.3396                 1.3619
 Frc consts  --      1.5204                 1.6962                 1.7568
 IR Inten    --     11.3068                51.4476                19.4056

                     49                     50                     51
                      A                      A                      A
 Frequencies --   1498.2096              1507.5149              1513.2515
 Red. masses --      1.1838                 1.0848                 1.1595
 Frc consts  --      1.5656                 1.4526                 1.5644
 IR Inten    --      9.2394                19.0393                16.3262

                     52                     53                     54
                      A                      A                      A
 Frequencies --   1514.3541              1520.3367              1525.0878
 Red. masses --      1.0526                 1.0666                 1.1269
 Frc consts  --      1.4222                 1.4526                 1.5442
 IR Inten    --      5.6946                 3.3693                18.2696

                     55                     56                     57
                      A                      A                      A
 Frequencies --   1532.8541              1539.4975              1541.1940
 Red. masses --      1.0533                 1.1547                 1.0624
 Frc consts  --      1.4582                 1.6125                 1.4868
 IR Inten    --      5.3766                53.2551                 6.9422

                     58                     59                     60
                      A                      A                      A
 Frequencies --   1543.5697              1546.2258              1563.9429
 Red. masses --      1.0675                 1.0536                 1.0595
 Frc consts  --      1.4986                 1.4842                 1.5269
 IR Inten    --     13.5761                12.9514                 6.6802

                     61                     62                     63
                      A                      A                      A
 Frequencies --   1767.8931              2934.2099              2937.5571
 Red. masses --      6.6817                 1.0622                 1.0683
 Frc consts  --     12.3040                 5.3881                 5.4317
 IR Inten    --    346.4122                43.3383                22.1914

                     64                     65                     66
                      A                      A                      A
 Frequencies --   2949.2573              3014.9568              3052.8946
 Red. masses --      1.0649                 1.0484                 1.0384
 Frc consts  --      5.4576                 5.6148                 5.7024
 IR Inten    --    190.9945                90.6476                25.5299

                     67                     68                     69
                      A                      A                      A
 Frequencies --   3080.7832              3087.0685              3095.2084
 Red. masses --      1.0711                 1.0649                 1.0727
 Frc consts  --      5.9894                 5.9792                 6.0547
 IR Inten    --     25.3280                27.3771                31.8795

                     70                     71                     72
                      A                      A                      A
 Frequencies --   3096.6486              3107.3985              3110.1184
 Red. masses --      1.0897                 1.0893                 1.1011
 Frc consts  --      6.1567                 6.1972                 6.2755
 IR Inten    --     40.4402                18.2521                31.1206

                     73                     74                     75
                      A                      A                      A
 Frequencies --   3127.2308              3144.2661              3147.9761
 Red. masses --      1.1036                 1.0991                 1.1011
 Frc consts  --      6.3587                 6.4020                 6.4287
 IR Inten    --     29.8538                25.6728                10.8882

                     76                     77                     78
                      A                      A                      A
 Frequencies --   3155.1497              3162.4428              3561.4584
 Red. masses --      1.1037                 1.1019                 1.0742
 Frc consts  --      6.4734                 6.4931                 8.0281
 IR Inten    --     19.1551                16.4383                15.8636

 - Thermochemistry -
 -------------------
 Temperature   298.150 Kelvin.  Pressure   1.00000 Atm.
 Atom     1 has atomic number  6 and mass  12.00000

 Molecular mass:   159.13716 amu.
 Principal axes and moments of inertia in atomic units:
                           1         2         3
     Eigenvalues --  1400.906882036.905102964.36055
           X            0.99888  -0.04725  -0.00311
           Y            0.04726   0.99887   0.00422
           Z            0.00290  -0.00436   0.99999
 This molecule is an asymmetric top.
 Rotational symmetry number  1.
 Warning -- assumption of classical behavior for rotation
           may cause significant error
 Rotational temperatures (Kelvin)      0.06183     0.04252     0.02922
 Rotational constants (GHZ):           1.28827     0.88602     0.60881
 Zero-point vibrational energy     664832.7 (Joules/Mol)
                                  158.89882 (Kcal/Mol)
 Warning -- explicit consideration of  19 degrees of freedom as
           vibrations may cause significant error
 Vibrational temperatures:     92.54   102.19   143.66   177.00   199.96
          (Kelvin)            213.31   289.59   326.13   360.87   367.94
                              388.83   426.17   451.67   508.78   549.52
                              596.25   651.42   708.87   800.83   893.69
                             1113.84  1119.23  1163.83  1194.03  1241.17
                             1331.10  1473.53  1487.40  1529.50  1550.08
                             1599.75  1610.48  1634.64  1675.82  1690.80
                             1705.96  1753.68  1816.73  1830.66  1888.09
                             1949.70  1965.80  2023.30  2060.66  2065.53
                             2103.32  2109.20  2128.94  2155.59  2168.98
                             2177.23  2178.82  2187.43  2194.26  2205.44
                             2214.99  2217.43  2220.85  2224.67  2250.16
                             2543.60  4221.67  4226.49  4243.32  4337.85
                             4392.43  4432.56  4441.60  4453.31  4455.39
                             4470.85  4474.77  4499.39  4523.90  4529.24
                             4539.56  4550.05  5124.14

 Zero-point correction=                           0.253221 (Hartree/Particle)
 Thermal correction to Energy=                    0.266356
 Thermal correction to Enthalpy=                  0.267300
 Thermal correction to Gibbs Free Energy=         0.214306
 Sum of electronic and zero-point Energies=           -516.252623
 Sum of electronic and thermal Energies=              -516.239489
 Sum of electronic and thermal Enthalpies=            -516.238545
 Sum of electronic and thermal Free Energies=         -516.291538

                     E (Thermal)             CV                S
                      KCal/Mol        Cal/Mol-Kelvin    Cal/Mol-Kelvin
 Total                  167.141             47.747            111.534
 Electronic               0.000              0.000              0.000
 Translational            0.889              2.981             41.103
 Rotational               0.889              2.981             30.515
 Vibrational            165.363             41.785             39.916
 Vibration     1          0.597              1.971              4.320
 Vibration     2          0.598              1.968              4.125
 Vibration     3          0.604              1.949              3.457
 Vibration     4          0.610              1.930              3.052
 Vibration     5          0.615              1.914              2.818
 Vibration     6          0.618              1.905              2.694
 Vibration     7          0.638              1.838              2.121
 Vibration     8          0.650              1.800              1.905
 Vibration     9          0.663              1.761              1.725
 Vibration    10          0.666              1.753              1.691
 Vibration    11          0.674              1.728              1.595
 Vibration    12          0.690              1.681              1.438
 Vibration    13          0.702              1.647              1.342
 Vibration    14          0.730              1.568              1.150
 Vibration    15          0.751              1.509              1.031
 Vibration    16          0.778              1.439              0.911
 Vibration    17          0.811              1.355              0.787
 Vibration    18          0.848              1.266              0.677
 Vibration    19          0.912              1.125              0.531

 Optimization completed.
    -- Stationary point found.
 Normal termination of Gaussian 16 at Tue Dec  8 19:24:33 2020.

 ----------------------------------------------------------------------
 # B3LYP/6-311++G(d,p) empiricaldispersion=gd3bj scf=xqc pop=npa geom=c
 heck
 ----------------------------------------------------------------------

 --------------------------------------
 CID_53639958_JID_1008_Energie_neutraal
 --------------------------------------
 Structure from the checkpoint file:  "JID_1008.chk"
 Charge =  0 Multiplicity = 1

 SCF Done:  E(RB3LYP) =  -516.659355564     A.U. after   13 cycles
 Normal termination of Gaussian 16 at Tue Dec  8 19:26:41 2020.

 ----------------------------------------------------------------------
 # B3LYP/6-311++G(d,p) empiricaldispersion=gd3bj scf=xqc pop=npa geom=c
 heck
 ----------------------------------------------------------------------

 ------------------------------------
 CID_53639958_JID_1008_Energie_kation
 ------------------------------------
 Structure from the checkpoint file:  "JID_1008.chk"
 Charge =  1 Multiplicity = 2

 SCF Done:  E(UB3LYP) =  -516.359915530     A.U. after   23 cycles
 Normal termination of Gaussian 16 at Tue Dec  8 19:31:44 2020.
 Gaussian 16:  ES64L-G16RevA.03 25-Dec-2016

 ----------------------------------------------------------------------
 # B3LYP/6-311++G(d,p) empiricaldispersion=gd3bj scf=xqc pop=npa geom=c
 heck
 ----------------------------------------------------------------------

 -----------------------------------
 CID_53639958_JID_1008_Energie_anion
 -----------------------------------
 Structure from the checkpoint file:  "JID_1008.chk"
 Charge = -1 Multiplicity = 2

                         Standard orientation:
 ---------------------------------------------------------------------
 Center     Atomic      Atomic             Coordinates (Angstroms)
 Number     Number       Type             X           Y           Z
 ---------------------------------------------------------------------
      1          6           0        1.996451   -2.222522   -0.608849
      2          6           0        1.198952   -1.557682    0.514437
      3          7           0        0.559094   -0.293354    0.118050
      4          6           0       -0.654633   -0.388030   -0.672170
      5          7           0       -1.885365   -0.134568    0.080538
      6          6           0       -3.032690   -0.166775   -0.814048
      7          6           0       -2.056614   -1.030668    1.213667
      8          6           0        1.411494    0.801765    0.038016
      9          8           0        2.615394    0.698774    0.263617
     10          7           0        0.857600    2.017487   -0.366773
     11          6           0       -0.307492    2.620296    0.292746
     12          1           0        1.361062   -2.446684   -1.473809
     13          1           0        2.429342   -3.166550   -0.258267
     14          1           0        2.806731   -1.562981   -0.926675
     15          1           0        0.409997   -2.226082    0.871152
     16          1           0        1.858282   -1.338904    1.356114
     17          1           0       -0.612500    0.341550   -1.485560
     18          1           0       -0.678643   -1.396593   -1.126860
     19          1           0       -3.189501   -1.156761   -1.285381
     20          1           0       -3.938732    0.089685   -0.256417
     21          1           0       -2.900039    0.572261   -1.611776
     22          1           0       -2.129701   -2.095830    0.917383
     23          1           0       -1.214892   -0.915609    1.900456
     24          1           0       -2.973718   -0.763672    1.748190
     25          1           0        1.631019    2.669660   -0.445234
     26          1           0       -1.091635    1.873391    0.424593
     27          1           0       -0.050002    3.040252    1.276436
     28          1           0       -0.692337    3.427425   -0.338768
 ---------------------------------------------------------------------

 SCF Done:  E(UB3LYP) =  -516.644867231     A.U. after   29 cycles

 The electronic state is 2-A.
 Alpha  occ. eigenvalues --  -18.98351 -14.23747 -14.22492 -14.20698 -10.19142
 Alpha  occ. eigenvalues --  -10.12876 -10.10283 -10.08861 -10.08215 -10.08176
 Alpha  occ. eigenvalues --  -10.06193  -0.94928  -0.85425  -0.81278  -0.80069
 Alpha  occ. eigenvalues --   -0.65897  -0.61021  -0.60441  -0.58931  -0.54228
 Alpha  occ. eigenvalues --   -0.50768  -0.45342  -0.42162  -0.39546  -0.38569
 Alpha  occ. eigenvalues --   -0.37550  -0.35665  -0.34532  -0.34320  -0.33280
 Alpha  occ. eigenvalues --   -0.31641  -0.30689  -0.29437  -0.28754  -0.28495
 Alpha  occ. eigenvalues --   -0.27919  -0.26738  -0.26474  -0.26375  -0.24826
 Alpha  occ. eigenvalues --   -0.18286  -0.15250  -0.14753  -0.12148   0.04573
 Alpha virt. eigenvalues --    0.06819   0.07428   0.07848   0.09345   0.09693
 Alpha virt. eigenvalues --    0.09939   0.10224   0.10502   0.12060   0.12242
 Alpha virt. eigenvalues --    0.12702   0.13063   0.13378   0.14247   0.14493

  Beta  occ. eigenvalues --  -18.98346 -14.23743 -14.22486 -14.20682 -10.19141
  Beta  occ. eigenvalues --  -10.12857 -10.10271 -10.08832 -10.08175 -10.08126
  Beta  occ. eigenvalues --  -10.06176  -0.94921  -0.85405  -0.81257  -0.80046
  Beta  occ. eigenvalues --   -0.65872  -0.60972  -0.60376  -0.58882  -0.54192
  Beta  occ. eigenvalues --   -0.50680  -0.45304  -0.42128  -0.39506  -0.38532
  Beta  occ. eigenvalues --   -0.37508  -0.35632  -0.34502  -0.34292  -0.33230
  Beta  occ. eigenvalues --   -0.31616  -0.30650  -0.29401  -0.28712  -0.28465
  Beta  occ. eigenvalues --   -0.27888  -0.26697  -0.26448  -0.26329  -0.24804
  Beta  occ. eigenvalues --   -0.18274  -0.15229  -0.14739  -0.12066
  Beta virt. eigenvalues --    0.06902   0.07565   0.08167   0.08584   0.09919
  Beta virt. eigenvalues --    0.10254   0.10417   0.10722   0.11087   0.12303
  Beta virt. eigenvalues --    0.12671   0.13202   0.13414   0.13634   0.14600

 Mulliken charges and spin densities:
               1          2
     1  C    0.218483  -0.709656
     2  C   -0.082408   0.002310
     3  N    0.054037   0.013526
     4  C   -0.954474   0.107087
     5  N   -0.095982   0.252436
     6  C    1.110238  -1.466077
     7  C    0.852030  -1.269743
     8  C    0.204886  -0.050499
     9  O   -0.375205   0.002251
    10  N   -0.385251   0.174719
    11  C    0.559268  -0.959936
    12  H   -0.198281   0.320026
    13  H   -0.119262   0.249888
    14  H    0.156753   0.021662
    15  H   -0.004229   0.143549
    16  H    0.063154   0.120393
    17  H    0.149687   0.077837
    18  H    0.013751   0.110950
    19  H   -0.422562   0.546684
    20  H   -0.409580   0.554641
    21  H   -0.412648   0.552383
    22  H   -0.313489   0.456372
    23  H   -0.194904   0.357705
    24  H   -0.226126   0.387347
    25  H    0.146796   0.137303
    26  H    0.249470   0.009090
    27  H   -0.096611   0.234543
    28  H   -0.487542   0.623206
 Sum of Mulliken charges =  -1.00000   1.00000

 Dipole moment (field-independent basis, Debye):
    X=              5.0935    Y=              0.2735    Z=              0.4898  Tot=              5.1242
 Quadrupole moment (field-independent basis, Debye-Ang):
   XX=           -136.5203   YY=           -117.8993   ZZ=           -102.9207
   XY=             -1.0220   XZ=             -2.6308   YZ=              0.5889

 Summary of Natural Population Analysis:

                                       Natural Population
                Natural  -----------------------------------------------
    Atom  No    Charge         Core      Valence    Rydberg      Total
 -----------------------------------------------------------------------
      C    1   -0.29565      0.99966     2.29100    0.00499     3.29565
      C    2   -0.08597      0.99962     2.07537    0.01099     3.08597
      N    3   -0.26999      0.99964     2.76033    0.01002     3.76999
      C    4    0.01217      0.99958     1.97438    0.01387     2.98783
      N    5   -0.28791      0.99974     2.77409    0.01408     3.78791
      C    6   -0.17864      0.99964     2.16991    0.00909     3.17864
      C    7   -0.17974      0.99963     2.17094    0.00917     3.17974
      C    8    0.41626      0.99966     1.56127    0.02280     2.58374
      O    9   -0.34235      0.99988     3.33748    0.00500     4.34235
      N   10   -0.33559      0.99969     2.82652    0.00938     3.83559
      C   11   -0.18803      0.99963     2.17935    0.00905     3.18803
      H   12    0.09656      0.00000     0.40240    0.00103     0.40344
      H   13    0.09793      0.00000     0.40123    0.00085     0.40207
      H   14    0.10772      0.00000     0.39133    0.00095     0.39228
      H   15    0.09640      0.00000     0.40225    0.00135     0.40360
      H   16    0.10527      0.00000     0.39370    0.00103     0.39473
      H   17    0.10437      0.00000     0.39362    0.00201     0.39563
      H   18    0.08507      0.00000     0.41320    0.00173     0.41493
      H   19    0.08339      0.00000     0.41437    0.00224     0.41661
      H   20    0.10028      0.00000     0.39785    0.00187     0.39972
      H   21    0.09780      0.00000     0.40022    0.00198     0.40220
      H   22    0.08242      0.00000     0.41564    0.00194     0.41758
      H   23    0.09772      0.00000     0.40061    0.00166     0.40228
      H   24    0.09974      0.00000     0.39888    0.00138     0.40026
      H   25    0.18679      0.00000     0.31078    0.00243     0.31321
      H   26    0.11638      0.00000     0.38118    0.00245     0.38362
      H   27    0.08321      0.00000     0.41544    0.00135     0.41679
      H   28    0.09442      0.00000     0.40397    0.00161     0.40558
 =======================================================================
   * Total *    0.00000     10.99636    32.85733    0.14631    44.00000

 Normal termination of Gaussian 16 at Tue Dec  8 19:38:03 2020.
