 Gaussian 16, Revision A.03,

 -----------------------------------------------------------
 # opt freq B3LYP/6-31G(d) empiricaldispersion=gd3bj scf=xqc
 -----------------------------------------------------------

 -------------------------------
 CID_102646874_JID_3445_neutraal
 -------------------------------
 Symbolic Z-matrix:
 Charge =  0 Multiplicity = 1

 SCF Done:  E(RB3LYP) =  -612.742469645     A.U. after   15 cycles
 SCF Done:  E(RB3LYP) =  -612.747337666     A.U. after   13 cycles
 SCF Done:  E(RB3LYP) =  -612.747958480     A.U. after   13 cycles
 SCF Done:  E(RB3LYP) =  -612.748158651     A.U. after   13 cycles
 SCF Done:  E(RB3LYP) =  -612.748613931     A.U. after   12 cycles
 SCF Done:  E(RB3LYP) =  -612.748696124     A.U. after   11 cycles
 SCF Done:  E(RB3LYP) =  -612.748709787     A.U. after   10 cycles
 SCF Done:  E(RB3LYP) =  -612.748716629     A.U. after    9 cycles
 SCF Done:  E(RB3LYP) =  -612.748718460     A.U. after    9 cycles
 SCF Done:  E(RB3LYP) =  -612.748718652     A.U. after    8 cycles
 SCF Done:  E(RB3LYP) =  -612.748718712     A.U. after    7 cycles
 Optimization completed.
    -- Stationary point found.
 Normal termination of Gaussian 16 at Wed Dec  9 23:14:06 2020.

 --------------------------------------------------------------------
 #N Geom=AllCheck Guess=TCheck SCRF=Check GenChk RB3LYP/6-31G(d) Freq
 --------------------------------------------------------------------

 Structure from the checkpoint file:  "JID_3445.chk"
 -------------------------------
 CID_102646874_JID_3445_neutraal
 -------------------------------
 Charge =  0 Multiplicity = 1

 SCF Done:  E(RB3LYP) =  -612.748718712     A.U. after    1 cycles

  Exact polarizability: 156.081   8.200 112.882   1.257  -0.106  57.123
 Approx polarizability: 206.293  25.243 203.983   3.819   0.938  87.695

                      1                      2                      3
                      A                      A                      A
 Frequencies --     33.5127                54.7461               115.3079
 Red. masses --      4.4386                 3.7882                 4.4124
 Frc consts  --      0.0029                 0.0067                 0.0346
 IR Inten    --      1.2872                 1.4350                 0.0749

                      4                      5                      6
                      A                      A                      A
 Frequencies --    127.5824               194.0617               223.5034
 Red. masses --      5.2962                 6.2603                 2.5136
 Frc consts  --      0.0508                 0.1389                 0.0740
 IR Inten    --      1.3122                 2.0572                 0.8831

                      7                      8                      9
                      A                      A                      A
 Frequencies --    251.6994               300.6537               312.2939
 Red. masses --      5.3798                 2.1709                 3.7419
 Frc consts  --      0.2008                 0.1156                 0.2150
 IR Inten    --      5.9792                 1.6501                 0.9615

                     10                     11                     12
                      A                      A                      A
 Frequencies --    409.1361               504.7262               511.4540
 Red. masses --      8.3967                 5.7616                 2.9020
 Frc consts  --      0.8281                 0.8648                 0.4473
 IR Inten    --      5.0059                 7.2353                 2.1555

                     13                     14                     15
                      A                      A                      A
 Frequencies --    546.6701               592.8730               618.8839
 Red. masses --      4.6246                 5.0139                 3.5943
 Frc consts  --      0.8143                 1.0384                 0.8111
 IR Inten    --      2.3476                 4.6208                16.0217

                     16                     17                     18
                      A                      A                      A
 Frequencies --    626.4427               742.5354               767.7191
 Red. masses --      3.8350                 1.3036                 2.5451
 Frc consts  --      0.8867                 0.4235                 0.8838
 IR Inten    --      0.8340                16.2496                45.1338

                     19                     20                     21
                      A                      A                      A
 Frequencies --    780.4742               818.2703               844.4647
 Red. masses --      2.8711                 1.4499                 1.5169
 Frc consts  --      1.0304                 0.5720                 0.6373
 IR Inten    --     32.7169                 7.1398                 7.1185

                     22                     23                     24
                      A                      A                      A
 Frequencies --    859.8309               881.5582               893.6827
 Red. masses --      4.0728                 1.3774                 5.6478
 Frc consts  --      1.7741                 0.6307                 2.6576
 IR Inten    --     10.6262                 5.4260                29.8554

                     25                     26                     27
                      A                      A                      A
 Frequencies --    899.6972               914.5739               946.2629
 Red. masses --      2.3471                 1.6847                 2.8829
 Frc consts  --      1.1194                 0.8303                 1.5209
 IR Inten    --     48.2801                 8.1392                23.4627

                     28                     29                     30
                      A                      A                      A
 Frequencies --    982.5214              1016.1983              1055.3413
 Red. masses --      2.9577                 1.9758                 2.8928
 Frc consts  --      1.6822                 1.2021                 1.8983
 IR Inten    --      9.4045                 8.3268                32.5202

                     31                     32                     33
                      A                      A                      A
 Frequencies --   1091.7844              1098.7067              1112.4969
 Red. masses --      1.4859                 3.0258                 1.6634
 Frc consts  --      1.0435                 2.1521                 1.2130
 IR Inten    --     15.1071                56.2538                18.7654

                     34                     35                     36
                      A                      A                      A
 Frequencies --   1114.8787              1182.2832              1208.1308
 Red. masses --      2.2954                 3.4269                 2.9820
 Frc consts  --      1.6810                 2.8223                 2.5644
 IR Inten    --     30.2996                 9.5056               169.5148

                     37                     38                     39
                      A                      A                      A
 Frequencies --   1229.2276              1259.6157              1270.3018
 Red. masses --      1.4403                 1.2433                 1.4584
 Frc consts  --      1.2823                 1.1623                 1.3865
 IR Inten    --      4.8784                 7.3737                15.3237

                     40                     41                     42
                      A                      A                      A
 Frequencies --   1314.3793              1329.5615              1350.2335
 Red. masses --      1.1710                 1.5599                 2.7324
 Frc consts  --      1.1919                 1.6246                 2.9351
 IR Inten    --      4.5412                46.4634               123.5833

                     43                     44                     45
                      A                      A                      A
 Frequencies --   1390.1479              1396.6731              1420.3580
 Red. masses --      1.5782                 1.6999                 3.8004
 Frc consts  --      1.7970                 1.9537                 4.5172
 IR Inten    --      0.6276                22.4624                13.1063

                     46                     47                     48
                      A                      A                      A
 Frequencies --   1439.0833              1501.5549              1515.5129
 Red. masses --      1.5678                 1.0880                 1.1053
 Frc consts  --      1.9130                 1.4453                 1.4957
 IR Inten    --     17.5069                 4.5209                 5.3264

                     49                     50                     51
                      A                      A                      A
 Frequencies --   1531.6098              1558.1701              1613.6216
 Red. masses --      1.1058                 4.4060                 5.8121
 Frc consts  --      1.5284                 6.3026                 8.9164
 IR Inten    --      1.4265                91.8400                42.6455

                     52                     53                     54
                      A                      A                      A
 Frequencies --   1692.0955              1748.1601              3017.6898
 Red. masses --      8.7141                10.2409                 1.0693
 Frc consts  --     14.7001                18.4395                 5.7371
 IR Inten    --    170.0563                55.9609                28.0299

                     55                     56                     57
                      A                      A                      A
 Frequencies --   3028.9854              3056.5886              3068.2438
 Red. masses --      1.0701                 1.0790                 1.0733
 Frc consts  --      5.7844                 5.9392                 5.9533
 IR Inten    --     44.9913                 9.2860                40.8199

                     58                     59                     60
                      A                      A                      A
 Frequencies --   3107.8044              3127.7597              3233.0078
 Red. masses --      1.1045                 1.0976                 1.0897
 Frc consts  --      6.2852                 6.3262                 6.7110
 IR Inten    --     36.9978                32.7587                 0.0212

                     61                     62                     63
                      A                      A                      A
 Frequencies --   3291.1144              3312.7969              3350.4166
 Red. masses --      1.0897                 1.1072                 1.0984
 Frc consts  --      6.9541                 7.1593                 7.2647
 IR Inten    --      0.7792                 2.0987                 2.1314

 - Thermochemistry -
 -------------------
 Temperature   298.150 Kelvin.  Pressure   1.00000 Atm.
 Atom     1 has atomic number  6 and mass  12.00000

 Molecular mass:   178.06299 amu.
 Principal axes and moments of inertia in atomic units:
                           1         2         3
     Eigenvalues --   946.998903730.128014612.84155
           X            0.99994  -0.01093  -0.00013
           Y            0.01093   0.99994  -0.00208
           Z            0.00016   0.00208   1.00000
 This molecule is an asymmetric top.
 Rotational symmetry number  1.
 Warning -- assumption of classical behavior for rotation
           may cause significant error
 Rotational temperatures (Kelvin)      0.09146     0.02322     0.01878
 Rotational constants (GHZ):           1.90575     0.48383     0.39124
 Zero-point vibrational energy     483229.6 (Joules/Mol)
                                  115.49463 (Kcal/Mol)
 Warning -- explicit consideration of  15 degrees of freedom as
           vibrations may cause significant error
 Vibrational temperatures:     48.22    78.77   165.90   183.56   279.21
          (Kelvin)            321.57   362.14   432.57   449.32   588.66
                              726.19   735.87   786.54   853.01   890.44
                              901.31  1068.34  1104.58  1122.93  1177.31
                             1215.00  1237.10  1268.37  1285.81  1294.46
                             1315.87  1361.46  1413.63  1462.08  1518.40
                             1570.83  1580.79  1600.63  1604.06  1701.04
                             1738.23  1768.58  1812.31  1827.68  1891.10
                             1912.94  1942.68  2000.11  2009.50  2043.58
                             2070.52  2160.40  2180.48  2203.64  2241.86
                             2321.64  2434.55  2515.21  4341.78  4358.03
                             4397.75  4414.52  4471.44  4500.15  4651.58
                             4735.18  4766.38  4820.50

 Zero-point correction=                           0.184052 (Hartree/Particle)
 Thermal correction to Energy=                    0.194855
 Thermal correction to Enthalpy=                  0.195800
 Thermal correction to Gibbs Free Energy=         0.146158
 Sum of electronic and zero-point Energies=           -612.564666
 Sum of electronic and thermal Energies=              -612.553863
 Sum of electronic and thermal Enthalpies=            -612.552919
 Sum of electronic and thermal Free Energies=         -612.602561

                     E (Thermal)             CV                S
                      KCal/Mol        Cal/Mol-Kelvin    Cal/Mol-Kelvin
 Total                  122.274             41.267            104.479
 Electronic               0.000              0.000              0.000
 Translational            0.889              2.981             41.438
 Rotational               0.889              2.981             31.167
 Vibrational            120.496             35.305             31.875
 Vibration     1          0.594              1.983              5.610
 Vibration     2          0.596              1.976              4.638
 Vibration     3          0.608              1.937              3.178
 Vibration     4          0.611              1.926              2.982
 Vibration     5          0.635              1.848              2.189
 Vibration     6          0.649              1.805              1.931
 Vibration     7          0.664              1.760              1.719
 Vibration     8          0.693              1.672              1.413
 Vibration     9          0.701              1.650              1.350
 Vibration    10          0.774              1.450              0.930
 Vibration    11          0.860              1.240              0.646
 Vibration    12          0.867              1.225              0.630
 Vibration    13          0.902              1.147              0.551
 Vibration    14          0.950              1.047              0.462
 Vibration    15          0.979              0.992              0.418

 Optimization completed.
    -- Stationary point found.
 Normal termination of Gaussian 16 at Wed Dec  9 23:18:53 2020.

 ----------------------------------------------------------------------
 # B3LYP/6-311++G(d,p) empiricaldispersion=gd3bj scf=xqc pop=npa geom=c
 heck
 ----------------------------------------------------------------------

 ---------------------------------------
 CID_102646874_JID_3445_Energie_neutraal
 ---------------------------------------
 Structure from the checkpoint file:  "JID_3445.chk"
 Charge =  0 Multiplicity = 1

 SCF Done:  E(RB3LYP) =  -612.918453644     A.U. after   15 cycles
 Normal termination of Gaussian 16 at Wed Dec  9 23:20:36 2020.

 ----------------------------------------------------------------------
 # B3LYP/6-311++G(d,p) empiricaldispersion=gd3bj scf=xqc pop=npa geom=c
 heck
 ----------------------------------------------------------------------

 -------------------------------------
 CID_102646874_JID_3445_Energie_kation
 -------------------------------------
 Structure from the checkpoint file:  "JID_3445.chk"
 Charge =  1 Multiplicity = 2

 SCF Done:  E(UB3LYP) =  -612.611023447     A.U. after   25 cycles
 Normal termination of Gaussian 16 at Wed Dec  9 23:24:26 2020.
 Gaussian 16:  ES64L-G16RevA.03 25-Dec-2016

 ----------------------------------------------------------------------
 # B3LYP/6-311++G(d,p) empiricaldispersion=gd3bj scf=xqc pop=npa geom=c
 heck
 ----------------------------------------------------------------------

 ------------------------------------
 CID_102646874_JID_3445_Energie_anion
 ------------------------------------
 Structure from the checkpoint file:  "JID_3445.chk"
 Charge = -1 Multiplicity = 2

                         Standard orientation:
 ---------------------------------------------------------------------
 Center     Atomic      Atomic             Coordinates (Angstroms)
 Number     Number       Type             X           Y           Z
 ---------------------------------------------------------------------
      1          6           0        3.374856   -0.886543   -0.378972
      2          6           0        3.443784    0.596808    0.011208
      3          6           0        2.063975    1.184468    0.069421
      4          6           0        0.951786    0.432367    0.022813
      5          8           0        0.956761   -0.939341   -0.018276
      6          6           0        2.204864   -1.545568    0.343118
      7          6           0       -0.404222    1.067576    0.013425
      8          8           0       -0.500921    2.292239    0.023983
      9          6           0       -1.622466    0.239115   -0.007052
     10          6           0       -1.805955   -1.121829   -0.015166
     11          8           0       -3.126005   -1.421315   -0.034307
     12          6           0       -3.813431   -0.230166   -0.038122
     13          6           0       -2.948276    0.810558   -0.022160
     14          1           0        4.305438   -1.409214   -0.131752
     15          1           0        3.217824   -0.984410   -1.459466
     16          1           0        3.945878    0.716334    0.983111
     17          1           0        4.056432    1.154588   -0.708947
     18          1           0        1.926001    2.258178    0.124483
     19          1           0        2.099701   -2.601386    0.083000
     20          1           0        2.330140   -1.460402    1.432309
     21          1           0       -1.128215   -1.956515   -0.012024
     22          1           0       -4.888485   -0.316745   -0.052427
     23          1           0       -3.172875    1.866195   -0.020556
 ---------------------------------------------------------------------

 SCF Done:  E(UB3LYP) =  -612.926482523     A.U. after   30 cycles

 The electronic state is 2-A.
 Alpha  occ. eigenvalues --  -19.05069 -19.00806 -18.90346 -10.10295 -10.08974
 Alpha  occ. eigenvalues --  -10.06855 -10.06130 -10.05600 -10.05465 -10.04713
 Alpha  occ. eigenvalues --  -10.03546 -10.02423  -9.99850  -0.97588  -0.92527
 Alpha  occ. eigenvalues --   -0.84610  -0.67725  -0.66345  -0.63471  -0.61176
 Alpha  occ. eigenvalues --   -0.52876  -0.52059  -0.48054  -0.44017  -0.43069
 Alpha  occ. eigenvalues --   -0.40317  -0.38704  -0.34955  -0.33524  -0.31969
 Alpha  occ. eigenvalues --   -0.31612  -0.30819  -0.30299  -0.28321  -0.26338
 Alpha  occ. eigenvalues --   -0.26078  -0.25684  -0.24663  -0.23183  -0.22812
 Alpha  occ. eigenvalues --   -0.20542  -0.19202  -0.17866  -0.13923  -0.10112
 Alpha  occ. eigenvalues --   -0.08151  -0.07762   0.04895
 Alpha virt. eigenvalues --    0.07402   0.09015   0.09741   0.10212   0.10746
 Alpha virt. eigenvalues --    0.12066   0.12477   0.12833   0.13097   0.13342
 Alpha virt. eigenvalues --    0.14346   0.16365   0.16700   0.17580   0.17906

  Beta  occ. eigenvalues --  -19.04992 -19.00811 -18.89764 -10.10288 -10.09027
  Beta  occ. eigenvalues --  -10.06554 -10.06144 -10.05448 -10.05226 -10.04736
  Beta  occ. eigenvalues --  -10.03503 -10.02493  -9.99558  -0.97417  -0.92507
  Beta  occ. eigenvalues --   -0.83555  -0.67615  -0.66243  -0.63172  -0.60924
  Beta  occ. eigenvalues --   -0.52631  -0.51668  -0.47736  -0.43773  -0.42833
  Beta  occ. eigenvalues --   -0.40166  -0.38542  -0.34646  -0.33434  -0.31473
  Beta  occ. eigenvalues --   -0.31401  -0.30706  -0.30151  -0.28164  -0.26245
  Beta  occ. eigenvalues --   -0.25881  -0.25258  -0.24322  -0.22867  -0.21595
  Beta  occ. eigenvalues --   -0.20098  -0.18808  -0.17430  -0.13252  -0.09070
  Beta  occ. eigenvalues --   -0.07359  -0.06584
  Beta virt. eigenvalues --    0.07658   0.09000   0.09727   0.10174   0.10833
  Beta virt. eigenvalues --    0.11480   0.12038   0.12600   0.12971   0.13093
  Beta virt. eigenvalues --    0.13545   0.14292   0.16471   0.16702   0.17660

 Mulliken charges and spin densities:
               1          2
     1  C   -0.180954  -0.086245
     2  C   -0.379133  -0.210205
     3  C   -0.373999   0.391882
     4  C    0.441627  -0.090836
     5  O   -0.107330   0.021582
     6  C   -0.064535  -0.169932
     7  C   -0.500580   0.152601
     8  O   -0.416408   0.217666
     9  C    0.148569  -0.114167
    10  C   -0.575712   0.217641
    11  O   -0.051130   0.007851
    12  C   -0.398575  -0.049383
    13  C    0.630705   0.063342
    14  H   -0.250829   0.389434
    15  H    0.128203  -0.000586
    16  H    0.048923   0.085521
    17  H    0.088759   0.023127
    18  H    0.199386  -0.015639
    19  H    0.035769   0.101276
    20  H    0.063585   0.071161
    21  H    0.205648  -0.006106
    22  H    0.140115   0.002745
    23  H    0.167898  -0.002731
 Sum of Mulliken charges =  -1.00000   1.00000

 Dipole moment (field-independent basis, Debye):
    X=             -0.2509    Y=             -3.2419    Z=             -0.3007  Tot=              3.2655
 Quadrupole moment (field-independent basis, Debye-Ang):
   XX=           -107.3664   YY=           -100.2481   ZZ=            -86.2408
   XY=              0.9613   XZ=             -2.5305   YZ=              0.0329

 Summary of Natural Population Analysis:

                                       Natural Population
                Natural  -----------------------------------------------
    Atom  No    Charge         Core      Valence    Rydberg      Total
 -----------------------------------------------------------------------
      C    1   -0.20504      0.99964     2.19708    0.00833     3.20504
      C    2   -0.20505      0.99963     2.19627    0.00915     3.20505
      C    3   -0.07906      0.99950     2.07022    0.00934     3.07906
      C    4    0.11556      0.99933     1.87179    0.01332     2.88444
      O    5   -0.29083      0.99987     3.28113    0.00983     4.29083
      C    6   -0.00911      0.99958     1.99541    0.01413     3.00911
      C    7    0.28597      0.99956     1.69504    0.01943     2.71403
      O    8   -0.24945      0.99989     3.24417    0.00540     4.24945
      C    9   -0.11415      0.99951     2.10457    0.01007     3.11415
      C   10    0.13592      0.99950     1.85131    0.01327     2.86408
      O   11   -0.23725      0.99987     3.22862    0.00877     4.23725
      C   12    0.02176      0.99952     1.96433    0.01439     2.97824
      C   13   -0.12383      0.99954     2.11501    0.00928     3.12383
      H   14    0.09615      0.00000     0.40249    0.00137     0.40385
      H   15    0.09624      0.00000     0.40261    0.00115     0.40376
      H   16    0.09710      0.00000     0.40139    0.00151     0.40290
      H   17    0.09667      0.00000     0.40222    0.00111     0.40333
      H   18    0.10895      0.00000     0.39001    0.00104     0.39105
      H   19    0.08547      0.00000     0.41353    0.00100     0.41453
      H   20    0.07987      0.00000     0.41880    0.00133     0.42013
      H   21    0.09580      0.00000     0.40219    0.00201     0.40420
      H   22    0.08598      0.00000     0.41305    0.00097     0.41402
      H   23    0.11235      0.00000     0.38651    0.00113     0.38765
 =======================================================================
   * Total *   -0.00000     12.99492    33.84776    0.15732    47.00000

 Normal termination of Gaussian 16 at Wed Dec  9 23:29:01 2020.
