 Gaussian 16, Revision A.03,

 -----------------------------------------------------------
 # opt freq B3LYP/6-31G(d) empiricaldispersion=gd3bj scf=xqc
 -----------------------------------------------------------

 --------------------------------
 CID_140973143_JID_10187_neutraal
 --------------------------------
 Symbolic Z-matrix:
 Charge =  0 Multiplicity = 1

 SCF Done:  E(RB3LYP) =  -825.988924881     A.U. after   14 cycles
 SCF Done:  E(RB3LYP) =  -825.996013173     A.U. after   12 cycles
 SCF Done:  E(RB3LYP) =  -825.996414820     A.U. after   11 cycles
 SCF Done:  E(RB3LYP) =  -825.997007237     A.U. after   11 cycles
 SCF Done:  E(RB3LYP) =  -825.997271794     A.U. after   11 cycles
 SCF Done:  E(RB3LYP) =  -825.997458655     A.U. after   11 cycles
 SCF Done:  E(RB3LYP) =  -825.997524127     A.U. after   10 cycles
 SCF Done:  E(RB3LYP) =  -825.997607352     A.U. after   11 cycles
 SCF Done:  E(RB3LYP) =  -825.997621848     A.U. after   10 cycles
 SCF Done:  E(RB3LYP) =  -825.997636225     A.U. after    9 cycles
 SCF Done:  E(RB3LYP) =  -825.997648220     A.U. after   10 cycles
 SCF Done:  E(RB3LYP) =  -825.997649102     A.U. after    8 cycles
 SCF Done:  E(RB3LYP) =  -825.997649876     A.U. after    8 cycles
 SCF Done:  E(RB3LYP) =  -825.997649970     A.U. after    7 cycles
 Optimization completed.
    -- Stationary point found.
 Normal termination of Gaussian 16 at Sun Dec 13 12:49:09 2020.

 --------------------------------------------------------------------
 #N Geom=AllCheck Guess=TCheck SCRF=Check GenChk RB3LYP/6-31G(d) Freq
 --------------------------------------------------------------------

 Structure from the checkpoint file:  "JID_10187.chk"
 --------------------------------
 CID_140973143_JID_10187_neutraal
 --------------------------------
 Charge =  0 Multiplicity = 1

 SCF Done:  E(RB3LYP) =  -825.997649970     A.U. after    1 cycles

  Exact polarizability: 260.615   1.118 205.615  11.842   1.729 124.324
 Approx polarizability: 372.754  15.870 315.761  29.945   8.397 192.859

                      1                      2                      3
                      A                      A                      A
 Frequencies --     30.5223                42.6994                58.4010
 Red. masses --      3.4161                 2.9467                 3.7711
 Frc consts  --      0.0019                 0.0032                 0.0076
 IR Inten    --      0.4926                 0.1448                 0.9786

                      4                      5                      6
                      A                      A                      A
 Frequencies --     76.5098                88.7098               110.1004
 Red. masses --      2.8962                 3.6705                 3.6654
 Frc consts  --      0.0100                 0.0170                 0.0262
 IR Inten    --      0.7896                 0.9793                 0.4530

                      7                      8                      9
                      A                      A                      A
 Frequencies --    135.0719               144.9837               209.4987
 Red. masses --      2.6373                 3.7982                 2.9480
 Frc consts  --      0.0283                 0.0470                 0.0762
 IR Inten    --      1.2745                 0.5994                 0.1409

                     10                     11                     12
                      A                      A                      A
 Frequencies --    219.6243               252.8850               261.5404
 Red. masses --      4.0766                 2.2813                 1.8437
 Frc consts  --      0.1159                 0.0860                 0.0743
 IR Inten    --      0.6912                 1.9356                 0.2745

                     13                     14                     15
                      A                      A                      A
 Frequencies --    292.9752               319.7529               349.8209
 Red. masses --      3.4461                 3.9813                 2.6235
 Frc consts  --      0.1743                 0.2398                 0.1892
 IR Inten    --      1.8004                 3.6292                 6.8715

                     16                     17                     18
                      A                      A                      A
 Frequencies --    361.6015               414.8525               424.9474
 Red. masses --      2.7981                 2.5465                 1.6745
 Frc consts  --      0.2156                 0.2582                 0.1782
 IR Inten    --      4.4020                46.1125                39.2035

                     19                     20                     21
                      A                      A                      A
 Frequencies --    438.2749               445.8975               464.2701
 Red. masses --      2.9237                 2.1410                 3.0914
 Frc consts  --      0.3309                 0.2508                 0.3926
 IR Inten    --      2.2247                46.1562                 3.5983

                     22                     23                     24
                      A                      A                      A
 Frequencies --    496.3994               506.7495               561.6316
 Red. masses --      3.5615                 4.0637                 2.1000
 Frc consts  --      0.5171                 0.6148                 0.3903
 IR Inten    --      0.7750                 4.1033                 1.9195

                     25                     26                     27
                      A                      A                      A
 Frequencies --    582.6884               598.8908               621.8146
 Red. masses --      1.9173                 4.1519                 3.4555
 Frc consts  --      0.3835                 0.8774                 0.7872
 IR Inten    --      1.1286                 2.8178                 3.7838

                     28                     29                     30
                      A                      A                      A
 Frequencies --    634.4654               668.4633               720.1961
 Red. masses --      5.7945                 5.0655                 4.3745
 Frc consts  --      1.3743                 1.3336                 1.3368
 IR Inten    --      3.3912                 9.1409                 3.0339

                     31                     32                     33
                      A                      A                      A
 Frequencies --    752.4850               762.7367               772.7166
 Red. masses --      1.4679                 2.6817                 4.2609
 Frc consts  --      0.4897                 0.9192                 1.4990
 IR Inten    --     44.2186                 2.1101                 6.2995

                     34                     35                     36
                      A                      A                      A
 Frequencies --    818.4245               822.1633               855.1038
 Red. masses --      2.4209                 1.9475                 1.5242
 Frc consts  --      0.9554                 0.7756                 0.6566
 IR Inten    --      2.7612                 2.1810                 0.2043

                     37                     38                     39
                      A                      A                      A
 Frequencies --    857.5903               861.9669               866.8747
 Red. masses --      2.0602                 2.3283                 1.4304
 Frc consts  --      0.8927                 1.0192                 0.6333
 IR Inten    --      0.0364                 6.4794                 9.5163

                     40                     41                     42
                      A                      A                      A
 Frequencies --    890.1890               899.5948               909.1099
 Red. masses --      1.9778                 2.7094                 1.4481
 Frc consts  --      0.9234                 1.2919                 0.7051
 IR Inten    --      3.3929                 2.0562                 2.7731

                     43                     44                     45
                      A                      A                      A
 Frequencies --    910.2146               924.4752               935.7221
 Red. masses --      3.2721                 2.8243                 3.0582
 Frc consts  --      1.5972                 1.4222                 1.5777
 IR Inten    --      4.4315                 0.9290                24.4680

                     46                     47                     48
                      A                      A                      A
 Frequencies --    945.0123               955.9178               974.9291
 Red. masses --      1.7453                 1.2116                 1.3286
 Frc consts  --      0.9183                 0.6523                 0.7441
 IR Inten    --      4.2948                 0.1935                 7.7679

                     49                     50                     51
                      A                      A                      A
 Frequencies --    985.1952               997.4658              1042.8617
 Red. masses --      1.6543                 2.1982                 2.3418
 Frc consts  --      0.9460                 1.2886                 1.5006
 IR Inten    --      3.8034                17.5951                 4.7536

                     52                     53                     54
                      A                      A                      A
 Frequencies --   1048.3592              1051.3217              1071.5690
 Red. masses --      2.0227                 2.1816                 2.0755
 Frc consts  --      1.3098                 1.4207                 1.4042
 IR Inten    --     12.5425                36.3355                10.5028

                     55                     56                     57
                      A                      A                      A
 Frequencies --   1079.4338              1135.5961              1143.5118
 Red. masses --      1.6087                 1.8615                 2.6253
 Frc consts  --      1.1044                 1.4144                 2.0226
 IR Inten    --      0.8705                 1.9702                11.7048

                     58                     59                     60
                      A                      A                      A
 Frequencies --   1157.9508              1163.9546              1177.8812
 Red. masses --      2.2429                 2.4869                 1.7547
 Frc consts  --      1.7719                 1.9851                 1.4343
 IR Inten    --     13.6490                12.8010                 0.6488

                     61                     62                     63
                      A                      A                      A
 Frequencies --   1187.2988              1190.0438              1202.8789
 Red. masses --      1.2962                 1.3051                 1.3275
 Frc consts  --      1.0765                 1.0890                 1.1317
 IR Inten    --      2.0245                 5.7554                 3.7934

                     64                     65                     66
                      A                      A                      A
 Frequencies --   1206.8700              1229.9603              1238.8136
 Red. masses --      1.6180                 2.0922                 1.8310
 Frc consts  --      1.3886                 1.8648                 1.6556
 IR Inten    --      8.7768                 0.3874                29.5244

                     67                     68                     69
                      A                      A                      A
 Frequencies --   1261.5314              1266.1214              1278.8582
 Red. masses --      1.4299                 1.6193                 1.2696
 Frc consts  --      1.3407                 1.5295                 1.2234
 IR Inten    --     16.6513                16.3486                 4.5630

                     70                     71                     72
                      A                      A                      A
 Frequencies --   1288.2055              1293.3353              1321.1417
 Red. masses --      1.8137                 1.3443                 1.5777
 Frc consts  --      1.7734                 1.3248                 1.6224
 IR Inten    --     25.2486                15.5603                 4.4496

                     73                     74                     75
                      A                      A                      A
 Frequencies --   1334.7458              1337.1368              1360.6609
 Red. masses --      1.3450                 1.7180                 1.3965
 Frc consts  --      1.4118                 1.8097                 1.5233
 IR Inten    --      1.3167                28.8852                 9.3225

                     76                     77                     78
                      A                      A                      A
 Frequencies --   1363.2216              1370.5849              1377.5650
 Red. masses --      1.8862                 1.3370                 2.3227
 Frc consts  --      2.0653                 1.4797                 2.5969
 IR Inten    --     18.5729                 1.6245                28.0358

                     79                     80                     81
                      A                      A                      A
 Frequencies --   1380.9466              1391.4223              1399.9663
 Red. masses --      1.4272                 1.4728                 1.5754
 Frc consts  --      1.6036                 1.6800                 1.8192
 IR Inten    --      0.2515                23.4600                13.8546

                     82                     83                     84
                      A                      A                      A
 Frequencies --   1405.1893              1407.0535              1424.5275
 Red. masses --      1.5016                 1.4419                 1.4062
 Frc consts  --      1.7470                 1.6819                 1.6813
 IR Inten    --     22.4555                 6.1270                32.2112

                     85                     86                     87
                      A                      A                      A
 Frequencies --   1435.0654              1484.6017              1502.6099
 Red. masses --      2.2115                 2.7373                 1.3036
 Frc consts  --      2.6834                 3.5546                 1.7342
 IR Inten    --      6.1978                21.3867                27.8621

                     88                     89                     90
                      A                      A                      A
 Frequencies --   1507.5929              1510.5591              1515.3466
 Red. masses --      1.4085                 1.1745                 1.1041
 Frc consts  --      1.8861                 1.5790                 1.4938
 IR Inten    --     40.0581                23.7593                 3.1214

                     91                     92                     93
                      A                      A                      A
 Frequencies --   1516.4672              1520.5897              1526.8572
 Red. masses --      1.3895                 1.1146                 1.1596
 Frc consts  --      1.8827                 1.5185                 1.5928
 IR Inten    --     18.9228                11.9026                 1.2085

                     94                     95                     96
                      A                      A                      A
 Frequencies --   1532.5436              1534.9311              1553.8987
 Red. masses --      1.2041                 2.2669                 1.0853
 Frc consts  --      1.6662                 3.1467                 1.5440
 IR Inten    --      0.7607                27.3376                 0.6910

                     97                     98                     99
                      A                      A                      A
 Frequencies --   1566.2111              1634.3565              1637.7160
 Red. masses --      1.1045                 6.1128                 7.3182
 Frc consts  --      1.5964                 9.6202                11.5647
 IR Inten    --      8.2125                17.8081               242.8897

                    100                    101                    102
                      A                      A                      A
 Frequencies --   1681.1308              2982.6031              3006.2062
 Red. masses --      6.4455                 1.0720                 1.0732
 Frc consts  --     10.7328                 5.6186                 5.7145
 IR Inten    --     55.9073                60.4412                58.5457

                    103                    104                    105
                      A                      A                      A
 Frequencies --   3007.0656              3018.1397              3027.1271
 Red. masses --      1.0701                 1.0682                 1.0713
 Frc consts  --      5.7013                 5.7332                 5.7838
 IR Inten    --     51.3730                31.7160                75.7737

                    106                    107                    108
                      A                      A                      A
 Frequencies --   3038.2947              3048.3012              3051.6416
 Red. masses --      1.0601                 1.0805                 1.0697
 Frc consts  --      5.7658                 5.9155                 5.8694
 IR Inten    --     23.2407                12.5099                48.2756

                    109                    110                    111
                      A                      A                      A
 Frequencies --   3054.9329              3063.5020              3068.3450
 Red. masses --      1.0744                 1.0785                 1.0815
 Frc consts  --      5.9075                 5.9634                 5.9993
 IR Inten    --     19.1492                42.4068                57.7552

                    112                    113                    114
                      A                      A                      A
 Frequencies --   3074.9778              3082.4327              3109.0212
 Red. masses --      1.0938                 1.1042                 1.0977
 Frc consts  --      6.0935                 6.1816                 6.2516
 IR Inten    --     61.5935                65.3818                46.9679

                    115                    116                    117
                      A                      A                      A
 Frequencies --   3118.4650              3122.5711              3128.7479
 Red. masses --      1.1049                 1.0947                 1.0933
 Frc consts  --      6.3308                 6.2890                 6.3054
 IR Inten    --     44.7570                22.4768                30.2480

                    118                    119                    120
                      A                      A                      A
 Frequencies --   3147.5283              3177.8071              3184.5367
 Red. masses --      1.0915                 1.0848                 1.0884
 Frc consts  --      6.3712                 6.4542                 6.5034
 IR Inten    --     15.5123                 4.0616                 7.6632

                    121                    122                    123
                      A                      A                      A
 Frequencies --   3195.7597              3207.4017              3643.2713
 Red. masses --      1.0927                 1.0968                 1.0784
 Frc consts  --      6.5750                 6.6477                 8.4337
 IR Inten    --     42.2274                34.2505                32.4885

 - Thermochemistry -
 -------------------
 Temperature   298.150 Kelvin.  Pressure   1.00000 Atm.
 Atom     1 has atomic number  6 and mass  12.00000

 Molecular mass:   269.18920 amu.
 Principal axes and moments of inertia in atomic units:
                           1         2         3
     Eigenvalues --  3840.243176017.828198848.42748
           X            0.99984   0.01746  -0.00239
           Y           -0.01747   0.99984  -0.00308
           Z            0.00234   0.00312   0.99999
 This molecule is an asymmetric top.
 Rotational symmetry number  1.
 Warning -- assumption of classical behavior for rotation
           may cause significant error
 Rotational temperatures (Kelvin)      0.02255     0.01439     0.00979
 Rotational constants (GHZ):           0.46995     0.29990     0.20396
 Zero-point vibrational energy     999131.9 (Joules/Mol)
                                  238.79825 (Kcal/Mol)
 Warning -- explicit consideration of  26 degrees of freedom as
           vibrations may cause significant error
 Vibrational temperatures:     43.91    61.43    84.03   110.08   127.63
          (Kelvin)            158.41   194.34   208.60   301.42   315.99
                              363.85   376.30   421.53   460.05   503.31
                              520.26   596.88   611.40   630.58   641.55
                              667.98   714.21   729.10   808.06   838.36
                              861.67   894.65   912.85   961.77  1036.20
                             1082.66  1097.41  1111.77  1177.53  1182.91
                             1230.30  1233.88  1240.18  1247.24  1280.78
                             1294.32  1308.01  1309.60  1330.11  1346.30
                             1359.66  1375.35  1402.71  1417.48  1435.13
                             1500.45  1508.36  1512.62  1541.75  1553.06
                             1633.87  1645.26  1666.03  1674.67  1694.71
                             1708.26  1712.21  1730.67  1736.42  1769.64
                             1782.38  1815.06  1821.67  1839.99  1853.44
                             1860.82  1900.83  1920.40  1923.84  1957.69
                             1961.37  1971.97  1982.01  1986.87  2001.95
                             2014.24  2021.75  2024.44  2049.58  2064.74
                             2136.01  2161.92  2169.09  2173.36  2180.25
                             2181.86  2187.79  2196.81  2204.99  2208.42
                             2235.71  2253.43  2351.47  2356.31  2418.77
                             4291.30  4325.26  4326.50  4342.43  4355.36
                             4371.43  4385.83  4390.63  4395.37  4407.70
                             4414.66  4424.21  4434.93  4473.19  4486.78
                             4492.68  4501.57  4528.59  4572.16  4581.84
                             4597.99  4614.74  5241.85

 Zero-point correction=                           0.380549 (Hartree/Particle)
 Thermal correction to Energy=                    0.397683
 Thermal correction to Enthalpy=                  0.398627
 Thermal correction to Gibbs Free Energy=         0.335129
 Sum of electronic and zero-point Energies=           -825.617101
 Sum of electronic and thermal Energies=              -825.599967
 Sum of electronic and thermal Enthalpies=            -825.599023
 Sum of electronic and thermal Free Energies=         -825.662521

                     E (Thermal)             CV                S
                      KCal/Mol        Cal/Mol-Kelvin    Cal/Mol-Kelvin
 Total                  249.550             69.341            133.644
 Electronic               0.000              0.000              0.000
 Translational            0.889              2.981             42.670
 Rotational               0.889              2.981             33.680
 Vibrational            247.772             63.380             57.294
 Vibration     1          0.594              1.984              5.795
 Vibration     2          0.595              1.980              5.130
 Vibration     3          0.596              1.974              4.511
 Vibration     4          0.599              1.965              3.978
 Vibration     5          0.602              1.957              3.688
 Vibration     6          0.606              1.941              3.267
 Vibration     7          0.613              1.918              2.873
 Vibration     8          0.616              1.908              2.737
 Vibration     9          0.642              1.826              2.048
 Vibration    10          0.647              1.811              1.962
 Vibration    11          0.664              1.758              1.710
 Vibration    12          0.669              1.743              1.651
 Vibration    13          0.688              1.687              1.457
 Vibration    14          0.706              1.636              1.311
 Vibration    15          0.727              1.576              1.167
 Vibration    16          0.736              1.551              1.115
 Vibration    17          0.778              1.438              0.910
 Vibration    18          0.787              1.416              0.875
 Vibration    19          0.798              1.387              0.832
 Vibration    20          0.805              1.370              0.808
 Vibration    21          0.822              1.329              0.754
 Vibration    22          0.852              1.258              0.667
 Vibration    23          0.862              1.235              0.641
 Vibration    24          0.917              1.114              0.521
 Vibration    25          0.940              1.069              0.480
 Vibration    26          0.957              1.034              0.452

                           ! Non-Optimized Parameters !
 Normal termination of Gaussian 16 at Sun Dec 13 13:19:34 2020.

 ----------------------------------------------------------------------
 # B3LYP/6-311++G(d,p) empiricaldispersion=gd3bj scf=xqc pop=npa geom=c
 heck
 ----------------------------------------------------------------------

 ----------------------------------------
 CID_140973143_JID_10187_Energie_neutraal
 ----------------------------------------
 Structure from the checkpoint file:  "JID_10187.chk"
 Charge =  0 Multiplicity = 1

 SCF Done:  E(RB3LYP) =  -826.209565646     A.U. after   14 cycles
 Normal termination of Gaussian 16 at Sun Dec 13 13:32:38 2020.

 ----------------------------------------------------------------------
 # B3LYP/6-311++G(d,p) empiricaldispersion=gd3bj scf=xqc pop=npa geom=c
 heck
 ----------------------------------------------------------------------

 --------------------------------------
 CID_140973143_JID_10187_Energie_kation
 --------------------------------------
 Structure from the checkpoint file:  "JID_10187.chk"
 Charge =  1 Multiplicity = 2

 SCF Done:  E(UB3LYP) =  -825.971111796     A.U. after   22 cycles
 Normal termination of Gaussian 16 at Sun Dec 13 14:01:55 2020.
 Gaussian 16:  ES64L-G16RevA.03 25-Dec-2016

 ----------------------------------------------------------------------
 # B3LYP/6-311++G(d,p) empiricaldispersion=gd3bj scf=xqc pop=npa geom=c
 heck
 ----------------------------------------------------------------------

 -------------------------------------
 CID_140973143_JID_10187_Energie_anion
 -------------------------------------
 Structure from the checkpoint file:  "JID_10187.chk"
 Charge = -1 Multiplicity = 2

                         Standard orientation:
 ---------------------------------------------------------------------
 Center     Atomic      Atomic             Coordinates (Angstroms)
 Number     Number       Type             X           Y           Z
 ---------------------------------------------------------------------
      1          6           0       -3.981525   -0.678198    0.668477
      2          6           0       -3.261129    0.314090   -0.253904
      3          6           0       -2.421609   -0.420620   -1.306623
      4          7           0       -1.525298   -1.433039   -0.742993
      5          6           0       -2.217078   -2.392485    0.129518
      6          6           0       -2.988767   -1.690547    1.254717
      7          6           0       -0.220148   -1.088818   -0.422442
      8          6           0        0.421881    0.122134   -0.222688
      9          6           0        1.828546   -0.169794   -0.028943
     10          6           0        2.962563    0.619809    0.208516
     11          6           0        4.201769   -0.001375    0.350676
     12          6           0        4.327806   -1.397961    0.265401
     13          6           0        3.211765   -2.207032    0.047504
     14          6           0        1.977392   -1.579772   -0.095673
     15          7           0        0.712782   -2.120899   -0.298361
     16          7           0       -0.191156    1.392082   -0.149337
     17          6           0        0.176242    2.383863   -1.184438
     18          6           0        0.253890    3.732946   -0.444459
     19          6           0       -0.548061    3.488896    0.844918
     20          6           0       -0.195195    2.038578    1.171402
     21          1           0       -4.506349   -0.144854    1.470078
     22          1           0       -4.749205   -1.221543    0.097015
     23          1           0       -3.985627    0.965711   -0.759486
     24          1           0       -2.591638    0.955114    0.326269
     25          1           0       -3.093916   -0.946337   -2.002251
     26          1           0       -1.822073    0.281328   -1.887630
     27          1           0       -1.482195   -3.089861    0.538819
     28          1           0       -2.915975   -2.971078   -0.491412
     29          1           0       -2.269197   -1.175227    1.905106
     30          1           0       -3.508404   -2.436963    1.869030
     31          1           0        2.877934    1.700927    0.274317
     32          1           0        5.086758    0.603111    0.529589
     33          1           0        5.306314   -1.856907    0.373224
     34          1           0        3.304540   -3.288473   -0.010302
     35          1           0        0.554431   -3.025124   -0.717918
     36          1           0       -0.591336    2.400141   -1.972065
     37          1           0        1.128234    2.126802   -1.665474
     38          1           0        1.296004    3.960394   -0.189104
     39          1           0       -0.128066    4.566628   -1.041532
     40          1           0       -0.291023    4.182991    1.650856
     41          1           0       -1.623503    3.575270    0.648121
     42          1           0        0.786578    1.977542    1.670590
     43          1           0       -0.926634    1.551113    1.827236
 ---------------------------------------------------------------------

 SCF Done:  E(UB3LYP) =  -826.197084739     A.U. after   33 cycles
 SCF Done:  E(UB3LYP) =  -826.197084740     a.u. after    1 cycles

 The electronic state is 2-A.
 Alpha  occ. eigenvalues --  -14.25122 -14.23112 -14.20973 -10.14211 -10.11111
 Alpha  occ. eigenvalues --  -10.10430 -10.10076 -10.10067 -10.10003 -10.08711
 Alpha  occ. eigenvalues --  -10.08222 -10.08109 -10.08004 -10.07783 -10.07741
 Alpha  occ. eigenvalues --  -10.07647 -10.07608 -10.07136 -10.07033 -10.06426
 Alpha  occ. eigenvalues --   -0.89685  -0.83784  -0.83658  -0.74878  -0.70960
 Alpha  occ. eigenvalues --   -0.69890  -0.66321  -0.66299  -0.64221  -0.63642
 Alpha  occ. eigenvalues --   -0.62054  -0.56523  -0.53687  -0.52566  -0.51080
 Alpha  occ. eigenvalues --   -0.50083  -0.49686  -0.47351  -0.45638  -0.44066
 Alpha  occ. eigenvalues --   -0.41033  -0.40622  -0.40244  -0.39073  -0.36770
 Alpha  occ. eigenvalues --   -0.36326  -0.35158  -0.34630  -0.34190  -0.33750
 Alpha  occ. eigenvalues --   -0.33486  -0.32562  -0.31951  -0.31150  -0.30066
 Alpha  occ. eigenvalues --   -0.29808  -0.29236  -0.28501  -0.27217  -0.26249
 Alpha  occ. eigenvalues --   -0.25944  -0.25794  -0.25328  -0.25043  -0.24349
 Alpha  occ. eigenvalues --   -0.24185  -0.23088  -0.22655  -0.18499  -0.16273
 Alpha  occ. eigenvalues --   -0.12764  -0.11931  -0.09277   0.03990
 Alpha virt. eigenvalues --    0.05574   0.06128   0.07011   0.07196   0.07517
 Alpha virt. eigenvalues --    0.07658   0.08184   0.08707   0.09174   0.09305
 Alpha virt. eigenvalues --    0.09709   0.10165   0.10782   0.11041   0.11244

  Beta  occ. eigenvalues --  -14.25093 -14.23115 -14.20974 -10.14210 -10.11111
  Beta  occ. eigenvalues --  -10.10403 -10.10067 -10.10054 -10.09996 -10.08711
  Beta  occ. eigenvalues --  -10.08209 -10.08096 -10.07989 -10.07778 -10.07739
  Beta  occ. eigenvalues --  -10.07645 -10.07606 -10.07122 -10.07016 -10.06413
  Beta  occ. eigenvalues --   -0.89664  -0.83778  -0.83644  -0.74864  -0.70939
  Beta  occ. eigenvalues --   -0.69865  -0.66302  -0.66268  -0.64198  -0.63621
  Beta  occ. eigenvalues --   -0.62033  -0.56496  -0.53645  -0.52532  -0.51057
  Beta  occ. eigenvalues --   -0.50057  -0.49646  -0.47320  -0.45607  -0.44029
  Beta  occ. eigenvalues --   -0.41005  -0.40600  -0.40211  -0.39048  -0.36744
  Beta  occ. eigenvalues --   -0.36301  -0.35125  -0.34612  -0.34169  -0.33736
  Beta  occ. eigenvalues --   -0.33470  -0.32540  -0.31933  -0.31126  -0.30048
  Beta  occ. eigenvalues --   -0.29787  -0.29200  -0.28480  -0.27204  -0.26226
  Beta  occ. eigenvalues --   -0.25920  -0.25768  -0.25308  -0.25018  -0.24330
  Beta  occ. eigenvalues --   -0.24166  -0.23058  -0.22624  -0.18486  -0.16261
  Beta  occ. eigenvalues --   -0.12748  -0.11924  -0.09270
  Beta virt. eigenvalues --    0.05813   0.06532   0.06607   0.07311   0.07654
  Beta virt. eigenvalues --    0.07880   0.07932   0.08542   0.08921   0.09509
  Beta virt. eigenvalues --    0.09586   0.09916   0.10321   0.10984   0.11286

 Mulliken charges and spin densities:
               1          2
     1  C    0.673649  -1.262212
     2  C   -0.186699   0.138564
     3  C   -0.169610   0.116963
     4  N    0.236667   0.124747
     5  C    0.662798  -0.939962
     6  C   -0.324760   0.107129
     7  C    0.559824  -0.645263
     8  C   -0.199481  -0.300363
     9  C    0.901325  -0.282975
    10  C   -0.997442   0.513674
    11  C   -0.146090  -0.405065
    12  C    0.706680  -0.850915
    13  C   -1.079347   0.526902
    14  C    0.039347  -0.192737
    15  N   -0.250387   0.026510
    16  N    0.415461   0.020018
    17  C   -0.407082   0.108097
    18  C    0.234401  -0.480968
    19  C    0.094136  -0.496958
    20  C   -0.307888   0.124800
    21  H   -0.363079   0.517457
    22  H    0.051301   0.090394
    23  H   -0.316904   0.493443
    24  H    0.850460  -0.704646
    25  H   -0.229792   0.402827
    26  H    0.061724   0.139091
    27  H   -0.103599   0.263973
    28  H   -0.455128   0.624407
    29  H    0.097221   0.028847
    30  H   -0.312498   0.495949
    31  H    0.020892   0.103669
    32  H    0.026655   0.117325
    33  H    0.143935  -0.007009
    34  H   -0.546473   0.691477
    35  H   -0.226148   0.532377
    36  H   -0.051545   0.146966
    37  H    0.122008   0.022777
    38  H    0.125181  -0.009732
    39  H   -0.185396   0.368828
    40  H   -0.217440   0.381450
    41  H   -0.005583   0.145742
    42  H    0.093364   0.034197
    43  H   -0.034659   0.170203
 Sum of Mulliken charges =  -1.00000   1.00000

 Dipole moment (field-independent basis, Debye):
    X=              4.0527    Y=              3.5036    Z=              0.2384  Tot=              5.3625
 Quadrupole moment (field-independent basis, Debye-Ang):
   XX=           -195.8067   YY=           -193.3704   ZZ=           -156.7216
   XY=              0.4503   XZ=              1.6264   YZ=             -0.8626

 Summary of Natural Population Analysis:

                                       Natural Population
                Natural  -----------------------------------------------
    Atom  No    Charge         Core      Valence    Rydberg      Total
 -----------------------------------------------------------------------
      C    1   -0.18964      0.99963     2.18214    0.00787     3.18964
      C    2   -0.20078      0.99961     2.19269    0.00847     3.20078
      C    3   -0.07811      0.99961     2.06819    0.01031     3.07811
      N    4   -0.26551      0.99966     2.75237    0.01347     3.76551
      C    5   -0.08029      0.99960     2.06944    0.01125     3.08029
      C    6   -0.19745      0.99962     2.18996    0.00786     3.19745
      C    7    0.20235      0.99944     1.78366    0.01455     2.79765
      C    8    0.01891      0.99938     1.97025    0.01146     2.98109
      C    9   -0.04199      0.99946     2.03341    0.00911     3.04199
      C   10   -0.10715      0.99953     2.09972    0.00790     3.10715
      C   11   -0.11641      0.99958     2.10704    0.00979     3.11641
      C   12   -0.11605      0.99958     2.10674    0.00974     3.11605
      C   13   -0.11713      0.99952     2.10794    0.00968     3.11713
      C   14    0.08057      0.99947     1.90842    0.01154     2.91943
      N   15   -0.28451      0.99963     2.77566    0.00921     3.78451
      N   16   -0.28956      0.99969     2.77764    0.01223     3.78956
      C   17   -0.07725      0.99962     2.06810    0.00953     3.07725
      C   18   -0.19682      0.99964     2.18980    0.00738     3.19682
      C   19   -0.19591      0.99963     2.18841    0.00786     3.19591
      C   20   -0.07734      0.99962     2.06820    0.00952     3.07734
      H   21    0.09936      0.00000     0.39954    0.00110     0.40064
      H   22    0.09258      0.00000     0.40586    0.00156     0.40742
      H   23    0.09782      0.00000     0.40094    0.00124     0.40218
      H   24    0.10324      0.00000     0.39435    0.00241     0.39676
      H   25    0.09074      0.00000     0.40805    0.00121     0.40926
      H   26    0.10484      0.00000     0.39383    0.00133     0.39516
      H   27    0.10208      0.00000     0.39623    0.00169     0.39792
      H   28    0.09313      0.00000     0.40509    0.00178     0.40687
      H   29    0.09524      0.00000     0.40324    0.00153     0.40476
      H   30    0.10063      0.00000     0.39824    0.00112     0.39937
      H   31    0.09870      0.00000     0.39953    0.00177     0.40130
      H   32    0.09664      0.00000     0.40259    0.00077     0.40336
      H   33    0.09720      0.00000     0.40208    0.00072     0.40280
      H   34    0.10345      0.00000     0.39539    0.00115     0.39655
      H   35    0.20267      0.00000     0.29284    0.00449     0.29733
      H   36    0.08732      0.00000     0.41147    0.00120     0.41268
      H   37    0.09267      0.00000     0.40621    0.00112     0.40733
      H   38    0.09355      0.00000     0.40522    0.00123     0.40645
      H   39    0.10117      0.00000     0.39789    0.00094     0.39883
      H   40    0.09989      0.00000     0.39927    0.00084     0.40011
      H   41    0.09831      0.00000     0.40019    0.00150     0.40169
      H   42    0.08425      0.00000     0.41440    0.00135     0.41575
      H   43    0.09459      0.00000     0.40416    0.00125     0.40541
 =======================================================================
   * Total *   -0.00000     19.99153    52.77643    0.23204    73.00000

 Normal termination of Gaussian 16 at Sun Dec 13 14:46:27 2020.
