 Gaussian 16, Revision A.03,

 -----------------------------------------------------------
 # opt freq B3LYP/6-31G(d) empiricaldispersion=gd3bj scf=xqc
 -----------------------------------------------------------

 -------------------------------
 CID_151352609_JID_4251_neutraal
 -------------------------------
 Symbolic Z-matrix:
 Charge =  0 Multiplicity = 1

 SCF Done:  E(RB3LYP) =  -1037.89887096     A.U. after   16 cycles
 SCF Done:  E(RB3LYP) =  -1037.90300682     A.U. after   15 cycles
 SCF Done:  E(RB3LYP) =  -1037.90414952     A.U. after   14 cycles
 SCF Done:  E(RB3LYP) =  -1037.90470931     A.U. after   12 cycles
 SCF Done:  E(RB3LYP) =  -1037.90476882     A.U. after   12 cycles
 SCF Done:  E(RB3LYP) =  -1037.90479287     A.U. after   11 cycles
 SCF Done:  E(RB3LYP) =  -1037.90481157     A.U. after   10 cycles
 SCF Done:  E(RB3LYP) =  -1037.90483879     A.U. after   11 cycles
 SCF Done:  E(RB3LYP) =  -1037.90485032     A.U. after   11 cycles
 SCF Done:  E(RB3LYP) =  -1037.90485228     A.U. after   10 cycles
 SCF Done:  E(RB3LYP) =  -1037.90485248     A.U. after    8 cycles
 Optimization completed.
    -- Stationary point found.
 Normal termination of Gaussian 16 at Thu Dec 10 09:18:19 2020.

 --------------------------------------------------------------------
 #N Geom=AllCheck Guess=TCheck SCRF=Check GenChk RB3LYP/6-31G(d) Freq
 --------------------------------------------------------------------

 Structure from the checkpoint file:  "JID_4251.chk"
 -------------------------------
 CID_151352609_JID_4251_neutraal
 -------------------------------
 Charge =  0 Multiplicity = 1

 SCF Done:  E(RB3LYP) =  -1037.90485248     A.U. after    1 cycles

  Exact polarizability: 190.891  13.158 116.139  -0.984   0.591  61.453
 Approx polarizability: 296.732  35.398 220.180  -0.579   3.543 107.230

                      1                      2                      3
                      A                      A                      A
 Frequencies --     49.5077                78.3112               101.0657
 Red. masses --      9.5764                 5.5410                 5.8673
 Frc consts  --      0.0138                 0.0200                 0.0353
 IR Inten    --      0.8984                 2.3042                 3.0463

                      4                      5                      6
                      A                      A                      A
 Frequencies --    114.7370               186.3348               223.6244
 Red. masses --     11.2200                 3.5318                 4.7292
 Frc consts  --      0.0870                 0.0722                 0.1393
 IR Inten    --      1.2317                 2.9752                 0.8037

                      7                      8                      9
                      A                      A                      A
 Frequencies --    236.7535               288.5682               335.5141
 Red. masses --      8.8320                10.2218                 5.3675
 Frc consts  --      0.2917                 0.5015                 0.3560
 IR Inten    --      6.4435                 1.1158                 1.6302

                     10                     11                     12
                      A                      A                      A
 Frequencies --    405.2266               417.8332               448.8324
 Red. masses --      7.2680                 3.8926                 5.1010
 Frc consts  --      0.7032                 0.4004                 0.6054
 IR Inten    --     14.4348                 6.1795                 8.9115

                     13                     14                     15
                      A                      A                      A
 Frequencies --    455.2162               495.0745               540.4288
 Red. masses --      5.2788                 6.5866                12.5011
 Frc consts  --      0.6445                 0.9512                 2.1512
 IR Inten    --     17.6753                10.4617                 5.9234

                     16                     17                     18
                      A                      A                      A
 Frequencies --    546.8122               573.0402               609.8065
 Red. masses --      8.6304                 3.3718                 9.1006
 Frc consts  --      1.5204                 0.6524                 1.9939
 IR Inten    --     15.9237                14.4870                30.2481

                     19                     20                     21
                      A                      A                      A
 Frequencies --    642.3449               690.7531               715.0747
 Red. masses --      5.9082                 5.4817                 3.8365
 Frc consts  --      1.4363                 1.5410                 1.1558
 IR Inten    --     75.3189                70.5201                 5.1460

                     22                     23                     24
                      A                      A                      A
 Frequencies --    730.9202               790.6346               829.6924
 Red. masses --      6.8983                 5.2923                 1.4449
 Frc consts  --      2.1714                 1.9491                 0.5860
 IR Inten    --    170.4434                13.1070                18.5899

                     25                     26                     27
                      A                      A                      A
 Frequencies --    834.2573               896.9026               927.3788
 Red. masses --      1.6415                 1.4037                 4.3918
 Frc consts  --      0.6731                 0.6653                 2.2254
 IR Inten    --     13.4665                13.0935                13.8344

                     28                     29                     30
                      A                      A                      A
 Frequencies --    953.5503              1017.2226              1060.8166
 Red. masses --      1.3115                 2.0835                 3.4250
 Frc consts  --      0.7026                 1.2702                 2.2709
 IR Inten    --      0.4320                10.3303                21.2037

                     31                     32                     33
                      A                      A                      A
 Frequencies --   1068.3794              1131.5280              1158.3102
 Red. masses --      5.9985                 3.1306                 3.0466
 Frc consts  --      4.0341                 2.3616                 2.4083
 IR Inten    --      5.4179               156.2263               109.3907

                     34                     35                     36
                      A                      A                      A
 Frequencies --   1192.4286              1228.2590              1233.2462
 Red. masses --      1.5535                 2.7608                 1.4343
 Frc consts  --      1.3015                 2.4540                 1.2853
 IR Inten    --     20.7058                 9.9838                30.1613

                     37                     38                     39
                      A                      A                      A
 Frequencies --   1289.4319              1330.7995              1346.9492
 Red. masses --      1.4696                 4.4914                 1.9604
 Frc consts  --      1.4396                 4.6866                 2.0956
 IR Inten    --     23.6187               148.9168                12.3023

                     40                     41                     42
                      A                      A                      A
 Frequencies --   1371.3036              1377.8989              1415.3801
 Red. masses --      3.1110                 6.5605                 1.3520
 Frc consts  --      3.4468                 7.3387                 1.5958
 IR Inten    --     19.2203               214.3464                53.3630

                     43                     44                     45
                      A                      A                      A
 Frequencies --   1474.2742              1514.6687              1524.2757
 Red. masses --      3.7589                 1.3219                 1.8342
 Frc consts  --      4.8136                 1.7868                 2.5108
 IR Inten    --     19.9765                29.8887                42.1758

                     46                     47                     48
                      A                      A                      A
 Frequencies --   1635.3711              1658.6139              2271.5624
 Red. masses --      7.2913                 6.4466                13.9848
 Frc consts  --     11.4891                10.4488                42.5163
 IR Inten    --     16.4567               109.5060               808.9110

                     49                     50                     51
                      A                      A                      A
 Frequencies --   3073.3083              3123.6239              3205.5488
 Red. masses --      1.0623                 1.1043                 1.0886
 Frc consts  --      5.9117                 6.3480                 6.5905
 IR Inten    --     16.8868                 8.4798                 2.0377

                     52                     53                     54
                      A                      A                      A
 Frequencies --   3214.8286              3223.3661              3521.8907
 Red. masses --      1.0916                 1.0947                 1.0754
 Frc consts  --      6.6469                 6.7012                 7.8593
 IR Inten    --      2.5545                 1.9430                30.0498

 - Thermochemistry -
 -------------------
 Temperature   298.150 Kelvin.  Pressure   1.00000 Atm.
 Atom     1 has atomic number  6 and mass  12.00000

 Molecular mass:   210.02115 amu.
 Principal axes and moments of inertia in atomic units:
                           1         2         3
     Eigenvalues --  1003.409415528.830686139.32809
           X            0.99995   0.00944  -0.00207
           Y           -0.00945   0.99995  -0.00421
           Z            0.00203   0.00422   0.99999
 This molecule is an asymmetric top.
 Rotational symmetry number  1.
 Warning -- assumption of classical behavior for rotation
           may cause significant error
 Rotational temperatures (Kelvin)      0.08632     0.01567     0.01411
 Rotational constants (GHZ):           1.79861     0.32642     0.29396
 Zero-point vibrational energy     363554.0 (Joules/Mol)
                                   86.89149 (Kcal/Mol)
 Warning -- explicit consideration of  18 degrees of freedom as
           vibrations may cause significant error
 Vibrational temperatures:     71.23   112.67   145.41   165.08   268.09
          (Kelvin)            321.75   340.64   415.19   482.73   583.03
                              601.17   645.77   654.95   712.30   777.56
                              786.74   824.48   877.38   924.19   993.84
                             1028.83  1051.63  1137.55  1193.74  1200.31
                             1290.44  1334.29  1371.95  1463.56  1526.28
                             1537.16  1628.02  1666.55  1715.64  1767.19
                             1774.37  1855.20  1914.72  1937.96  1973.00
                             1982.49  2036.42  2121.15  2179.27  2193.09
                             2352.93  2386.38  3268.27  4421.81  4494.20
                             4612.07  4625.42  4637.70  5067.22

 Zero-point correction=                           0.138470 (Hartree/Particle)
 Thermal correction to Energy=                    0.149931
 Thermal correction to Enthalpy=                  0.150875
 Thermal correction to Gibbs Free Energy=         0.100062
 Sum of electronic and zero-point Energies=          -1037.766382
 Sum of electronic and thermal Energies=             -1037.754921
 Sum of electronic and thermal Enthalpies=           -1037.753977
 Sum of electronic and thermal Free Energies=        -1037.804791

                     E (Thermal)             CV                S
                      KCal/Mol        Cal/Mol-Kelvin    Cal/Mol-Kelvin
 Total                   94.083             43.546            106.946
 Electronic               0.000              0.000              0.000
 Translational            0.889              2.981             41.930
 Rotational               0.889              2.981             31.899
 Vibrational             92.306             37.584             33.117
 Vibration     1          0.595              1.978              4.837
 Vibration     2          0.600              1.964              3.933
 Vibration     3          0.604              1.948              3.434
 Vibration     4          0.608              1.937              3.187
 Vibration     5          0.632              1.859              2.264
 Vibration     6          0.649              1.805              1.930
 Vibration     7          0.656              1.784              1.827
 Vibration     8          0.685              1.695              1.482
 Vibration     9          0.717              1.605              1.233
 Vibration    10          0.770              1.459              0.944
 Vibration    11          0.781              1.431              0.899
 Vibration    12          0.808              1.363              0.799
 Vibration    13          0.814              1.349              0.780
 Vibration    14          0.851              1.261              0.671
 Vibration    15          0.895              1.161              0.564
 Vibration    16          0.902              1.147              0.551
 Vibration    17          0.929              1.090              0.498
 Vibration    18          0.969              1.011              0.433

 Optimization completed.
    -- Stationary point found.
 Normal termination of Gaussian 16 at Thu Dec 10 09:23:19 2020.

 ----------------------------------------------------------------------
 # B3LYP/6-311++G(d,p) empiricaldispersion=gd3bj scf=xqc pop=npa geom=c
 heck
 ----------------------------------------------------------------------

 ---------------------------------------
 CID_151352609_JID_4251_Energie_neutraal
 ---------------------------------------
 Structure from the checkpoint file:  "JID_4251.chk"
 Charge =  0 Multiplicity = 1

 SCF Done:  E(RB3LYP) =  -1038.10673032     A.U. after   17 cycles
 Normal termination of Gaussian 16 at Thu Dec 10 09:25:39 2020.

 ----------------------------------------------------------------------
 # B3LYP/6-311++G(d,p) empiricaldispersion=gd3bj scf=xqc pop=npa geom=c
 heck
 ----------------------------------------------------------------------

 -------------------------------------
 CID_151352609_JID_4251_Energie_kation
 -------------------------------------
 Structure from the checkpoint file:  "JID_4251.chk"
 Charge =  1 Multiplicity = 2

 SCF Done:  E(UB3LYP) =  -1037.77946974     A.U. after   28 cycles
 Normal termination of Gaussian 16 at Thu Dec 10 09:31:05 2020.
 Gaussian 16:  ES64L-G16RevA.03 25-Dec-2016

 ----------------------------------------------------------------------
 # B3LYP/6-311++G(d,p) empiricaldispersion=gd3bj scf=xqc pop=npa geom=c
 heck
 ----------------------------------------------------------------------

 ------------------------------------
 CID_151352609_JID_4251_Energie_anion
 ------------------------------------
 Structure from the checkpoint file:  "JID_4251.chk"
 Charge = -1 Multiplicity = 2

                         Standard orientation:
 ---------------------------------------------------------------------
 Center     Atomic      Atomic             Coordinates (Angstroms)
 Number     Number       Type             X           Y           Z
 ---------------------------------------------------------------------
      1          6           0        1.466606    1.957865    0.043120
      2          6           0        0.272453    1.015585    0.004266
      3          6           0        0.639081   -0.326650   -0.018516
      4          6           0       -0.295735   -1.355556   -0.025050
      5          6           0       -1.645097   -1.017566   -0.020241
      6          6           0       -2.031187    0.334728    0.006035
      7          6           0       -1.072893    1.357673    0.023191
      8          7           0       -3.379143    0.762661    0.009839
      9          7           0       -4.264722   -0.104771   -0.007814
     10          7           0       -5.173874   -0.791077   -0.022086
     11         16           0        2.417567   -0.474818    0.034806
     12          8           0        2.951652   -1.249172   -1.087652
     13          8           0        2.825780   -0.776382    1.404261
     14          7           0        2.680941    1.188816   -0.297898
     15          1           0        1.581548    2.380569    1.047344
     16          1           0        1.360895    2.789547   -0.658826
     17          1           0        0.016211   -2.394649   -0.043463
     18          1           0       -2.399264   -1.798235   -0.037487
     19          1           0       -1.403111    2.391314    0.042262
     20          1           0        2.901430    1.247101   -1.290715
 ---------------------------------------------------------------------

 SCF Done:  E(UB3LYP) =  -1038.12265694     A.U. after   33 cycles
 SCF Done:  E(UB3LYP) =  -1038.12265702     a.u. after    2 cycles

 The electronic state is 2-A.
 Alpha  occ. eigenvalues --  -88.93514 -18.99770 -18.99256 -14.32315 -14.23378
 Alpha  occ. eigenvalues --  -14.22919 -14.22812 -10.11216 -10.07183 -10.06285
 Alpha  occ. eigenvalues --  -10.05535 -10.04853 -10.04632 -10.04202  -7.99735
 Alpha  occ. eigenvalues --   -5.96060  -5.95965  -5.95776  -1.00028  -0.99712
 Alpha  occ. eigenvalues --   -0.88771  -0.84678  -0.82411  -0.73455  -0.64899
 Alpha  occ. eigenvalues --   -0.64422  -0.59623  -0.54145  -0.50368  -0.47315
 Alpha  occ. eigenvalues --   -0.42782  -0.41722  -0.39521  -0.37886  -0.37675
 Alpha  occ. eigenvalues --   -0.35705  -0.33833  -0.33005  -0.32416  -0.32237
 Alpha  occ. eigenvalues --   -0.30934  -0.30191  -0.28995  -0.25577  -0.23697
 Alpha  occ. eigenvalues --   -0.22560  -0.21365  -0.20571  -0.18368  -0.17642
 Alpha  occ. eigenvalues --   -0.17485  -0.16319  -0.13575  -0.09901   0.04428
 Alpha virt. eigenvalues --    0.07717   0.09358   0.09731   0.10189   0.10328
 Alpha virt. eigenvalues --    0.11730   0.12613   0.12745   0.14259   0.14883
 Alpha virt. eigenvalues --    0.15389   0.16002   0.16271   0.17201   0.17937

  Beta  occ. eigenvalues --  -88.93515 -18.99738 -18.99191 -14.31888 -14.23141
  Beta  occ. eigenvalues --  -14.22900 -14.22808 -10.11216 -10.06719 -10.06231
  Beta  occ. eigenvalues --  -10.05460 -10.04645 -10.04513 -10.04149  -7.99735
  Beta  occ. eigenvalues --   -5.96061  -5.95954  -5.95785  -0.99615  -0.99326
  Beta  occ. eigenvalues --   -0.88654  -0.84414  -0.82355  -0.73059  -0.64412
  Beta  occ. eigenvalues --   -0.64004  -0.59404  -0.53744  -0.50213  -0.47113
  Beta  occ. eigenvalues --   -0.42570  -0.41601  -0.39421  -0.37423  -0.36030
  Beta  occ. eigenvalues --   -0.35594  -0.33531  -0.32870  -0.32151  -0.31613
  Beta  occ. eigenvalues --   -0.30541  -0.30020  -0.28791  -0.24378  -0.23554
  Beta  occ. eigenvalues --   -0.22431  -0.21046  -0.20136  -0.18188  -0.17575
  Beta  occ. eigenvalues --   -0.16463  -0.16202  -0.12710  -0.08408
  Beta virt. eigenvalues --    0.07655   0.09566   0.09910   0.10180   0.10484
  Beta virt. eigenvalues --    0.10731   0.11848   0.12615   0.12796   0.14662
  Beta virt. eigenvalues --    0.15361   0.15830   0.16088   0.16444   0.17391

 Mulliken charges and spin densities:
               1          2
     1  C   -0.758277  -0.024523
     2  C    1.559911   0.022505
     3  C   -1.007545   0.266494
     4  C   -0.604630   0.118605
     5  C    0.734060   0.023138
     6  C   -1.559644   0.212298
     7  C   -0.538810   0.018962
     8  N    0.309300  -0.110981
     9  N    0.111579   0.146695
    10  N   -0.484282   0.252387
    11  S    0.807916   0.023578
    12  O   -0.237689   0.003164
    13  O   -0.139251  -0.017849
    14  N   -0.247209  -0.014133
    15  H    0.198959   0.009352
    16  H    0.135865   0.036535
    17  H    0.160468  -0.003516
    18  H    0.159809  -0.000027
    19  H    0.123668   0.015623
    20  H    0.275802   0.021694
 Sum of Mulliken charges =  -1.00000   1.00000

 Dipole moment (field-independent basis, Debye):
    X=              2.3015    Y=              3.3388    Z=             -1.1731  Tot=              4.2214
 Quadrupole moment (field-independent basis, Debye-Ang):
   XX=           -160.9707   YY=            -94.7755   ZZ=            -99.2981
   XY=              5.4311   XZ=             -4.3537   YZ=             -1.8058

 Summary of Natural Population Analysis:

                                       Natural Population
                Natural  -----------------------------------------------
    Atom  No    Charge         Core      Valence    Rydberg      Total
 -----------------------------------------------------------------------
      C    1   -0.09403      0.99961     2.08332    0.01110     3.09403
      C    2   -0.01227      0.99946     2.00401    0.00880     3.01227
      C    3   -0.09455      0.99930     2.08258    0.01268     3.09455
      C    4   -0.07518      0.99953     2.06505    0.01060     3.07518
      C    5   -0.12995      0.99954     2.12239    0.00802     3.12995
      C    6    0.14760      0.99945     1.84190    0.01105     2.85240
      C    7   -0.10413      0.99948     2.09586    0.00879     3.10413
      N    8   -0.22393      0.99966     2.71031    0.01397     3.72393
      N    9    0.15748      0.99971     2.32658    0.01623     3.34252
      N   10    0.00795      0.99982     2.47929    0.01294     3.49205
      S   11    1.09401      4.99922     1.80501    0.10175     6.90599
      O   12   -0.46758      0.99990     3.46205    0.00563     4.46758
      O   13   -0.45605      0.99990     3.45032    0.00583     4.45605
      N   14   -0.43107      0.99977     2.91867    0.01263     3.93107
      H   15    0.09926      0.00000     0.39948    0.00126     0.40074
      H   16    0.09712      0.00000     0.40109    0.00179     0.40288
      H   17    0.10037      0.00000     0.39843    0.00120     0.39963
      H   18    0.09942      0.00000     0.39911    0.00147     0.40058
      H   19    0.09779      0.00000     0.40062    0.00158     0.40221
      H   20    0.18773      0.00000     0.30835    0.00393     0.31227
 =======================================================================
   * Total *   -0.00000     17.99434    35.75443    0.25123    54.00000

 Normal termination of Gaussian 16 at Thu Dec 10 09:42:44 2020.
