 Gaussian 16, Revision A.03,

 -----------------------------------------------------------
 # opt freq B3LYP/6-31G(d) empiricaldispersion=gd3bj scf=xqc
 -----------------------------------------------------------

 -------------------------------
 CID_105588012_JID_6492_neutraal
 -------------------------------
 Symbolic Z-matrix:
 Charge =  0 Multiplicity = 1

 SCF Done:  E(RB3LYP) =  -1054.68162545     A.U. after   15 cycles
 SCF Done:  E(RB3LYP) =  -1054.68828357     A.U. after   12 cycles
 SCF Done:  E(RB3LYP) =  -1054.68048761     A.U. after   13 cycles
 SCF Done:  E(RB3LYP) =  -1054.68731345     A.U. after   12 cycles
 SCF Done:  E(RB3LYP) =  -1054.68980878     A.U. after    9 cycles
 SCF Done:  E(RB3LYP) =  -1054.68776406     A.U. after   12 cycles
 SCF Done:  E(RB3LYP) =  -1054.68940747     A.U. after   12 cycles
 SCF Done:  E(RB3LYP) =  -1054.69083956     A.U. after   10 cycles
 SCF Done:  E(RB3LYP) =  -1054.69133626     A.U. after   11 cycles
 SCF Done:  E(RB3LYP) =  -1054.69151883     A.U. after   12 cycles
 SCF Done:  E(RB3LYP) =  -1054.70070309     A.U. after    9 cycles
 SCF Done:  E(RB3LYP) =  -1054.70070629     A.U. after    8 cycles
 SCF Done:  E(RB3LYP) =  -1054.70070761     A.U. after    8 cycles
 SCF Done:  E(RB3LYP) =  -1054.70070702     A.U. after    7 cycles
 SCF Done:  E(RB3LYP) =  -1054.70070682     A.U. after    6 cycles
 Optimization completed.
    -- Stationary point found.
 Normal termination of Gaussian 16 at Thu Dec 10 23:54:26 2020.

 --------------------------------------------------------------------
 #N Geom=AllCheck Guess=TCheck SCRF=Check GenChk RB3LYP/6-31G(d) Freq
 --------------------------------------------------------------------

 Structure from the checkpoint file:  "JID_6492.chk"
 -------------------------------
 CID_105588012_JID_6492_neutraal
 -------------------------------
 Charge =  0 Multiplicity = 1

 SCF Done:  E(RB3LYP) =  -1054.70070682     A.U. after    1 cycles

  Exact polarizability: 174.608   1.807 151.167   0.259   1.153 139.501
 Approx polarizability: 225.669   0.014 238.816  -0.340   1.930 205.825

                      1                      2                      3
                      A                      A                      A
 Frequencies --     52.5377                65.8142                91.3858
 Red. masses --      3.3915                 4.4286                 3.6491
 Frc consts  --      0.0055                 0.0113                 0.0180
 IR Inten    --      0.0865                 1.8552                 3.3029

                      4                      5                      6
                      A                      A                      A
 Frequencies --    102.1912               119.4847               124.4741
 Red. masses --      2.0993                 2.4885                 3.1757
 Frc consts  --      0.0129                 0.0209                 0.0290
 IR Inten    --      3.4657                 7.0531                 2.1303

                      7                      8                      9
                      A                      A                      A
 Frequencies --    144.5406               172.2394               183.1064
 Red. masses --      3.0826                 4.8115                 3.1920
 Frc consts  --      0.0379                 0.0841                 0.0631
 IR Inten    --      0.2026                 1.8478                 1.1254

                     10                     11                     12
                      A                      A                      A
 Frequencies --    203.4911               217.2774               227.5363
 Red. masses --      2.0978                 2.0210                 2.7885
 Frc consts  --      0.0512                 0.0562                 0.0851
 IR Inten    --      4.3906                 2.8390                 1.1215

                     13                     14                     15
                      A                      A                      A
 Frequencies --    239.6904               255.1195               272.1762
 Red. masses --      1.0973                 1.1569                 1.3695
 Frc consts  --      0.0371                 0.0444                 0.0598
 IR Inten    --      0.4464                 0.1726                 1.1928

                     16                     17                     18
                      A                      A                      A
 Frequencies --    287.2952               315.7347               334.9584
 Red. masses --      1.5725                 1.2246                 3.0053
 Frc consts  --      0.0765                 0.0719                 0.1987
 IR Inten    --      1.1511                 0.1829                 2.5532

                     19                     20                     21
                      A                      A                      A
 Frequencies --    340.6044               350.8680               373.9184
 Red. masses --      3.0095                 2.8389                 3.0635
 Frc consts  --      0.2057                 0.2059                 0.2524
 IR Inten    --      1.1503                 0.2591                 1.2769

                     22                     23                     24
                      A                      A                      A
 Frequencies --    408.4000               427.2630               435.4996
 Red. masses --      2.6536                 2.3653                 2.5693
 Frc consts  --      0.2608                 0.2544                 0.2871
 IR Inten    --      3.6894                 3.6782                 4.1213

                     25                     26                     27
                      A                      A                      A
 Frequencies --    461.9372               482.3586               520.3307
 Red. masses --      3.6049                 3.0929                 2.9154
 Frc consts  --      0.4532                 0.4240                 0.4651
 IR Inten    --      7.7740                 2.1822                 3.2595

                     28                     29                     30
                      A                      A                      A
 Frequencies --    544.7186               575.5006               623.8010
 Red. masses --      2.9192                 3.5392                 3.4388
 Frc consts  --      0.5103                 0.6906                 0.7884
 IR Inten    --     11.9743                20.1307                12.8352

                     31                     32                     33
                      A                      A                      A
 Frequencies --    702.2432               745.5700               749.0499
 Red. masses --      3.6970                 4.6044                 1.4898
 Frc consts  --      1.0742                 1.5080                 0.4925
 IR Inten    --      6.2490                 5.5357                 2.3091

                     34                     35                     36
                      A                      A                      A
 Frequencies --    807.5212               822.9349               845.4522
 Red. masses --      2.5475                 2.6160                 4.6301
 Frc consts  --      0.9788                 1.0438                 1.9499
 IR Inten    --     11.0194                 2.8473                10.7480

                     37                     38                     39
                      A                      A                      A
 Frequencies --    872.4827               895.9035               923.7831
 Red. masses --      2.5426                 2.2459                 1.4494
 Frc consts  --      1.1404                 1.0621                 0.7288
 IR Inten    --      3.6962                 8.3870                 3.7316

                     40                     41                     42
                      A                      A                      A
 Frequencies --    934.2982               946.4492               965.4209
 Red. masses --      1.5751                 1.2052                 2.1529
 Frc consts  --      0.8101                 0.6361                 1.1822
 IR Inten    --      3.8980                 2.1640                 2.7655

                     43                     44                     45
                      A                      A                      A
 Frequencies --    985.1844              1001.9309              1015.9314
 Red. masses --      1.5736                 1.9438                 1.8432
 Frc consts  --      0.8999                 1.1497                 1.1209
 IR Inten    --      1.4394                 6.8835                 5.0917

                     46                     47                     48
                      A                      A                      A
 Frequencies --   1037.3664              1084.5709              1091.2071
 Red. masses --      2.3737                 2.3157                 1.7366
 Frc consts  --      1.5050                 1.6049                 1.2183
 IR Inten    --      9.8737                11.7410                13.1548

                     49                     50                     51
                      A                      A                      A
 Frequencies --   1108.4318              1117.7253              1137.3480
 Red. masses --      2.9747                 1.8177                 2.3247
 Frc consts  --      2.1533                 1.3380                 1.7718
 IR Inten    --     18.0825                 8.1980                20.0988

                     52                     53                     54
                      A                      A                      A
 Frequencies --   1149.6045              1165.3858              1178.6036
 Red. masses --      2.0359                 1.3832                 2.0891
 Frc consts  --      1.5853                 1.1068                 1.7098
 IR Inten    --     14.3248                 7.6621                 5.0328

                     55                     56                     57
                      A                      A                      A
 Frequencies --   1188.7207              1204.0691              1228.0159
 Red. masses --      2.2525                 2.5588                 2.0819
 Frc consts  --      1.8753                 2.1857                 1.8498
 IR Inten    --     30.2108                15.2711                10.4442

                     58                     59                     60
                      A                      A                      A
 Frequencies --   1239.4667              1276.0944              1294.8060
 Red. masses --      1.5891                 1.7565                 1.1866
 Frc consts  --      1.4383                 1.6853                 1.1721
 IR Inten    --      3.5513               101.9732                13.0411

                     61                     62                     63
                      A                      A                      A
 Frequencies --   1308.6948              1340.1169              1348.0945
 Red. masses --      1.3766                 1.5199                 1.2774
 Frc consts  --      1.3891                 1.6083                 1.3678
 IR Inten    --     51.0733                16.0500                16.8254

                     64                     65                     66
                      A                      A                      A
 Frequencies --   1358.8691              1366.7361              1378.4511
 Red. masses --      1.3576                 1.4037                 1.4208
 Frc consts  --      1.4770                 1.5448                 1.5906
 IR Inten    --      3.7887                18.8828                13.7550

                     67                     68                     69
                      A                      A                      A
 Frequencies --   1392.9531              1399.0623              1409.8550
 Red. masses --      1.5092                 1.2970                 1.2684
 Frc consts  --      1.7253                 1.4958                 1.4855
 IR Inten    --     31.8866                 1.3174                 9.2758

                     70                     71                     72
                      A                      A                      A
 Frequencies --   1415.1059              1417.7008              1430.5460
 Red. masses --      1.2766                 1.4359                 1.2947
 Frc consts  --      1.5063                 1.7004                 1.5610
 IR Inten    --      4.0755                41.8069                20.7596

                     73                     74                     75
                      A                      A                      A
 Frequencies --   1434.7035              1445.5065              1455.1863
 Red. masses --      1.2607                 1.2280                 1.2306
 Frc consts  --      1.5289                 1.5118                 1.5354
 IR Inten    --      6.5151                 7.9234                 5.6129

                     76                     77                     78
                      A                      A                      A
 Frequencies --   1478.5853              1485.6291              1497.5257
 Red. masses --      1.1736                 1.2484                 1.0878
 Frc consts  --      1.5117                 1.6233                 1.4373
 IR Inten    --     14.4992                13.1092                 1.2762

                     79                     80                     81
                      A                      A                      A
 Frequencies --   1508.3684              1513.5882              1516.1054
 Red. masses --      1.0896                 1.0614                 1.0690
 Frc consts  --      1.4605                 1.4327                 1.4478
 IR Inten    --      2.8578                 6.3265                14.3016

                     82                     83                     84
                      A                      A                      A
 Frequencies --   1518.1630              1522.8838              1528.6014
 Red. masses --      1.0512                 1.1191                 1.0662
 Frc consts  --      1.4275                 1.5291                 1.4678
 IR Inten    --      7.1970                12.6315                 1.4991

                     85                     86                     87
                      A                      A                      A
 Frequencies --   1531.5083              1535.9324              1538.7670
 Red. masses --      1.0906                 1.1161                 1.0545
 Frc consts  --      1.5071                 1.5513                 1.4711
 IR Inten    --     19.5233                10.2975                 6.4676

                     88                     89                     90
                      A                      A                      A
 Frequencies --   1545.9218              1548.3986              1687.8925
 Red. masses --      1.0682                 1.0552                 7.3359
 Frc consts  --      1.5041                 1.4906                12.3138
 IR Inten    --     11.5541                 2.2443               179.2467

                     91                     92                     93
                      A                      A                      A
 Frequencies --   2685.8690              2949.0051              3028.5607
 Red. masses --      1.0389                 1.0614                 1.0694
 Frc consts  --      4.4157                 5.4387                 5.7790
 IR Inten    --     16.9422                71.5532                47.4767

                     94                     95                     96
                      A                      A                      A
 Frequencies --   3038.9686              3039.7359              3049.6267
 Red. masses --      1.0700                 1.0782                 1.0682
 Frc consts  --      5.8224                 5.8699                 5.8533
 IR Inten    --     22.5619                22.0527                36.4874

                     97                     98                     99
                      A                      A                      A
 Frequencies --   3056.3371              3061.0241              3062.8347
 Red. masses --      1.0368                 1.0409                 1.0692
 Frc consts  --      5.7065                 5.7463                 5.9095
 IR Inten    --     24.2788                14.6134                43.4644

                    100                    101                    102
                      A                      A                      A
 Frequencies --   3064.4759              3070.8980              3086.6884
 Red. masses --      1.0757                 1.0576                 1.0692
 Frc consts  --      5.9520                 5.8762                 6.0017
 IR Inten    --     25.2691                28.3818                23.4773

                    103                    104                    105
                      A                      A                      A
 Frequencies --   3099.1749              3104.6209              3109.4961
 Red. masses --      1.0948                 1.0936                 1.1033
 Frc consts  --      6.1956                 6.2104                 6.2855
 IR Inten    --     34.1292                63.6463                34.3113

                    106                    107                    108
                      A                      A                      A
 Frequencies --   3114.8484              3116.7838              3121.5528
 Red. masses --      1.1008                 1.0967                 1.1001
 Frc consts  --      6.2928                 6.2772                 6.3156
 IR Inten    --     10.1604                71.2996                16.6374

                    109                    110                    111
                      A                      A                      A
 Frequencies --   3130.0098              3141.8963              3143.6967
 Red. masses --      1.0860                 1.1013                 1.1024
 Frc consts  --      6.2685                 6.4054                 6.4192
 IR Inten    --      2.7607                11.4993                21.3159

                    112                    113                    114
                      A                      A                      A
 Frequencies --   3152.9164              3156.2241              3214.6239
 Red. masses --      1.0954                 1.0913                 1.0957
 Frc consts  --      6.4159                 6.4052                 6.6714
 IR Inten    --     40.9163                 4.4471                 8.9319

 - Thermochemistry -
 -------------------
 Temperature   298.150 Kelvin.  Pressure   1.00000 Atm.
 Atom     1 has atomic number  6 and mass  12.00000

 Molecular mass:   244.16094 amu.
 Principal axes and moments of inertia in atomic units:
                           1         2         3
     Eigenvalues --  2564.383765230.260705357.44329
           X            0.99966  -0.00374  -0.02573
           Y            0.00574   0.99693   0.07806
           Z            0.02536  -0.07818   0.99662
 This molecule is an asymmetric top.
 Rotational symmetry number  1.
 Warning -- assumption of classical behavior for rotation
           may cause significant error
 Rotational temperatures (Kelvin)      0.03378     0.01656     0.01617
 Rotational constants (GHZ):           0.70377     0.34506     0.33687
 Zero-point vibrational energy     941037.3 (Joules/Mol)
                                  224.91331 (Kcal/Mol)
 Warning -- explicit consideration of  29 degrees of freedom as
           vibrations may cause significant error
 Vibrational temperatures:     75.59    94.69   131.48   147.03   171.91
          (Kelvin)            179.09   207.96   247.81   263.45   292.78
                              312.61   327.37   344.86   367.06   391.60
                              413.35   454.27   481.93   490.05   504.82
                              537.99   587.60   614.74   626.59   664.62
                              694.01   748.64   783.73   828.02   897.51
                             1010.37  1072.71  1077.72  1161.84  1184.02
                             1216.42  1255.31  1289.01  1329.12  1344.25
                             1361.73  1389.03  1417.46  1441.56  1461.70
                             1492.54  1560.46  1570.00  1594.79  1608.16
                             1636.39  1654.02  1676.73  1695.75  1710.30
                             1732.39  1766.84  1783.32  1836.02  1862.94
                             1882.92  1928.13  1939.61  1955.11  1966.43
                             1983.28  2004.15  2012.94  2028.47  2036.02
                             2039.76  2058.24  2064.22  2079.76  2093.69
                             2127.35  2137.49  2154.61  2170.21  2177.72
                             2181.34  2184.30  2191.09  2199.32  2203.50
                             2209.86  2213.94  2224.24  2227.80  2428.50
                             3864.37  4242.96  4357.42  4372.40  4373.50
                             4387.73  4397.39  4404.13  4406.74  4409.10
                             4418.34  4441.06  4459.02  4466.86  4473.87
                             4481.57  4484.36  4491.22  4503.39  4520.49
                             4523.08  4536.34  4541.10  4625.13

 Zero-point correction=                           0.358422 (Hartree/Particle)
 Thermal correction to Energy=                    0.376411
 Thermal correction to Enthalpy=                  0.377356
 Thermal correction to Gibbs Free Energy=         0.314171
 Sum of electronic and zero-point Energies=          -1054.342285
 Sum of electronic and thermal Energies=             -1054.324295
 Sum of electronic and thermal Enthalpies=           -1054.323351
 Sum of electronic and thermal Free Energies=        -1054.386536

                     E (Thermal)             CV                S
                      KCal/Mol        Cal/Mol-Kelvin    Cal/Mol-Kelvin
 Total                  236.202             69.212            132.982
 Electronic               0.000              0.000              0.000
 Translational            0.889              2.981             42.379
 Rotational               0.889              2.981             32.641
 Vibrational            234.424             63.250             57.963
 Vibration     1          0.596              1.977              4.720
 Vibration     2          0.597              1.971              4.275
 Vibration     3          0.602              1.955              3.630
 Vibration     4          0.604              1.947              3.412
 Vibration     5          0.609              1.933              3.109
 Vibration     6          0.610              1.929              3.030
 Vibration     7          0.616              1.909              2.743
 Vibration     8          0.626              1.877              2.411
 Vibration     9          0.631              1.863              2.297
 Vibration    10          0.639              1.835              2.101
 Vibration    11          0.646              1.815              1.982
 Vibration    12          0.651              1.799              1.898
 Vibration    13          0.657              1.780              1.805
 Vibration    14          0.665              1.754              1.695
 Vibration    15          0.675              1.725              1.582
 Vibration    16          0.684              1.697              1.490
 Vibration    17          0.703              1.644              1.332
 Vibration    18          0.716              1.606              1.236
 Vibration    19          0.720              1.594              1.209
 Vibration    20          0.728              1.573              1.162
 Vibration    21          0.745              1.526              1.064
 Vibration    22          0.773              1.452              0.932
 Vibration    23          0.789              1.411              0.868
 Vibration    24          0.796              1.393              0.841
 Vibration    25          0.820              1.334              0.760
 Vibration    26          0.839              1.289              0.704
 Vibration    27          0.875              1.205              0.609
 Vibration    28          0.900              1.151              0.555
 Vibration    29          0.932              1.084              0.494

 Optimization completed.
    -- Stationary point found.
 Normal termination of Gaussian 16 at Fri Dec 11 00:11:39 2020.

 ----------------------------------------------------------------------
 # B3LYP/6-311++G(d,p) empiricaldispersion=gd3bj scf=xqc pop=npa geom=c
 heck
 ----------------------------------------------------------------------

 ---------------------------------------
 CID_105588012_JID_6492_Energie_neutraal
 ---------------------------------------
 Structure from the checkpoint file:  "JID_6492.chk"
 Charge =  0 Multiplicity = 1

 SCF Done:  E(RB3LYP) =  -1054.91341192     A.U. after   16 cycles
 Normal termination of Gaussian 16 at Fri Dec 11 00:20:16 2020.

 ----------------------------------------------------------------------
 # B3LYP/6-311++G(d,p) empiricaldispersion=gd3bj scf=xqc pop=npa geom=c
 heck
 ----------------------------------------------------------------------

 -------------------------------------
 CID_105588012_JID_6492_Energie_kation
 -------------------------------------
 Structure from the checkpoint file:  "JID_6492.chk"
 Charge =  1 Multiplicity = 2

 SCF Done:  E(UB3LYP) =  -1054.63792775     A.U. after   26 cycles
 Normal termination of Gaussian 16 at Fri Dec 11 00:39:22 2020.
 Gaussian 16:  ES64L-G16RevA.03 25-Dec-2016

 ----------------------------------------------------------------------
 # B3LYP/6-311++G(d,p) empiricaldispersion=gd3bj scf=xqc pop=npa geom=c
 heck
 ----------------------------------------------------------------------

 ------------------------------------
 CID_105588012_JID_6492_Energie_anion
 ------------------------------------
 Structure from the checkpoint file:  "JID_6492.chk"
 Charge = -1 Multiplicity = 2

                         Standard orientation:
 ---------------------------------------------------------------------
 Center     Atomic      Atomic             Coordinates (Angstroms)
 Number     Number       Type             X           Y           Z
 ---------------------------------------------------------------------
      1          6           0        0.322810    2.382846    0.602228
      2          6           0       -0.750175    1.301481    0.508501
      3          6           0       -1.376754    1.199685   -0.902299
      4          7           0       -2.607477    0.438539   -1.020536
      5          6           0       -2.492716   -0.993748   -0.765627
      6          6           0       -2.529710   -1.470434    0.699240
      7          6           0       -1.585708   -0.714617    1.657790
      8          7           0       -0.422895   -0.050356    1.028845
      9          6           0        0.567612   -0.939739    0.673524
     10          8           0        0.356106   -2.150031    0.810767
     11          6           0        2.025019   -0.624704    0.241216
     12          6           0        2.353684   -0.497208   -1.276413
     13          6           0        1.538552   -1.512840   -2.089391
     14          6           0        2.289091    0.894254   -1.913592
     15         16           0        2.964755    0.613280    1.252177
     16          6           0       -3.780915    1.064347   -0.444025
     17          1           0       -0.149334    3.342229    0.359954
     18          1           0        1.150945    2.242361   -0.088249
     19          1           0        0.732056    2.440464    1.611379
     20          1           0       -1.546432    1.641114    1.177489
     21          1           0       -1.574270    2.217795   -1.263799
     22          1           0       -0.643070    0.754305   -1.582871
     23          1           0       -1.556141   -1.331744   -1.219979
     24          1           0       -3.304763   -1.501248   -1.305054
     25          1           0       -2.270531   -2.532809    0.698838
     26          1           0       -3.551678   -1.387581    1.090604
     27          1           0       -1.203592   -1.407336    2.408964
     28          1           0       -2.134480    0.073041    2.180592
     29          1           0        2.477111   -1.577254    0.514256
     30          1           0        3.407133   -0.800877   -1.327406
     31          1           0        0.485475   -1.217977   -2.154284
     32          1           0        1.928085   -1.573376   -3.111472
     33          1           0        1.572159   -2.509427   -1.640555
     34          1           0        2.878182    1.628514   -1.354205
     35          1           0        2.708260    0.842953   -2.924851
     36          1           0        1.267202    1.268443   -2.007287
     37          1           0        3.109233   -0.187993    2.327504
     38          1           0       -3.785411    1.127479    0.660289
     39          1           0       -3.880826    2.083620   -0.834636
     40          1           0       -4.672367    0.499857   -0.741270
 ---------------------------------------------------------------------

 SCF Done:  E(UB3LYP) =  -1054.90121749     A.U. after   33 cycles
 SCF Done:  E(UB3LYP) =  -1054.90121749     a.u. after    1 cycles

 The electronic state is 2-A.
 Alpha  occ. eigenvalues --  -88.74975 -18.99429 -14.24791 -14.20696 -10.18199
 Alpha  occ. eigenvalues --  -10.12327 -10.11769 -10.10373 -10.09966 -10.09964
 Alpha  occ. eigenvalues --  -10.09684 -10.08847 -10.07143 -10.07107 -10.06810
 Alpha  occ. eigenvalues --  -10.06368  -7.83691  -5.80060  -5.79723  -5.79056
 Alpha  occ. eigenvalues --   -0.94810  -0.84676  -0.81673  -0.73701  -0.69839
 Alpha  occ. eigenvalues --   -0.66947  -0.65668  -0.61127  -0.60590  -0.60185
 Alpha  occ. eigenvalues --   -0.57124  -0.54679  -0.53965  -0.49061  -0.46811
 Alpha  occ. eigenvalues --   -0.42336  -0.40837  -0.39204  -0.38974  -0.38572
 Alpha  occ. eigenvalues --   -0.37732  -0.36386  -0.35108  -0.34669  -0.33852
 Alpha  occ. eigenvalues --   -0.32754  -0.31730  -0.31224  -0.30629  -0.30537
 Alpha  occ. eigenvalues --   -0.29161  -0.28676  -0.28232  -0.27987  -0.27188
 Alpha  occ. eigenvalues --   -0.26535  -0.26413  -0.25471  -0.24766  -0.24557
 Alpha  occ. eigenvalues --   -0.24239  -0.23405  -0.22858  -0.16720  -0.15741
 Alpha  occ. eigenvalues --   -0.14336  -0.11153   0.04126
 Alpha virt. eigenvalues --    0.05780   0.06641   0.07120   0.07582   0.08126
 Alpha virt. eigenvalues --    0.08862   0.08986   0.09313   0.09663   0.10742
 Alpha virt. eigenvalues --    0.10958   0.11034   0.11297   0.11770   0.11979

  Beta  occ. eigenvalues --  -88.74961 -18.99425 -14.24789 -14.20695 -10.18196
  Beta  occ. eigenvalues --  -10.12323 -10.11757 -10.10359 -10.09955 -10.09951
  Beta  occ. eigenvalues --  -10.09676 -10.08802 -10.07117 -10.07093 -10.06801
  Beta  occ. eigenvalues --  -10.06342  -7.83675  -5.80033  -5.79712  -5.79044
  Beta  occ. eigenvalues --   -0.94806  -0.84663  -0.81661  -0.73674  -0.69813
  Beta  occ. eigenvalues --   -0.66909  -0.65635  -0.61078  -0.60552  -0.60144
  Beta  occ. eigenvalues --   -0.57071  -0.54639  -0.53923  -0.49022  -0.46767
  Beta  occ. eigenvalues --   -0.42307  -0.40800  -0.39171  -0.38943  -0.38540
  Beta  occ. eigenvalues --   -0.37701  -0.36339  -0.35080  -0.34634  -0.33822
  Beta  occ. eigenvalues --   -0.32729  -0.31705  -0.31186  -0.30602  -0.30504
  Beta  occ. eigenvalues --   -0.29126  -0.28647  -0.28203  -0.27957  -0.27164
  Beta  occ. eigenvalues --   -0.26507  -0.26383  -0.25442  -0.24739  -0.24527
  Beta  occ. eigenvalues --   -0.24208  -0.23381  -0.22824  -0.16705  -0.15721
  Beta  occ. eigenvalues --   -0.14312  -0.11137
  Beta virt. eigenvalues --    0.06170   0.06711   0.07199   0.07605   0.07900
  Beta virt. eigenvalues --    0.08675   0.09142   0.09275   0.09583   0.09917
  Beta virt. eigenvalues --    0.11027   0.11254   0.11295   0.11592   0.11951

 Mulliken charges and spin densities:
               1          2
     1  C    0.426826  -0.953568
     2  C   -0.538627   0.821547
     3  C   -0.755744  -0.232380
     4  N    0.084694   0.123839
     5  C    0.050133  -0.200269
     6  C   -0.473931   0.099071
     7  C    0.318326  -0.401852
     8  N    0.134331   0.126551
     9  C   -1.784636   0.444457
    10  O   -0.221099   0.026943
    11  C    1.724833  -0.761477
    12  C   -0.230133   0.178827
    13  C   -0.058366  -0.592177
    14  C   -0.068393  -0.572155
    15  S    0.498106  -0.834397
    16  C    1.019066  -1.294714
    17  H   -0.508796   0.681546
    18  H    0.542390  -0.476185
    19  H   -0.119715   0.280138
    20  H    0.219927  -0.029965
    21  H   -0.057850   0.220699
    22  H    0.524123  -0.269817
    23  H    0.199539  -0.077978
    24  H   -0.165013   0.355386
    25  H    0.150765   0.020037
    26  H   -0.067990   0.231761
    27  H    0.148981   0.037861
    28  H   -0.315850   0.476197
    29  H    0.085072   0.256490
    30  H   -0.090399   0.269522
    31  H    0.106755   0.001648
    32  H   -0.194042   0.353910
    33  H    0.116577   0.044168
    34  H   -0.011167   0.148160
    35  H   -0.182731   0.340345
    36  H   -0.362116   0.501595
    37  H   -0.285908   0.364054
    38  H   -0.282487   0.417425
    39  H   -0.373447   0.513353
    40  H   -0.202006   0.361406
 Sum of Mulliken charges =  -1.00000   1.00000

 Dipole moment (field-independent basis, Debye):
    X=              2.2522    Y=             -2.5065    Z=             -0.0175  Tot=              3.3697
 Quadrupole moment (field-independent basis, Debye-Ang):
   XX=           -186.8998   YY=           -158.5142   ZZ=           -151.2640
   XY=             11.0087   XZ=              2.4125   YZ=              0.4572

 Summary of Natural Population Analysis:

                                       Natural Population
                Natural  -----------------------------------------------
    Atom  No    Charge         Core      Valence    Rydberg      Total
 -----------------------------------------------------------------------
      C    1   -0.28949      0.99963     2.28371    0.00615     3.28949
      C    2   -0.01429      0.99955     2.00168    0.01306     3.01429
      C    3   -0.08299      0.99957     2.07120    0.01222     3.08299
      N    4   -0.28022      0.99973     2.76704    0.01345     3.78022
      C    5   -0.08315      0.99960     2.07211    0.01144     3.08315
      C    6   -0.20910      0.99961     2.20167    0.00782     3.20910
      C    7   -0.08226      0.99960     2.07144    0.01122     3.08226
      N    8   -0.25944      0.99964     2.74653    0.01328     3.75944
      C    9    0.34292      0.99958     1.63353    0.02397     2.65708
      O   10   -0.33010      0.99989     3.32457    0.00564     4.33010
      C   11   -0.19294      0.99946     2.17966    0.01382     3.19294
      C   12   -0.11293      0.99957     2.10213    0.01123     3.11293
      C   13   -0.28600      0.99964     2.27994    0.00642     3.28600
      C   14   -0.29026      0.99963     2.28411    0.00652     3.29026
      S   15   -0.01869      4.99962     3.00573    0.01333     8.01869
      C   16   -0.17828      0.99964     2.16977    0.00887     3.17828
      H   17    0.10302      0.00000     0.39575    0.00123     0.39698
      H   18    0.10085      0.00000     0.39747    0.00169     0.39915
      H   19    0.10933      0.00000     0.38939    0.00129     0.39067
      H   20    0.09887      0.00000     0.39852    0.00261     0.40113
      H   21    0.09914      0.00000     0.39950    0.00136     0.40086
      H   22    0.09235      0.00000     0.40559    0.00205     0.40765
      H   23    0.09614      0.00000     0.40236    0.00149     0.40386
      H   24    0.09402      0.00000     0.40502    0.00096     0.40598
      H   25    0.10643      0.00000     0.39251    0.00106     0.39357
      H   26    0.09683      0.00000     0.40197    0.00120     0.40317
      H   27    0.10672      0.00000     0.39225    0.00103     0.39328
      H   28    0.09459      0.00000     0.40391    0.00151     0.40541
      H   29    0.12022      0.00000     0.37815    0.00163     0.37978
      H   30    0.10032      0.00000     0.39819    0.00149     0.39968
      H   31    0.09666      0.00000     0.40227    0.00106     0.40334
      H   32    0.10030      0.00000     0.39895    0.00074     0.39970
      H   33    0.10758      0.00000     0.39156    0.00085     0.39242
      H   34    0.10346      0.00000     0.39547    0.00106     0.39654
      H   35    0.10301      0.00000     0.39604    0.00095     0.39699
      H   36    0.09719      0.00000     0.40143    0.00138     0.40281
      H   37    0.06568      0.00000     0.43095    0.00336     0.43432
      H   38    0.08089      0.00000     0.41708    0.00203     0.41911
      H   39    0.09764      0.00000     0.40101    0.00135     0.40236
      H   40    0.09599      0.00000     0.40281    0.00121     0.40401
 =======================================================================
   * Total *   -0.00000     19.99397    46.79300    0.21303    67.00000

 Normal termination of Gaussian 16 at Fri Dec 11 01:04:08 2020.
