 Gaussian 16, Revision A.03,

 -----------------------------------------------------------
 # opt freq B3LYP/6-31G(d) empiricaldispersion=gd3bj scf=xqc
 -----------------------------------------------------------

 -----------------------------
 CID_59981531_JID_662_neutraal
 -----------------------------
 Symbolic Z-matrix:
 Charge =  0 Multiplicity = 1

 SCF Done:  E(RB3LYP) =  -424.767501390     A.U. after   27 cycles
 SCF Done:  E(RB3LYP) =  -424.809429652     A.U. after   17 cycles
 SCF Done:  E(RB3LYP) =  -424.864863140     A.U. after   14 cycles
 SCF Done:  E(RB3LYP) =  -424.890205368     A.U. after   16 cycles
 SCF Done:  E(RB3LYP) =  -424.916481634     A.U. after   17 cycles
 SCF Done:  E(RB3LYP) =  -424.933572537     A.U. after   16 cycles
 SCF Done:  E(RB3LYP) =  -424.936629654     A.U. after   16 cycles
 SCF Done:  E(RB3LYP) =  -424.947530704     A.U. after   15 cycles
 SCF Done:  E(RB3LYP) =  -424.947924117     A.U. after   12 cycles
 SCF Done:  E(RB3LYP) =  -424.951378625     A.U. after   14 cycles
 SCF Done:  E(RB3LYP) =  -425.034430125     A.U. after    8 cycles
 SCF Done:  E(RB3LYP) =  -425.034431456     A.U. after    9 cycles
 SCF Done:  E(RB3LYP) =  -425.034432459     A.U. after    8 cycles
 SCF Done:  E(RB3LYP) =  -425.034433272     A.U. after    8 cycles
 SCF Done:  E(RB3LYP) =  -425.034433944     A.U. after    8 cycles
 SCF Done:  E(RB3LYP) =  -425.034434137     A.U. after    8 cycles
 Optimization completed.
    -- Stationary point found.

 1\1\GINC-NODE308\FOpt\RB3LYP\6-31G(d)\C8H18N2\VSC10255\08-Dec-2020\0\\
 # opt freq B3LYP/6-31G(d) empiricaldispersion=gd3bj scf=xqc\\CID_59981
 531_JID_662_neutraal\\0,1\C,0.2923002706,-1.4156727169,0.9379602795\N,
 -0.5195143497,-0.3120568987,1.5746036101\C,-1.5956278074,0.1403929035,
 0.6232288692\C,0.4118879581,0.8392610981,1.876049928\C,-1.1097858775,-
 0.7814294467,2.777378792\C,-1.5482350191,-1.2090702278,3.86380362\N,2.
 1698033656,-1.3323846294,3.9088803027\C,1.6539076557,-2.6894941937,4.0
 950990966\C,1.717086089,-0.4773302308,5.0073620443\C,3.6230486798,-1.3

 Normal termination of Gaussian 16 at Tue Dec  8 13:58:39 2020.

 --------------------------------------------------------------------
 #N Geom=AllCheck Guess=TCheck SCRF=Check GenChk RB3LYP/6-31G(d) Freq
 --------------------------------------------------------------------

 Structure from the checkpoint file:  "JID_662.chk"
 -----------------------------
 CID_59981531_JID_662_neutraal
 -----------------------------
 Charge =  0 Multiplicity = 1

 SCF Done:  E(RB3LYP) =  -425.034434137     A.U. after    1 cycles

  Exact polarizability: 110.400   8.417 105.706   0.115   0.088  88.293
 Approx polarizability: 139.119  20.400 168.005   0.214   0.231 123.789

                      1                      2                      3
                      A                      A                      A
 Frequencies --     13.6953                67.6860                79.5840
 Red. masses --      2.8701                 3.1905                 3.3366
 Frc consts  --      0.0003                 0.0086                 0.0125
 IR Inten    --      0.3748                 8.2029                 3.2629

                      4                      5                      6
                      A                      A                      A
 Frequencies --    107.4085               114.0226               126.3691
 Red. masses --      5.0128                 2.6164                 3.4800
 Frc consts  --      0.0341                 0.0200                 0.0327
 IR Inten    --     27.3770                 0.0772                 0.9138

                      7                      8                      9
                      A                      A                      A
 Frequencies --    152.3537               169.4092               259.5225
 Red. masses --      4.4486                 5.0899                 1.0175
 Frc consts  --      0.0608                 0.0861                 0.0404
 IR Inten    --      3.9284                 6.4713                 0.0169

                     10                     11                     12
                      A                      A                      A
 Frequencies --    277.1830               307.1028               318.7412
 Red. masses --      1.0392                 1.0732                 1.0836
 Frc consts  --      0.0470                 0.0596                 0.0649
 IR Inten    --      0.1517                 0.1232                 0.0574

                     13                     14                     15
                      A                      A                      A
 Frequencies --    324.4590               340.3645               381.0174
 Red. masses --      1.0625                 1.1048                 2.5881
 Frc consts  --      0.0659                 0.0754                 0.2214
 IR Inten    --      0.1582                 0.1949                 2.2678

                     16                     17                     18
                      A                      A                      A
 Frequencies --    397.0090               403.6793               423.8083
 Red. masses --      2.3105                 2.2619                 2.1175
 Frc consts  --      0.2146                 0.2172                 0.2241
 IR Inten    --      0.3612                27.5661                 0.9912

                     19                     20                     21
                      A                      A                      A
 Frequencies --    424.1802               443.0200               523.5752
 Red. masses --      2.5685                 2.0989                 4.4298
 Frc consts  --      0.2723                 0.2427                 0.7155
 IR Inten    --      6.9385                 3.8840                15.7710

                     22                     23                     24
                      A                      A                      A
 Frequencies --    533.4703               721.1524               840.9188
 Red. masses --      4.4839                 4.4817                 3.9928
 Frc consts  --      0.7518                 1.3732                 1.6635
 IR Inten    --     17.8411                 4.6172                39.1555

                     25                     26                     27
                      A                      A                      A
 Frequencies --    916.3160               938.0747               954.1203
 Red. masses --      3.0933                 2.5871                 2.5252
 Frc consts  --      1.5303                 1.3413                 1.3544
 IR Inten    --      2.6475                 4.7162                11.0180

                     28                     29                     30
                      A                      A                      A
 Frequencies --   1055.5519              1072.4563              1089.6185
 Red. masses --      2.2242                 2.1362                 1.2177
 Frc consts  --      1.4601                 1.4476                 0.8518
 IR Inten    --     20.7249                26.0907                 1.3348

                     31                     32                     33
                      A                      A                      A
 Frequencies --   1091.9613              1138.7888              1143.8718
 Red. masses --      1.1892                 1.2748                 1.2631
 Frc consts  --      0.8354                 0.9740                 0.9737
 IR Inten    --      0.0753                 5.0551                10.0014

                     34                     35                     36
                      A                      A                      A
 Frequencies --   1147.7796              1153.0273              1239.8512
 Red. masses --      1.3402                 1.3305                 1.6088
 Frc consts  --      1.0402                 1.0422                 1.4571
 IR Inten    --      0.8391                 1.0415                10.6212

                     37                     38                     39
                      A                      A                      A
 Frequencies --   1278.2229              1283.8371              1295.5265
 Red. masses --      1.8816                 1.8576                 1.9172
 Frc consts  --      1.8113                 1.8039                 1.8959
 IR Inten    --      0.1491                 1.2857                12.1625

                     40                     41                     42
                      A                      A                      A
 Frequencies --   1311.3991              1318.0924              1442.4084
 Red. masses --      2.3324                 2.3683                 1.1444
 Frc consts  --      2.3633                 2.4242                 1.4028
 IR Inten    --     10.2238                 5.5340                 4.6509

                     43                     44                     45
                      A                      A                      A
 Frequencies --   1447.6223              1466.8412              1468.5655
 Red. masses --      1.1521                 1.1551                 1.1610
 Frc consts  --      1.4225                 1.4643                 1.4752
 IR Inten    --      0.6794                 0.2206                 7.5476

                     46                     47                     48
                      A                      A                      A
 Frequencies --   1487.3720              1489.0214              1505.5906
 Red. masses --      1.0448                 1.1728                 1.0420
 Frc consts  --      1.3618                 1.5320                 1.3917
 IR Inten    --      0.5954                 6.6252                 3.5100

                     49                     50                     51
                      A                      A                      A
 Frequencies --   1508.0439              1513.9054              1514.4671
 Red. masses --      1.1047                 1.0520                 1.0901
 Frc consts  --      1.4802                 1.4205                 1.4731
 IR Inten    --     13.5460                 1.4126                 6.4837

                     52                     53                     54
                      A                      A                      A
 Frequencies --   1515.9467              1522.9438              1525.6701
 Red. masses --      1.0424                 1.0778                 1.0503
 Frc consts  --      1.4114                 1.4729                 1.4405
 IR Inten    --      0.0496                 3.1576                 2.5565

                     55                     56                     57
                      A                      A                      A
 Frequencies --   1534.9950              1540.0060              1543.9375
 Red. masses --      1.0484                 1.0487                 1.0518
 Frc consts  --      1.4554                 1.4654                 1.4772
 IR Inten    --     10.4667                 2.5680                 6.4350

                     58                     59                     60
                      A                      A                      A
 Frequencies --   1548.4859              1556.6073              2096.7643
 Red. masses --      1.0510                 1.0465                11.9712
 Frc consts  --      1.4848                 1.4940                31.0089
 IR Inten    --     20.4147                 7.9860                73.3797

                     61                     62                     63
                      A                      A                      A
 Frequencies --   2943.6708              2948.6236              2960.2804
 Red. masses --      1.0586                 1.0571                 1.0585
 Frc consts  --      5.4046                 5.4151                 5.4653
 IR Inten    --     39.5296                45.5152               229.0732

                     64                     65                     66
                      A                      A                      A
 Frequencies --   3065.3380              3066.2466              3069.7975
 Red. masses --      1.0780                 1.0767                 1.0667
 Frc consts  --      5.9682                 5.9642                 5.9227
 IR Inten    --     38.3087                23.2393                29.6896

                     67                     68                     69
                      A                      A                      A
 Frequencies --   3070.4711              3074.7691              3084.7243
 Red. masses --      1.0417                 1.0363                 1.0356
 Frc consts  --      5.7861                 5.7722                 5.8057
 IR Inten    --     29.2101                12.3854                82.0344

                     70                     71                     72
                      A                      A                      A
 Frequencies --   3110.7123              3136.2106              3141.0904
 Red. masses --      1.1040                 1.1023                 1.1011
 Frc consts  --      6.2940                 6.3881                 6.4007
 IR Inten    --     39.7684                 1.4453                 9.2296

                     73                     74                     75
                      A                      A                      A
 Frequencies --   3173.5733              3178.3744              3183.5898
 Red. masses --      1.1014                 1.0994                 1.1014
 Frc consts  --      6.5354                 6.5433                 6.5772
 IR Inten    --      6.0664                 4.0306                20.7389

                     76                     77                     78
                      A                      A                      A
 Frequencies --   3207.2080              3210.0158              3214.8317
 Red. masses --      1.1088                 1.1083                 1.1093
 Frc consts  --      6.7196                 6.7286                 6.7550
 IR Inten    --      2.7814                 3.8548                12.7309

 - Thermochemistry -
 -------------------
 Temperature   298.150 Kelvin.  Pressure   1.00000 Atm.
 Atom     1 has atomic number  6 and mass  12.00000

 Molecular mass:   142.14700 amu.
 Principal axes and moments of inertia in atomic units:
                           1         2         3
     Eigenvalues --   920.912402535.232872721.66194
           X            0.99987   0.01582   0.00004
           Y           -0.01582   0.99987  -0.00097
           Z           -0.00005   0.00097   1.00000
 This molecule is an asymmetric top.
 Rotational symmetry number  1.
 Warning -- assumption of classical behavior for rotation
           may cause significant error
 Rotational temperatures (Kelvin)      0.09405     0.03416     0.03182
 Rotational constants (GHZ):           1.95973     0.71186     0.66310
 Zero-point vibrational energy     671385.9 (Joules/Mol)
                                  160.46507 (Kcal/Mol)
 Warning -- explicit consideration of  22 degrees of freedom as
           vibrations may cause significant error
 Vibrational temperatures:     19.70    97.39   114.50   154.54   164.05
          (Kelvin)            181.82   219.20   243.74   373.39   398.80
                              441.85   458.60   466.82   489.71   548.20
                              571.21   580.80   609.77   610.30   637.41
                              753.31   767.54  1037.58  1209.89  1318.37
                             1349.68  1372.77  1518.70  1543.03  1567.72
                             1571.09  1638.46  1645.78  1651.40  1658.95
                             1783.87  1839.08  1847.16  1863.97  1886.81
                             1896.44  2075.30  2082.81  2110.46  2112.94
                             2140.00  2142.37  2166.21  2169.74  2178.17
                             2178.98  2181.11  2191.18  2195.10  2208.52
                             2215.73  2221.38  2227.93  2239.61  3016.78
                             4235.29  4242.41  4259.18  4410.34  4411.65
                             4416.75  4417.72  4423.91  4438.23  4475.62
                             4512.31  4519.33  4566.06  4572.97  4580.48
                             4614.46  4618.50  4625.43

 Zero-point correction=                           0.255717 (Hartree/Particle)
 Thermal correction to Energy=                    0.269754
 Thermal correction to Enthalpy=                  0.270699
 Thermal correction to Gibbs Free Energy=         0.214676
 Sum of electronic and zero-point Energies=           -424.778717
 Sum of electronic and thermal Energies=              -424.764680
 Sum of electronic and thermal Enthalpies=            -424.763735
 Sum of electronic and thermal Free Energies=         -424.819758

                     E (Thermal)             CV                S
                      KCal/Mol        Cal/Mol-Kelvin    Cal/Mol-Kelvin
 Total                  169.273             49.653            117.910
 Electronic               0.000              0.000              0.000
 Translational            0.889              2.981             40.766
 Rotational               0.889              2.981             30.231
 Vibrational            167.496             43.691             46.913
 Vibration     1          0.593              1.986              7.386
 Vibration     2          0.598              1.970              4.220
 Vibration     3          0.600              1.963              3.901
 Vibration     4          0.606              1.943              3.315
 Vibration     5          0.607              1.938              3.199
 Vibration     6          0.611              1.927              3.001
 Vibration     7          0.619              1.900              2.643
 Vibration     8          0.625              1.880              2.442
 Vibration     9          0.668              1.747              1.665
 Vibration    10          0.678              1.716              1.551
 Vibration    11          0.697              1.660              1.378
 Vibration    12          0.705              1.638              1.317
 Vibration    13          0.709              1.627              1.288
 Vibration    14          0.720              1.595              1.210
 Vibration    15          0.751              1.511              1.035
 Vibration    16          0.764              1.477              0.974
 Vibration    17          0.769              1.462              0.949
 Vibration    18          0.786              1.418              0.879
 Vibration    19          0.786              1.418              0.878
 Vibration    20          0.803              1.376              0.817
 Vibration    21          0.879              1.198              0.602
 Vibration    22          0.888              1.176              0.580

                           ! Non-Optimized Parameters !

 1\1\GINC-NODE308\Freq\RB3LYP\6-31G(d)\C8H18N2\VSC10255\08-Dec-2020\0\\
 #N Geom=AllCheck Guess=TCheck SCRF=Check GenChk RB3LYP/6-31G(d) Freq\\
 CID_59981531_JID_662_neutraal\\0,1\C,0.2923002706,-1.4156727169,0.9379
 602795\N,-0.5195143497,-0.3120568987,1.5746036101\C,-1.5956278074,0.14
 03929035,0.6232288692\C,0.4118879581,0.8392610981,1.876049928\C,-1.109
 7858775,-0.7814294467,2.777378792\C,-1.5482350191,-1.2090702278,3.8638
 0362\N,2.1698033656,-1.3323846294,3.9088803027\C,1.6539076557,-2.68949
 41937,4.0950990966\C,1.717086089,-0.4773302308,5.0073620443\C,3.623048

 Normal termination of Gaussian 16 at Tue Dec  8 14:04:41 2020.

 ----------------------------------------------------------------------
 # B3LYP/6-311++G(d,p) empiricaldispersion=gd3bj scf=xqc pop=npa geom=c
 heck
 ----------------------------------------------------------------------

 -------------------------------------
 CID_59981531_JID_662_Energie_neutraal
 -------------------------------------
 Structure from the checkpoint file:  "JID_662.chk"
 Charge =  0 Multiplicity = 1

 SCF Done:  E(RB3LYP) =  -425.162814100     A.U. after   15 cycles
 Normal termination of Gaussian 16 at Tue Dec  8 14:10:27 2020.

 ----------------------------------------------------------------------
 # B3LYP/6-311++G(d,p) empiricaldispersion=gd3bj scf=xqc pop=npa geom=c
 heck
 ----------------------------------------------------------------------

 -----------------------------------
 CID_59981531_JID_662_Energie_kation
 -----------------------------------
 Structure from the checkpoint file:  "JID_662.chk"
 Charge =  1 Multiplicity = 2

 SCF Done:  E(UB3LYP) =  -424.884246690     A.U. after   24 cycles
 Normal termination of Gaussian 16 at Tue Dec  8 14:17:23 2020.
 Gaussian 16:  ES64L-G16RevA.03 25-Dec-2016

 ----------------------------------
 CID_59981531_JID_662_Energie_anion
 ----------------------------------
 Structure from the checkpoint file:  "JID_662.chk"
 Charge = -1 Multiplicity = 2

                         Standard orientation:
 ---------------------------------------------------------------------
 Center     Atomic      Atomic             Coordinates (Angstroms)
 Number     Number       Type             X           Y           Z
 ---------------------------------------------------------------------
      1          6           0       -1.273861   -0.910182    1.235829
      2          7           0       -1.772838   -0.201801   -0.001727
      3          6           0       -3.277924   -0.238925   -0.036104
      4          6           0       -1.217130   -0.921755   -1.208693
      5          6           0       -1.326832    1.145960    0.002523
      6          6           0       -0.853590    2.299847    0.007049
      7          7           0        1.931366   -0.166929   -0.002077
      8          6           0        2.040332    0.657974    1.202180
      9          6           0        2.051323    0.677929   -1.191429
     10          6           0        2.934413   -1.223128   -0.006131
     11          1           0       -1.664654   -1.932089    1.250024
     12          1           0       -1.618586   -0.342814    2.099098
     13          1           0       -0.186131   -0.900409    1.177213
     14          1           0       -3.598532    0.284474   -0.936007
     15          1           0       -3.620979   -1.277587   -0.039445
     16          1           0       -3.639921    0.292624    0.843143
     17          1           0       -1.522421   -0.362322   -2.091773
     18          1           0       -0.132760   -0.909464   -1.097992
     19          1           0       -1.607916   -1.943563   -1.231050
     20          1           0        3.028704    1.149308    1.281134
     21          1           0        1.259893    1.423452    1.179260
     22          1           0        1.905028    0.031536    2.092517
     23          1           0        1.270991    1.443365   -1.162438
     24          1           0        3.040538    1.169941   -1.253415
     25          1           0        1.922888    0.066547   -2.093064
     26          1           0        2.807749   -1.860133    0.876791
     27          1           0        2.815621   -1.845799   -0.900312
     28          1           0        3.970411   -0.832267    0.001590
 ---------------------------------------------------------------------

 SCF Done:  E(UB3LYP) =  -425.159562144     A.U. after   26 cycles

 The electronic state is 2-A.
 Alpha  occ. eigenvalues --  -14.35193 -14.21297 -10.12074 -10.11519 -10.11417
 Alpha  occ. eigenvalues --  -10.09306 -10.08051 -10.08048 -10.02299  -9.99997
 Alpha  occ. eigenvalues --   -0.92050  -0.82485  -0.64973  -0.64448  -0.61465
 Alpha  occ. eigenvalues --   -0.60895  -0.60228  -0.53988  -0.49349  -0.45968
 Alpha  occ. eigenvalues --   -0.41610  -0.41195  -0.37272  -0.36955  -0.36694
 Alpha  occ. eigenvalues --   -0.33852  -0.33681  -0.32240  -0.30649  -0.30460
 Alpha  occ. eigenvalues --   -0.30208  -0.29647  -0.29169  -0.26969  -0.26254
 Alpha  occ. eigenvalues --   -0.26206  -0.13016  -0.11713  -0.11703  -0.11226
 Alpha  occ. eigenvalues --    0.03953
 Alpha virt. eigenvalues --    0.06641   0.07815   0.08286   0.09243   0.09588
 Alpha virt. eigenvalues --    0.09703   0.10627   0.11153   0.11886   0.12401
 Alpha virt. eigenvalues --    0.12458   0.12794   0.13686   0.14201   0.15347

  Beta  occ. eigenvalues --  -14.35182 -14.21292 -10.12011 -10.11464 -10.11363
  Beta  occ. eigenvalues --  -10.09283 -10.08043 -10.08040 -10.02297  -9.99993
  Beta  occ. eigenvalues --   -0.92026  -0.82474  -0.64894  -0.64369  -0.61408
  Beta  occ. eigenvalues --   -0.60860  -0.60210  -0.53933  -0.49315  -0.45917
  Beta  occ. eigenvalues --   -0.41518  -0.41127  -0.37250  -0.36926  -0.36680
  Beta  occ. eigenvalues --   -0.33782  -0.33603  -0.32142  -0.30602  -0.30421
  Beta  occ. eigenvalues --   -0.30154  -0.29617  -0.29148  -0.26952  -0.26238
  Beta  occ. eigenvalues --   -0.26188  -0.12991  -0.11708  -0.11700  -0.11207
  Beta virt. eigenvalues --    0.06552   0.07606   0.08421   0.09071   0.09523
  Beta virt. eigenvalues --    0.10088   0.10637   0.10982   0.11380   0.12280
  Beta virt. eigenvalues --    0.12757   0.12769   0.13332   0.13813   0.14505

 Mulliken charges and spin densities:
               1          2
     1  C    0.578059  -0.865793
     2  N   -0.323824   0.422570
     3  C    0.761862  -0.938263
     4  C    0.519926  -0.817730
     5  C    0.493958  -0.143379
     6  C   -1.166638  -0.202996
     7  N   -0.147965   0.112381
     8  C   -0.199195  -0.191386
     9  C   -0.178396  -0.208155
    10  C    0.062925  -0.405034
    11  H   -0.542789   0.749042
    12  H   -0.028873   0.212805
    13  H    0.116180   0.079709
    14  H   -0.082234   0.260055
    15  H   -0.657524   0.845034
    16  H   -0.079877   0.257906
    17  H   -0.014867   0.197899
    18  H    0.122042   0.084473
    19  H   -0.547928   0.754286
    20  H    0.073633   0.013320
    21  H    0.202526  -0.033082
    22  H    0.007667   0.108310
    23  H    0.203638  -0.032629
    24  H    0.078923   0.007656
    25  H    0.007105   0.108366
    26  H   -0.148824   0.288012
    27  H   -0.135695   0.273276
    28  H    0.026186   0.063346
 Sum of Mulliken charges =  -1.00000   1.00000

 Dipole moment (field-independent basis, Debye):
    X=              5.6175    Y=              1.1888    Z=             -0.0490  Tot=              5.7421
 Quadrupole moment (field-independent basis, Debye-Ang):
   XX=           -114.8638   YY=           -131.6900   ZZ=            -91.3269
   XY=             -8.4073   XZ=             -0.0065   YZ=              0.0208

 Summary of Natural Population Analysis:

                                       Natural Population
                Natural  -----------------------------------------------
    Atom  No    Charge         Core      Valence    Rydberg      Total
 -----------------------------------------------------------------------
      C    1   -0.16770      0.99961     2.15761    0.01048     3.16770
      N    2   -0.18621      0.99970     2.67068    0.01583     3.68621
      C    3   -0.16293      0.99962     2.15414    0.00916     3.16293
      C    4   -0.16932      0.99961     2.15735    0.01235     3.16932
      C    5   -0.15398      0.99942     2.13782    0.01674     3.15398
      C    6   -0.14684      0.99971     2.13746    0.00967     3.14684
      N    7   -0.28739      0.99975     2.77646    0.01118     3.78739
      C    8   -0.18563      0.99964     2.17776    0.00823     3.18563
      C    9   -0.18575      0.99964     2.17792    0.00818     3.18575
      C   10   -0.17575      0.99964     2.16772    0.00839     3.17575
      H   11    0.10754      0.00000     0.38790    0.00457     0.39246
      H   12    0.10570      0.00000     0.39297    0.00132     0.39430
      H   13    0.11485      0.00000     0.38201    0.00314     0.38515
      H   14    0.10754      0.00000     0.39112    0.00134     0.39246
      H   15    0.10926      0.00000     0.38539    0.00534     0.39074
      H   16    0.10751      0.00000     0.39115    0.00134     0.39249
      H   17    0.10561      0.00000     0.39312    0.00127     0.39439
      H   18    0.11649      0.00000     0.38035    0.00315     0.38351
      H   19    0.10735      0.00000     0.38827    0.00438     0.39265
      H   20    0.07698      0.00000     0.42192    0.00111     0.42302
      H   21    0.11890      0.00000     0.37983    0.00127     0.38110
      H   22    0.09012      0.00000     0.40902    0.00086     0.40988
      H   23    0.11892      0.00000     0.37982    0.00126     0.38108
      H   24    0.07705      0.00000     0.42184    0.00111     0.42295
      H   25    0.09015      0.00000     0.40900    0.00084     0.40985
      H   26    0.09535      0.00000     0.40362    0.00103     0.40465
      H   27    0.09515      0.00000     0.40382    0.00103     0.40485
      H   28    0.07703      0.00000     0.42155    0.00143     0.42297
 =======================================================================
   * Total *   -0.00000      9.99635    29.85764    0.14602    40.00000

 Normal termination of Gaussian 16 at Tue Dec  8 14:25:29 2020.
