 Gaussian 16, Revision A.03,

 -----------------------------------------------------------
 # opt freq B3LYP/6-31G(d) empiricaldispersion=gd3bj scf=xqc
 -----------------------------------------------------------

 ----------------------------
 CID_55303441_JID_64_neutraal
 ----------------------------
 Symbolic Z-matrix:
 Charge =  0 Multiplicity = 1

 SCF Done:  E(RB3LYP) =  -462.540489598     A.U. after   14 cycles
 SCF Done:  E(RB3LYP) =  -462.542301492     A.U. after   12 cycles
 SCF Done:  E(RB3LYP) =  -462.541307862     A.U. after   13 cycles
 SCF Done:  E(RB3LYP) =  -462.543102171     A.U. after   12 cycles
 SCF Done:  E(RB3LYP) =  -462.543329592     A.U. after   12 cycles
 SCF Done:  E(RB3LYP) =  -462.543403669     A.U. after   12 cycles
 SCF Done:  E(RB3LYP) =  -462.543417528     A.U. after   10 cycles
 SCF Done:  E(RB3LYP) =  -462.543423315     A.U. after    9 cycles
 SCF Done:  E(RB3LYP) =  -462.543425167     A.U. after    9 cycles
 SCF Done:  E(RB3LYP) =  -462.543426030     A.U. after    8 cycles
 SCF Done:  E(RB3LYP) =  -462.543429579     A.U. after    9 cycles
 SCF Done:  E(RB3LYP) =  -462.543429845     A.U. after    8 cycles
 SCF Done:  E(RB3LYP) =  -462.543429895     A.U. after    7 cycles
 SCF Done:  E(RB3LYP) =  -462.543429920     A.U. after    7 cycles
 SCF Done:  E(RB3LYP) =  -462.543429939     A.U. after    7 cycles
 Optimization completed.
    -- Stationary point found.

 1\1\GINC-NODE315\FOpt\RB3LYP\6-31G(d)\C8H12O2\VSC10255\08-Dec-2020\0\\
 # opt freq B3LYP/6-31G(d) empiricaldispersion=gd3bj scf=xqc\\CID_55303
 441_JID_64_neutraal\\0,1\C,0.9336788585,-0.0071659374,0.0999215312\C,0
 .4964421377,-1.2268521334,-0.6529951545\C,-0.3380202613,-2.1513958995,
 -0.1511905548\C,-0.8270313359,-3.3640686069,-0.8171908584\C,-1.5979136
 146,-4.3027843876,-0.2099621779\C,-2.0301403901,-5.5921327983,-0.86254
 19247\C,-2.0670095151,-4.1985003706,1.2203340831\C,-0.3986517631,-3.54
 20026051,-2.2415271941\O,0.7386870147,-3.4554932353,-2.6569100735\O,-1

 Normal termination of Gaussian 16 at Tue Dec  8 10:18:07 2020.

 --------------------------------------------------------------------
 #N Geom=AllCheck Guess=TCheck SCRF=Check GenChk RB3LYP/6-31G(d) Freq
 --------------------------------------------------------------------

 Structure from the checkpoint file:  "JID_64.chk"
 ----------------------------
 CID_55303441_JID_64_neutraal
 ----------------------------
 Charge =  0 Multiplicity = 1

 SCF Done:  E(RB3LYP) =  -462.543429939     A.U. after    1 cycles

  Exact polarizability: 141.396  15.411  96.235   1.593   0.572  57.057
 Approx polarizability: 206.330  40.266 138.534   8.380   4.908  88.759

                      1                      2                      3
                      A                      A                      A
 Frequencies --     32.8924                70.0227                76.7693
 Red. masses --      2.7391                 1.7539                 1.4355
 Frc consts  --      0.0017                 0.0051                 0.0050
 IR Inten    --      1.7471                 1.0689                 0.7413

                      4                      5                      6
                      A                      A                      A
 Frequencies --    104.7257               127.9787               155.5136
 Red. masses --      2.3617                 1.3635                 2.6706
 Frc consts  --      0.0153                 0.0132                 0.0381
 IR Inten    --      0.0294                 1.2250                 1.6105

                      7                      8                      9
                      A                      A                      A
 Frequencies --    162.6092               205.8356               236.1678
 Red. masses --      3.1545                 1.2483                 2.7511
 Frc consts  --      0.0491                 0.0312                 0.0904
 IR Inten    --      0.2538                 0.1955                 0.5435

                     10                     11                     12
                      A                      A                      A
 Frequencies --    321.4764               355.1039               379.6502
 Red. masses --      3.5430                 3.4523                 3.1453
 Frc consts  --      0.2157                 0.2565                 0.2671
 IR Inten    --      0.3855                 1.4712                 0.6421

                     13                     14                     15
                      A                      A                      A
 Frequencies --    405.8680               421.5418               489.3082
 Red. masses --      3.2553                 3.4034                 2.7651
 Frc consts  --      0.3159                 0.3563                 0.3901
 IR Inten    --      1.9740                 2.9527                 3.9218

                     16                     17                     18
                      A                      A                      A
 Frequencies --    578.7942               626.6362               663.3084
 Red. masses --      3.2140                 2.7813                 1.5308
 Frc consts  --      0.6344                 0.6435                 0.3968
 IR Inten    --     13.2919                35.1009                65.1050

                     19                     20                     21
                      A                      A                      A
 Frequencies --    749.4653               797.4106               838.5708
 Red. masses --      3.3902                 3.3919                 2.3836
 Frc consts  --      1.1220                 1.2707                 0.9875
 IR Inten    --     37.3672                14.2104                 9.9502

                     22                     23                     24
                      A                      A                      A
 Frequencies --    909.9739               968.0737               986.0021
 Red. masses --      3.1112                 1.5812                 1.3775
 Frc consts  --      1.5179                 0.8731                 0.7890
 IR Inten    --      0.9354                24.0278                 0.3763

                     25                     26                     27
                      A                      A                      A
 Frequencies --    996.4401              1001.4448              1076.1828
 Red. masses --      1.2997                 1.0978                 1.5286
 Frc consts  --      0.7603                 0.6487                 1.0431
 IR Inten    --      5.3822                21.6230                 0.0924

                     28                     29                     30
                      A                      A                      A
 Frequencies --   1104.4136              1109.1162              1156.7596
 Red. masses --      2.3440                 1.6606                 2.5535
 Frc consts  --      1.6845                 1.2035                 2.0131
 IR Inten    --     25.7896                 0.4896                83.0849

                     31                     32                     33
                      A                      A                      A
 Frequencies --   1166.6453              1203.5117              1300.8014
 Red. masses --      2.4715                 3.1313                 2.1397
 Frc consts  --      1.9819                 2.6723                 2.1332
 IR Inten    --     84.3338                85.2478                13.0589

                     34                     35                     36
                      A                      A                      A
 Frequencies --   1344.8728              1373.9188              1395.4561
 Red. masses --      1.2915                 1.3524                 3.2232
 Frc consts  --      1.3763                 1.5041                 3.6980
 IR Inten    --      4.6318                 1.8838                57.9232

                     37                     38                     39
                      A                      A                      A
 Frequencies --   1439.6806              1441.2441              1451.3201
 Red. masses --      1.2679                 1.2590                 1.2135
 Frc consts  --      1.5483                 1.5408                 1.5059
 IR Inten    --      8.8163                 5.5321                 4.1408

                     40                     41                     42
                      A                      A                      A
 Frequencies --   1499.8916              1507.1137              1513.3851
 Red. masses --      1.0644                 1.0456                 1.0473
 Frc consts  --      1.4109                 1.3993                 1.4133
 IR Inten    --      8.5952                 4.9897                 5.1569

                     43                     44                     45
                      A                      A                      A
 Frequencies --   1518.2608              1522.0634              1528.3452
 Red. masses --      1.0771                 1.0680                 1.0791
 Frc consts  --      1.4628                 1.4577                 1.4850
 IR Inten    --     15.7956                 4.0520                 9.1761

                     46                     47                     48
                      A                      A                      A
 Frequencies --   1682.7693              1724.8616              1821.3602
 Red. masses --      5.9010                 5.3837                 9.5783
 Frc consts  --      9.8452                 9.4372                18.7210
 IR Inten    --     18.4009                 6.5337               269.7666

                     49                     50                     51
                      A                      A                      A
 Frequencies --   3027.9466              3033.8213              3040.0019
 Red. masses --      1.0373                 1.0436                 1.0447
 Frc consts  --      5.6031                 5.6596                 5.6885
 IR Inten    --     49.0638                 9.1223                58.1525

                     52                     53                     54
                      A                      A                      A
 Frequencies --   3072.6850              3078.3298              3084.6356
 Red. masses --      1.0996                 1.0993                 1.0970
 Frc consts  --      6.1168                 6.1377                 6.1501
 IR Inten    --     24.0648                15.2750                26.7344

                     55                     56                     57
                      A                      A                      A
 Frequencies --   3113.2846              3159.7512              3178.5824
 Red. masses --      1.1005                 1.0954                 1.0944
 Frc consts  --      6.2843                 6.4434                 6.5149
 IR Inten    --     21.4765                 9.6519                12.6440

                     58                     59                     60
                      A                      A                      A
 Frequencies --   3190.0044              3205.6784              3667.0375
 Red. masses --      1.0874                 1.0874                 1.0636
 Frc consts  --      6.5194                 6.5837                 8.4267
 IR Inten    --     21.1117                10.7099                41.9928

 - Thermochemistry -
 -------------------
 Temperature   298.150 Kelvin.  Pressure   1.00000 Atm.
 Atom     1 has atomic number  6 and mass  12.00000

 Molecular mass:   140.08373 amu.
 Principal axes and moments of inertia in atomic units:
                           1         2         3
     Eigenvalues --  1102.862741850.499612743.52485
           X            0.99994   0.00852  -0.00613
           Y           -0.00855   0.99995  -0.00579
           Z            0.00608   0.00584   0.99996
 This molecule is an asymmetric top.
 Rotational symmetry number  1.
 Warning -- assumption of classical behavior for rotation
           may cause significant error
 Rotational temperatures (Kelvin)      0.07854     0.04681     0.03157
 Rotational constants (GHZ):           1.63642     0.97527     0.65782
 Zero-point vibrational energy     486852.1 (Joules/Mol)
                                  116.36045 (Kcal/Mol)
 Warning -- explicit consideration of  16 degrees of freedom as
           vibrations may cause significant error
 Vibrational temperatures:     47.32   100.75   110.45   150.68   184.13
          (Kelvin)            223.75   233.96   296.15   339.79   462.53
                              510.92   546.23   583.95   606.50   704.01
                              832.76   901.59   954.35  1078.31  1147.30
                             1206.52  1309.25  1392.84  1418.64  1433.66
                             1440.86  1548.39  1589.00  1595.77  1664.32
                             1678.54  1731.58  1871.56  1934.97  1976.76
                             2007.75  2071.38  2073.63  2088.13  2158.01
                             2168.40  2177.42  2184.44  2189.91  2198.95
                             2421.13  2481.69  2620.53  4356.54  4364.99
                             4373.88  4420.91  4429.03  4438.10  4479.32
                             4546.18  4573.27  4589.70  4612.26  5276.05

 Zero-point correction=                           0.185432 (Hartree/Particle)
 Thermal correction to Energy=                    0.197449
 Thermal correction to Enthalpy=                  0.198393
 Thermal correction to Gibbs Free Energy=         0.146638
 Sum of electronic and zero-point Energies=           -462.357998
 Sum of electronic and thermal Energies=              -462.345981
 Sum of electronic and thermal Enthalpies=            -462.345037
 Sum of electronic and thermal Free Energies=         -462.396792

                     E (Thermal)             CV                S
                      KCal/Mol        Cal/Mol-Kelvin    Cal/Mol-Kelvin
 Total                  123.901             41.811            108.928
 Electronic               0.000              0.000              0.000
 Translational            0.889              2.981             40.723
 Rotational               0.889              2.981             30.105
 Vibrational            122.124             35.850             38.101
 Vibration     1          0.594              1.983              5.647
 Vibration     2          0.598              1.968              4.153
 Vibration     3          0.599              1.965              3.972
 Vibration     4          0.605              1.945              3.364
 Vibration     5          0.611              1.925              2.976
 Vibration     6          0.620              1.897              2.604
 Vibration     7          0.623              1.888              2.519
 Vibration     8          0.640              1.832              2.080
 Vibration     9          0.655              1.785              1.832
 Vibration    10          0.707              1.632              1.303
 Vibration    11          0.731              1.565              1.143
 Vibration    12          0.750              1.514              1.041
 Vibration    13          0.771              1.457              0.941
 Vibration    14          0.784              1.423              0.887
 Vibration    15          0.845              1.274              0.685
 Vibration    16          0.935              1.077              0.488

 Optimization completed.
    -- Stationary point found.

 1\1\GINC-NODE315\Freq\RB3LYP\6-31G(d)\C8H12O2\VSC10255\08-Dec-2020\0\\
 #N Geom=AllCheck Guess=TCheck SCRF=Check GenChk RB3LYP/6-31G(d) Freq\\
 CID_55303441_JID_64_neutraal\\0,1\C,0.9336788585,-0.0071659374,0.09992
 15312\C,0.4964421377,-1.2268521334,-0.6529951545\C,-0.3380202613,-2.15
 13958995,-0.1511905548\C,-0.8270313359,-3.3640686069,-0.8171908584\C,-
 1.5979136146,-4.3027843876,-0.2099621779\C,-2.0301403901,-5.5921327983
 ,-0.8625419247\C,-2.0670095151,-4.1985003706,1.2203340831\C,-0.3986517
 631,-3.5420026051,-2.2415271941\O,0.7386870147,-3.4554932353,-2.656910

 Normal termination of Gaussian 16 at Tue Dec  8 10:21:29 2020.

 ----------------------------------------------------------------------
 # B3LYP/6-311++G(d,p) empiricaldispersion=gd3bj scf=xqc pop=npa geom=c
 heck
 ----------------------------------------------------------------------

 ------------------------------------
 CID_55303441_JID_64_Energie_neutraal
 ------------------------------------
 Structure from the checkpoint file:  "JID_64.chk"
 Charge =  0 Multiplicity = 1

 SCF Done:  E(RB3LYP) =  -462.685572957     A.U. after   14 cycles
 Normal termination of Gaussian 16 at Tue Dec  8 10:22:38 2020.

 ----------------------------------------------------------------------
 # B3LYP/6-311++G(d,p) empiricaldispersion=gd3bj scf=xqc pop=npa geom=c
 heck
 ----------------------------------------------------------------------

 ----------------------------------
 CID_55303441_JID_64_Energie_kation
 ----------------------------------
 Structure from the checkpoint file:  "JID_64.chk"
 Charge =  1 Multiplicity = 2

 SCF Done:  E(UB3LYP) =  -462.391885505     A.U. after   20 cycles
 Normal termination of Gaussian 16 at Tue Dec  8 10:24:50 2020.
 Gaussian 16:  ES64L-G16RevA.03 25-Dec-2016

 ---------------------------------
 CID_55303441_JID_64_Energie_anion
 ---------------------------------
 Structure from the checkpoint file:  "JID_64.chk"
 Charge = -1 Multiplicity = 2

                         Standard orientation:
 ---------------------------------------------------------------------
 Center     Atomic      Atomic             Coordinates (Angstroms)
 Number     Number       Type             X           Y           Z
 ---------------------------------------------------------------------
      1          6           0       -3.630334    0.652343    0.114825
      2          6           0       -2.283121    0.003223    0.018102
      3          6           0       -1.125392    0.681685    0.065764
      4          6           0        0.232675    0.130876   -0.008568
      5          6           0        1.357030    0.891457   -0.047509
      6          6           0        2.748876    0.333903   -0.211827
      7          6           0        1.345932    2.399301    0.006864
      8          6           0        0.326570   -1.362846   -0.070873
      9          8           0       -0.289693   -2.081862   -0.830347
     10          8           0        1.162954   -1.880704    0.867996
     11          1           0       -3.551408    1.737975    0.237841
     12          1           0       -4.201954    0.254152    0.964527
     13          1           0       -4.230827    0.453404   -0.783378
     14          1           0       -2.273261   -1.074673   -0.116305
     15          1           0       -1.188675    1.761033    0.171879
     16          1           0        3.277739    0.892149   -0.995584
     17          1           0        3.326187    0.468700    0.713089
     18          1           0        2.773882   -0.724791   -0.466328
     19          1           0        1.532024    2.820561   -0.990926
     20          1           0        0.417337    2.828447    0.383888
     21          1           0        2.162073    2.751151    0.650200
     22          1           0        1.137377   -2.847233    0.729240
 ---------------------------------------------------------------------

 SCF Done:  E(UB3LYP) =  -462.672584356     A.U. after   33 cycles
 SCF Done:  E(UB3LYP) =  -462.672584356     a.u. after    1 cycles

 The electronic state is 2-A.
 Alpha  occ. eigenvalues --  -19.04072 -18.98069 -10.16720 -10.05194 -10.04778
 Alpha  occ. eigenvalues --  -10.04514 -10.04302 -10.04143 -10.04019 -10.03458
 Alpha  occ. eigenvalues --   -0.98002  -0.88804  -0.70326  -0.66233  -0.60752
 Alpha  occ. eigenvalues --   -0.57404  -0.54596  -0.49440  -0.43376  -0.41587
 Alpha  occ. eigenvalues --   -0.36239  -0.35651  -0.34872  -0.31457  -0.30482
 Alpha  occ. eigenvalues --   -0.30015  -0.29820  -0.28281  -0.27709  -0.26666
 Alpha  occ. eigenvalues --   -0.25800  -0.24423  -0.23447  -0.21440  -0.19791
 Alpha  occ. eigenvalues --   -0.18239  -0.14770  -0.09322   0.05361
 Alpha virt. eigenvalues --    0.07610   0.07990   0.08351   0.09946   0.10641
 Alpha virt. eigenvalues --    0.11087   0.11496   0.12139   0.12755   0.13051
 Alpha virt. eigenvalues --    0.13956   0.14922   0.15172   0.16356   0.17595

  Beta  occ. eigenvalues --  -19.04030 -18.97986 -10.16592 -10.05190 -10.04526
  Beta  occ. eigenvalues --  -10.04418 -10.04298 -10.04137 -10.04026 -10.03328
  Beta  occ. eigenvalues --   -0.97861  -0.88667  -0.69990  -0.65985  -0.60573
  Beta  occ. eigenvalues --   -0.57315  -0.54494  -0.49219  -0.43098  -0.41378
  Beta  occ. eigenvalues --   -0.36085  -0.35416  -0.34712  -0.31067  -0.30188
  Beta  occ. eigenvalues --   -0.29900  -0.29684  -0.28177  -0.27558  -0.26544
  Beta  occ. eigenvalues --   -0.25714  -0.24320  -0.23337  -0.21325  -0.19454
  Beta  occ. eigenvalues --   -0.17899  -0.14578  -0.08266
  Beta virt. eigenvalues --    0.07761   0.08323   0.08972   0.09657   0.10393
  Beta virt. eigenvalues --    0.11104   0.11440   0.11817   0.12776   0.12901
  Beta virt. eigenvalues --    0.13392   0.13989   0.14940   0.15286   0.16510

 Mulliken charges and spin densities:
               1          2
     1  C    0.116439  -0.768300
     2  C   -0.173638   0.290541
     3  C   -0.320198  -0.053385
     4  C    2.720087  -1.385942
     5  C   -1.329014   1.696672
     6  C    0.209216  -0.895978
     7  C    0.230752  -0.844280
     8  C   -1.141242   0.369906
     9  O   -0.300699   0.030215
    10  O   -0.139825   0.015839
    11  H   -0.276122   0.416997
    12  H   -0.068756   0.198046
    13  H    0.067719   0.051557
    14  H    0.149202   0.014314
    15  H    0.462193  -0.509531
    16  H    0.101261   0.015051
    17  H   -0.254179   0.420096
    18  H   -0.077108   0.254641
    19  H    0.193845  -0.061234
    20  H   -0.738684   0.903239
    21  H   -0.376885   0.533626
    22  H   -0.054365   0.307911
 Sum of Mulliken charges =  -1.00000   1.00000

 Dipole moment (field-independent basis, Debye):
    X=             -1.3690    Y=             -1.8562    Z=             -2.3231  Tot=              3.2735
 Quadrupole moment (field-independent basis, Debye-Ang):
   XX=           -106.3097   YY=            -98.1009   ZZ=            -82.5724
   XY=             -0.5882   XZ=             -5.7415   YZ=             -9.1061

 Summary of Natural Population Analysis:

                                       Natural Population
                Natural  -----------------------------------------------
    Atom  No    Charge         Core      Valence    Rydberg      Total
 -----------------------------------------------------------------------
      C    1   -0.29890      0.99966     2.29350    0.00574     3.29890
      C    2   -0.07062      0.99954     2.06286    0.00821     3.07062
      C    3   -0.10599      0.99950     2.09646    0.01003     3.10599
      C    4   -0.10241      0.99935     2.09125    0.01181     3.10241
      C    5    0.08613      0.99951     1.90541    0.00895     2.91387
      C    6   -0.29934      0.99963     2.29405    0.00566     3.29934
      C    7   -0.30161      0.99963     2.29602    0.00596     3.30161
      C    8    0.42258      0.99966     1.55145    0.02632     2.57742
      O    9   -0.31361      0.99987     3.30783    0.00592     4.31361
      O   10   -0.34638      0.99988     3.33940    0.00711     4.34638
      H   11    0.09726      0.00000     0.40169    0.00105     0.40274
      H   12    0.09840      0.00000     0.40033    0.00127     0.40160
      H   13    0.09555      0.00000     0.40351    0.00095     0.40445
      H   14    0.09672      0.00000     0.40201    0.00127     0.40328
      H   15    0.09185      0.00000     0.40693    0.00122     0.40815
      H   16    0.09567      0.00000     0.40339    0.00094     0.40433
      H   17    0.10898      0.00000     0.38858    0.00244     0.39102
      H   18    0.10426      0.00000     0.39456    0.00118     0.39574
      H   19    0.09971      0.00000     0.39941    0.00088     0.40029
      H   20    0.10241      0.00000     0.39630    0.00129     0.39759
      H   21    0.10635      0.00000     0.39091    0.00273     0.39365
      H   22    0.23299      0.00000     0.26241    0.00459     0.26701
 =======================================================================
   * Total *    0.00000      9.99623    27.88825    0.11552    38.00000

 Normal termination of Gaussian 16 at Tue Dec  8 10:28:21 2020.
