 Gaussian 16, Revision A.03,

 -----------------------------------------------------------
 # opt freq B3LYP/6-31G(d) empiricaldispersion=gd3bj scf=xqc
 -----------------------------------------------------------

 ------------------------------
 CID_24852061_JID_6356_neutraal
 ------------------------------
 Symbolic Z-matrix:
 Charge =  0 Multiplicity = 1

 SCF Done:  E(RB3LYP) =  -1080.74204562     A.U. after   15 cycles
 SCF Done:  E(RB3LYP) =  -1080.75212684     A.U. after   13 cycles
 SCF Done:  E(RB3LYP) =  -1080.75456452     A.U. after   13 cycles
 SCF Done:  E(RB3LYP) =  -1080.75574250     A.U. after   13 cycles
 SCF Done:  E(RB3LYP) =  -1080.75606591     A.U. after   12 cycles
 SCF Done:  E(RB3LYP) =  -1080.75631446     A.U. after   12 cycles
 SCF Done:  E(RB3LYP) =  -1080.75643177     A.U. after   11 cycles
 SCF Done:  E(RB3LYP) =  -1080.75647327     A.U. after   11 cycles
 SCF Done:  E(RB3LYP) =  -1080.75650532     A.U. after   10 cycles
 SCF Done:  E(RB3LYP) =  -1080.75652224     A.U. after   10 cycles
 SCF Done:  E(RB3LYP) =  -1080.75726041     A.U. after   10 cycles
 SCF Done:  E(RB3LYP) =  -1080.75726011     A.U. after    8 cycles
 SCF Done:  E(RB3LYP) =  -1080.75726944     A.U. after   10 cycles
 SCF Done:  E(RB3LYP) =  -1080.75726964     A.U. after    9 cycles
 SCF Done:  E(RB3LYP) =  -1080.75726996     A.U. after    8 cycles
 SCF Done:  E(RB3LYP) =  -1080.75727002     A.U. after    7 cycles
 Optimization completed.
    -- Stationary point found.
 Normal termination of Gaussian 16 at Thu Dec 10 22:36:02 2020.

 --------------------------------------------------------------------
 #N Geom=AllCheck Guess=TCheck SCRF=Check GenChk RB3LYP/6-31G(d) Freq
 --------------------------------------------------------------------

 Structure from the checkpoint file:  "JID_6356.chk"
 ------------------------------
 CID_24852061_JID_6356_neutraal
 ------------------------------
 Charge =  0 Multiplicity = 1

 SCF Done:  E(RB3LYP) =  -1080.75727002     A.U. after    1 cycles

  Exact polarizability: 257.158  -5.424 146.265  -1.324  -4.587  75.682
 Approx polarizability: 334.280 -26.356 278.108  -0.665 -10.543 120.732

                      1                      2                      3
                      A                      A                      A
 Frequencies --     37.1586                43.1699                64.0747
 Red. masses --      3.5431                 4.7670                 4.2933
 Frc consts  --      0.0029                 0.0052                 0.0104
 IR Inten    --      0.3761                 8.7619                 5.4130

                      4                      5                      6
                      A                      A                      A
 Frequencies --     80.2002               110.1115               123.4536
 Red. masses --      5.0167                 1.1188                 2.5244
 Frc consts  --      0.0190                 0.0080                 0.0227
 IR Inten    --      1.7422                 0.1205                 1.9086

                      7                      8                      9
                      A                      A                      A
 Frequencies --    142.1414               168.8430               176.2334
 Red. masses --      1.2772                 1.9496                 3.8711
 Frc consts  --      0.0152                 0.0327                 0.0708
 IR Inten    --      0.7557                 2.8516                 5.8391

                     10                     11                     12
                      A                      A                      A
 Frequencies --    206.0501               225.9326               250.8808
 Red. masses --      1.8598                 4.2570                 5.7076
 Frc consts  --      0.0465                 0.1280                 0.2117
 IR Inten    --      1.1781                 0.4230                 3.8943

                     13                     14                     15
                      A                      A                      A
 Frequencies --    256.4663               302.7611               324.7260
 Red. masses --      5.1930                 2.6002                 4.9976
 Frc consts  --      0.2012                 0.1404                 0.3105
 IR Inten    --      1.1666                 0.8473                 8.6611

                     16                     17                     18
                      A                      A                      A
 Frequencies --    341.4853               355.0251               439.8201
 Red. masses --      4.0424                 6.7291                 3.2455
 Frc consts  --      0.2777                 0.4997                 0.3699
 IR Inten    --      2.5965                 6.6142                 6.1444

                     19                     20                     21
                      A                      A                      A
 Frequencies --    472.6257               492.6677               570.0208
 Red. masses --      5.4968                10.4203                 5.8576
 Frc consts  --      0.7234                 1.4902                 1.1214
 IR Inten    --      3.3855                 0.1680                 3.3853

                     22                     23                     24
                      A                      A                      A
 Frequencies --    615.1319               649.7159               680.3203
 Red. masses --      5.8619                 6.5031                 6.6546
 Frc consts  --      1.3069                 1.6174                 1.8147
 IR Inten    --      3.5402                 2.7304                 0.4869

                     25                     26                     27
                      A                      A                      A
 Frequencies --    691.0015               710.4911               723.9985
 Red. masses --     12.0132                 6.5393                 5.9467
 Frc consts  --      3.3796                 1.9449                 1.8365
 IR Inten    --      2.5337                 3.8879                 8.3543

                     28                     29                     30
                      A                      A                      A
 Frequencies --    731.7990               738.8401               770.7365
 Red. masses --      4.1383                 4.3415                 4.8455
 Frc consts  --      1.3058                 1.3963                 1.6959
 IR Inten    --     14.3296                 8.1910                 5.0263

                     31                     32                     33
                      A                      A                      A
 Frequencies --    799.8105               876.1609               935.4984
 Red. masses --      1.5023                 1.5071                 3.4819
 Frc consts  --      0.5662                 0.6816                 1.7953
 IR Inten    --     16.8498                24.5332                24.3282

                     34                     35                     36
                      A                      A                      A
 Frequencies --    940.0420               989.3133              1004.7916
 Red. masses --      1.5029                 4.1110                 1.1809
 Frc consts  --      0.7825                 2.3706                 0.7024
 IR Inten    --      8.4109                 2.1464                 4.0358

                     37                     38                     39
                      A                      A                      A
 Frequencies --   1019.0489              1055.5017              1079.4294
 Red. masses --      1.3067                 2.6011                 1.9119
 Frc consts  --      0.7995                 1.7074                 1.3125
 IR Inten    --      7.1105                51.9924                 7.9381

                     40                     41                     42
                      A                      A                      A
 Frequencies --   1103.5834              1158.9491              1161.0917
 Red. masses --      7.3765                 1.6732                 1.3109
 Frc consts  --      5.2931                 1.3241                 1.0412
 IR Inten    --     16.5407                11.9847                 0.0730

                     43                     44                     45
                      A                      A                      A
 Frequencies --   1163.9064              1185.2249              1215.7459
 Red. masses --      1.6614                 2.1948                 1.5840
 Frc consts  --      1.3260                 1.8165                 1.3794
 IR Inten    --     11.7304                13.8873                 3.9107

                     46                     47                     48
                      A                      A                      A
 Frequencies --   1262.9475              1278.3829              1341.5382
 Red. masses --      5.7698                 2.4506                 2.1905
 Frc consts  --      5.4223                 2.3596                 2.3227
 IR Inten    --     15.5103                 6.4438                17.8016

                     49                     50                     51
                      A                      A                      A
 Frequencies --   1372.7631              1386.7124              1393.3006
 Red. masses --      2.3957                 1.2966                 4.0442
 Frc consts  --      2.6600                 1.4690                 4.6256
 IR Inten    --     27.0404                41.9812                18.0544

                     52                     53                     54
                      A                      A                      A
 Frequencies --   1425.7466              1458.2176              1472.4523
 Red. masses --      4.2093                 3.0313                 1.3195
 Frc consts  --      5.0413                 3.7978                 1.6855
 IR Inten    --    124.4366                59.7881                 5.1213

                     55                     56                     57
                      A                      A                      A
 Frequencies --   1485.8286              1497.3524              1500.2625
 Red. masses --      1.0520                 1.0430                 2.5568
 Frc consts  --      1.3683                 1.3777                 3.3906
 IR Inten    --      8.4025                 6.8680                 3.7008

                     58                     59                     60
                      A                      A                      A
 Frequencies --   1502.7995              1506.6485              1522.6520
 Red. masses --      1.3116                 1.3919                 1.0525
 Frc consts  --      1.7453                 1.8616                 1.4377
 IR Inten    --     27.1246                43.0472                11.9489

                     61                     62                     63
                      A                      A                      A
 Frequencies --   1530.3707              1539.2622              1556.5278
 Red. masses --      1.3248                 1.1179                 2.5685
 Frc consts  --      1.8281                 1.5605                 3.6664
 IR Inten    --      5.6607                22.9238                 8.8096

                     64                     65                     66
                      A                      A                      A
 Frequencies --   1596.3736              1680.8206              1762.8495
 Red. masses --      6.1634                 6.2327                 9.5167
 Frc consts  --      9.2542                10.3746                17.4247
 IR Inten    --     57.4039               123.7290               608.9469

                     67                     68                     69
                      A                      A                      A
 Frequencies --   3072.8993              3080.6067              3089.3435
 Red. masses --      1.0353                 1.0314                 1.0288
 Frc consts  --      5.7599                 5.7667                 5.7849
 IR Inten    --     16.0226                34.4228                16.3347

                     70                     71                     72
                      A                      A                      A
 Frequencies --   3143.6767              3149.5658              3173.0686
 Red. masses --      1.1038                 1.1051                 1.1067
 Frc consts  --      6.4270                 6.4591                 6.5648
 IR Inten    --      8.5829                 9.3360                 8.2638

                     73                     74                     75
                      A                      A                      A
 Frequencies --   3177.1209              3184.1752              3192.8364
 Red. masses --      1.1043                 1.1066                 1.1083
 Frc consts  --      6.5673                 6.6103                 6.6567
 IR Inten    --      2.9830                 3.6143                 1.3809

                     76                     77                     78
                      A                      A                      A
 Frequencies --   3222.1175              3255.1875              3266.4091
 Red. masses --      1.0912                 1.0903                 1.0944
 Frc consts  --      6.6746                 6.8070                 6.8794
 IR Inten    --      7.8549                 1.7606                 3.7168

 - Thermochemistry -
 -------------------
 Temperature   298.150 Kelvin.  Pressure   1.00000 Atm.
 Atom     1 has atomic number  6 and mass  12.00000

 Molecular mass:   236.07318 amu.
 Principal axes and moments of inertia in atomic units:
                           1         2         3
     Eigenvalues --  1173.935158572.242739597.29494
           X            0.99999   0.00363  -0.00134
           Y           -0.00363   0.99999   0.00175
           Z            0.00135  -0.00174   1.00000
 This molecule is an asymmetric top.
 Rotational symmetry number  1.
 Warning -- assumption of classical behavior for rotation
           may cause significant error
 Rotational temperatures (Kelvin)      0.07378     0.01010     0.00902
 Rotational constants (GHZ):           1.53734     0.21053     0.18805
 Zero-point vibrational energy     575791.4 (Joules/Mol)
                                  137.61744 (Kcal/Mol)
 Warning -- explicit consideration of  22 degrees of freedom as
           vibrations may cause significant error
 Vibrational temperatures:     53.46    62.11    92.19   115.39   158.43
          (Kelvin)            177.62   204.51   242.93   253.56   296.46
                              325.07   360.96   369.00   435.61   467.21
                              491.32   510.80   632.80   680.00   708.84
                              820.13   885.04   934.80   978.83   994.20
                             1022.24  1041.67  1052.90  1063.03  1108.92
                             1150.75  1260.60  1345.97  1352.51  1423.40
                             1445.67  1466.18  1518.63  1553.06  1587.81
                             1667.47  1670.55  1674.60  1705.27  1749.19
                             1817.10  1839.31  1930.17  1975.10  1995.17
                             2004.65  2051.33  2098.05  2118.53  2137.78
                             2154.36  2158.54  2162.19  2167.73  2190.76
                             2201.86  2214.65  2239.50  2296.83  2418.33
                             2536.35  4421.22  4432.31  4444.88  4523.05
                             4531.52  4565.34  4571.17  4581.32  4593.78
                             4635.91  4683.49  4699.63

 Zero-point correction=                           0.219307 (Hartree/Particle)
 Thermal correction to Energy=                    0.234857
 Thermal correction to Enthalpy=                  0.235801
 Thermal correction to Gibbs Free Energy=         0.175263
 Sum of electronic and zero-point Energies=          -1080.537963
 Sum of electronic and thermal Energies=             -1080.522413
 Sum of electronic and thermal Enthalpies=           -1080.521469
 Sum of electronic and thermal Free Energies=        -1080.582007

                     E (Thermal)             CV                S
                      KCal/Mol        Cal/Mol-Kelvin    Cal/Mol-Kelvin
 Total                  147.375             56.529            127.412
 Electronic               0.000              0.000              0.000
 Translational            0.889              2.981             42.278
 Rotational               0.889              2.981             32.935
 Vibrational            145.597             50.568             52.199
 Vibration     1          0.594              1.982              5.405
 Vibration     2          0.595              1.980              5.108
 Vibration     3          0.597              1.971              4.328
 Vibration     4          0.600              1.963              3.886
 Vibration     5          0.606              1.941              3.267
 Vibration     6          0.610              1.929              3.046
 Vibration     7          0.616              1.911              2.775
 Vibration     8          0.625              1.881              2.448
 Vibration     9          0.628              1.872              2.368
 Vibration    10          0.641              1.831              2.078
 Vibration    11          0.650              1.802              1.911
 Vibration    12          0.663              1.761              1.724
 Vibration    13          0.666              1.752              1.686
 Vibration    14          0.694              1.668              1.402
 Vibration    15          0.709              1.626              1.286
 Vibration    16          0.721              1.593              1.205
 Vibration    17          0.731              1.565              1.144
 Vibration    18          0.800              1.383              0.827
 Vibration    19          0.829              1.311              0.730
 Vibration    20          0.848              1.266              0.677
 Vibration    21          0.926              1.096              0.504
 Vibration    22          0.975              1.000              0.424

 Optimization completed.
    -- Stationary point found.
 Normal termination of Gaussian 16 at Thu Dec 10 22:44:24 2020.

 ----------------------------------------------------------------------
 # B3LYP/6-311++G(d,p) empiricaldispersion=gd3bj scf=xqc pop=npa geom=c
 heck
 ----------------------------------------------------------------------

 --------------------------------------
 CID_24852061_JID_6356_Energie_neutraal
 --------------------------------------
 Structure from the checkpoint file:  "JID_6356.chk"
 Charge =  0 Multiplicity = 1

 SCF Done:  E(RB3LYP) =  -1080.96640027     A.U. after   16 cycles
 Normal termination of Gaussian 16 at Thu Dec 10 22:48:04 2020.

 ----------------------------------------------------------------------
 # B3LYP/6-311++G(d,p) empiricaldispersion=gd3bj scf=xqc pop=npa geom=c
 heck
 ----------------------------------------------------------------------

 ------------------------------------
 CID_24852061_JID_6356_Energie_kation
 ------------------------------------
 Structure from the checkpoint file:  "JID_6356.chk"
 Charge =  1 Multiplicity = 2

 SCF Done:  E(UB3LYP) =  -1080.67604409     A.U. after   29 cycles
 Normal termination of Gaussian 16 at Thu Dec 10 22:57:15 2020.
 Gaussian 16:  ES64L-G16RevA.03 25-Dec-2016

 ----------------------------------------------------------------------
 # B3LYP/6-311++G(d,p) empiricaldispersion=gd3bj scf=xqc pop=npa geom=c
 heck
 ----------------------------------------------------------------------

 -----------------------------------
 CID_24852061_JID_6356_Energie_anion
 -----------------------------------
 Structure from the checkpoint file:  "JID_6356.chk"
 Charge = -1 Multiplicity = 2

                         Standard orientation:
 ---------------------------------------------------------------------
 Center     Atomic      Atomic             Coordinates (Angstroms)
 Number     Number       Type             X           Y           Z
 ---------------------------------------------------------------------
      1          6           0       -5.250369   -0.280660    0.136617
      2          7           0       -3.792074   -0.334669    0.087148
      3          6           0       -3.110481   -1.495224    0.318865
      4          6           0       -1.751792   -1.559101    0.278458
      5          6           0       -1.016245   -0.370036   -0.024894
      6          6           0       -1.697821    0.795560   -0.282050
      7          6           0       -3.140268    0.881089   -0.231412
      8          8           0       -3.807094    1.894110   -0.441329
      9          6           0        0.441086   -0.484621   -0.079823
     10          7           0        1.071866   -1.617110   -0.326940
     11          7           0        2.423689   -1.368141   -0.328854
     12          6           0        2.578202   -0.084921   -0.067378
     13          7           0        1.364608    0.531806    0.104552
     14          6           0        1.158528    1.908076    0.533649
     15         16           0        4.104613    0.776506    0.061434
     16          6           0        5.226107   -0.663257   -0.050904
     17          1           0       -5.642285    0.043590   -0.830546
     18          1           0       -5.635771   -1.270571    0.385596
     19          1           0       -5.569303    0.447094    0.886790
     20          1           0       -3.722071   -2.362409    0.542345
     21          1           0       -1.228755   -2.487479    0.460878
     22          1           0       -1.202321    1.711416   -0.574705
     23          1           0        1.047409    2.578948   -0.323791
     24          1           0        0.263365    1.962742    1.153563
     25          1           0        2.020720    2.224603    1.125082
     26          1           0        5.045128   -1.347388    0.778894
     27          1           0        5.069711   -1.184078   -0.995713
     28          1           0        6.238809   -0.258073    0.001172
 ---------------------------------------------------------------------

 SCF Done:  E(UB3LYP) =  -1080.97959124     A.U. after   30 cycles

 The electronic state is 2-A.
 Alpha  occ. eigenvalues --  -88.76402 -18.92455 -14.25017 -14.20867 -14.19373
 Alpha  occ. eigenvalues --  -14.17397 -10.12872 -10.10945 -10.10936 -10.10785
 Alpha  occ. eigenvalues --  -10.09209 -10.08335 -10.06303 -10.02782 -10.02263
 Alpha  occ. eigenvalues --  -10.00055  -7.85019  -5.81420  -5.81032  -5.80402
 Alpha  occ. eigenvalues --   -0.93164  -0.88383  -0.80890  -0.80048  -0.72749
 Alpha  occ. eigenvalues --   -0.68599  -0.64923  -0.61883  -0.60067  -0.58166
 Alpha  occ. eigenvalues --   -0.56741  -0.50461  -0.49595  -0.45833  -0.44012
 Alpha  occ. eigenvalues --   -0.39435  -0.37911  -0.37104  -0.35946  -0.34904
 Alpha  occ. eigenvalues --   -0.34102  -0.33735  -0.33362  -0.31901  -0.30710
 Alpha  occ. eigenvalues --   -0.30090  -0.29548  -0.28043  -0.27405  -0.25499
 Alpha  occ. eigenvalues --   -0.25067  -0.24223  -0.21922  -0.20313  -0.18850
 Alpha  occ. eigenvalues --   -0.18654  -0.16892  -0.15269  -0.12851  -0.10769
 Alpha  occ. eigenvalues --   -0.09833  -0.07378   0.04371
 Alpha virt. eigenvalues --    0.06421   0.08290   0.08446   0.10075   0.10531
 Alpha virt. eigenvalues --    0.10905   0.11816   0.11889   0.12111   0.12391
 Alpha virt. eigenvalues --    0.12607   0.13659   0.13857   0.14209   0.14835

  Beta  occ. eigenvalues --  -88.76400 -18.92349 -14.24866 -14.20533 -14.19426
  Beta  occ. eigenvalues --  -14.17122 -10.12797 -10.10943 -10.10941 -10.10780
  Beta  occ. eigenvalues --  -10.09184 -10.08352 -10.06063 -10.02428 -10.02378
  Beta  occ. eigenvalues --   -9.99722  -7.85016  -5.81417  -5.81033  -5.80394
  Beta  occ. eigenvalues --   -0.92959  -0.88105  -0.80423  -0.79795  -0.72567
  Beta  occ. eigenvalues --   -0.68193  -0.64721  -0.61812  -0.59496  -0.57975
  Beta  occ. eigenvalues --   -0.56654  -0.50110  -0.49142  -0.45671  -0.43747
  Beta  occ. eigenvalues --   -0.39278  -0.37712  -0.36798  -0.35766  -0.34742
  Beta  occ. eigenvalues --   -0.34078  -0.33194  -0.33158  -0.31817  -0.30564
  Beta  occ. eigenvalues --   -0.29849  -0.29328  -0.27929  -0.27268  -0.25015
  Beta  occ. eigenvalues --   -0.24724  -0.24050  -0.21719  -0.19510  -0.18573
  Beta  occ. eigenvalues --   -0.17997  -0.16146  -0.13893  -0.12618  -0.10561
  Beta  occ. eigenvalues --   -0.08948  -0.05868
  Beta virt. eigenvalues --    0.06384   0.08234   0.08396   0.10027   0.10303
  Beta virt. eigenvalues --    0.10480   0.10847   0.11827   0.11910   0.12131
  Beta virt. eigenvalues --    0.12361   0.12652   0.13641   0.14203   0.14435

 Mulliken charges and spin densities:
               1          2
     1  C   -0.276354  -0.004022
     2  N    0.064814   0.080284
     3  C   -0.549105   0.252335
     4  C    0.099505  -0.109066
     5  C    0.039402   0.134774
     6  C   -0.065554   0.389478
     7  C   -0.249561  -0.005980
     8  O   -0.436144   0.032614
     9  C   -0.043241  -0.020189
    10  N   -0.161183   0.135341
    11  N    0.027627  -0.036375
    12  C    0.148685   0.090076
    13  N    0.127612   0.040102
    14  C   -0.409315   0.001720
    15  S   -0.521491   0.003082
    16  C   -0.591438  -0.027395
    17  H    0.164831   0.011578
    18  H    0.095593  -0.000530
    19  H    0.162554   0.012149
    20  H    0.090599  -0.016349
    21  H    0.197648   0.008494
    22  H    0.126059  -0.017947
    23  H    0.182653   0.004856
    24  H    0.186920  -0.005662
    25  H    0.091255   0.001618
    26  H    0.194079   0.009238
    27  H    0.193539   0.004200
    28  H    0.110010   0.031574
 Sum of Mulliken charges =  -1.00000   1.00000

 Dipole moment (field-independent basis, Debye):
    X=              5.0774    Y=              0.4955    Z=              2.2234  Tot=              5.5650
 Quadrupole moment (field-independent basis, Debye-Ang):
   XX=           -144.3418   YY=           -124.9295   ZZ=           -111.0629
   XY=             19.0359   XZ=             -2.1826   YZ=              0.5719

 Summary of Natural Population Analysis:

                                       Natural Population
                Natural  -----------------------------------------------
    Atom  No    Charge         Core      Valence    Rydberg      Total
 -----------------------------------------------------------------------
      C    1   -0.17506      0.99967     2.16814    0.00725     3.17506
      N    2   -0.18633      0.99963     2.67771    0.00899     3.68633
      C    3    0.06792      0.99957     1.92195    0.01055     2.93208
      C    4   -0.16184      0.99955     2.15270    0.00959     3.16184
      C    5    0.02500      0.99949     1.96677    0.00874     2.97500
      C    6   -0.08745      0.99950     2.07962    0.00833     3.08745
      C    7    0.31585      0.99962     1.66347    0.02107     2.68415
      O    8   -0.34895      0.99988     3.34227    0.00680     4.34895
      C    9    0.18799      0.99957     1.79343    0.01901     2.81201
      N   10   -0.12385      0.99969     2.61052    0.01364     3.62385
      N   11   -0.19965      0.99966     2.68509    0.01490     3.69965
      C   12    0.10914      0.99956     1.87205    0.01925     2.89086
      N   13   -0.20077      0.99955     2.69234    0.00887     3.70077
      C   14   -0.17967      0.99965     2.17383    0.00618     3.17967
      S   15    0.10573      4.99954     2.87247    0.02225     7.89427
      C   16   -0.34259      0.99962     2.33612    0.00685     3.34259
      H   17    0.09900      0.00000     0.39964    0.00136     0.40100
      H   18    0.08723      0.00000     0.41195    0.00082     0.41277
      H   19    0.09855      0.00000     0.40011    0.00134     0.40145
      H   20    0.08415      0.00000     0.41488    0.00097     0.41585
      H   21    0.10990      0.00000     0.38898    0.00112     0.39010
      H   22    0.09162      0.00000     0.40665    0.00172     0.40838
      H   23    0.09656      0.00000     0.40243    0.00100     0.40344
      H   24    0.11301      0.00000     0.38582    0.00117     0.38699
      H   25    0.09711      0.00000     0.40169    0.00120     0.40289
      H   26    0.10800      0.00000     0.38973    0.00227     0.39200
      H   27    0.11089      0.00000     0.38678    0.00233     0.38911
      H   28    0.09849      0.00000     0.40003    0.00148     0.40151
 =======================================================================
   * Total *    0.00000     19.99375    41.79719    0.20906    62.00000

 Normal termination of Gaussian 16 at Thu Dec 10 23:06:29 2020.
