 Gaussian 16, Revision A.03,

 -----------------------------------------------------------
 # opt freq B3LYP/6-31G(d) empiricaldispersion=gd3bj scf=xqc
 -----------------------------------------------------------

 ------------------------------
 CID_64490672_JID_5662_neutraal
 ------------------------------
 Symbolic Z-matrix:
 Charge =  0 Multiplicity = 1

 SCF Done:  E(RB3LYP) =  -673.953180497     A.U. after   13 cycles
 SCF Done:  E(RB3LYP) =  -673.957297261     A.U. after   12 cycles
 SCF Done:  E(RB3LYP) =  -673.957828040     A.U. after   11 cycles
 SCF Done:  E(RB3LYP) =  -673.958110110     A.U. after   11 cycles
 SCF Done:  E(RB3LYP) =  -673.958180127     A.U. after   11 cycles
 SCF Done:  E(RB3LYP) =  -673.958203136     A.U. after   10 cycles
 SCF Done:  E(RB3LYP) =  -673.958217223     A.U. after   10 cycles
 SCF Done:  E(RB3LYP) =  -673.958222302     A.U. after    9 cycles
 SCF Done:  E(RB3LYP) =  -673.958223556     A.U. after    8 cycles
 SCF Done:  E(RB3LYP) =  -673.958223776     A.U. after    7 cycles
 SCF Done:  E(RB3LYP) =  -673.958223964     A.U. after    7 cycles
 Optimization completed.
    -- Stationary point found.
 Normal termination of Gaussian 16 at Thu Dec 10 16:33:39 2020.

 --------------------------------------------------------------------
 #N Geom=AllCheck Guess=TCheck SCRF=Check GenChk RB3LYP/6-31G(d) Freq
 --------------------------------------------------------------------

 Structure from the checkpoint file:  "JID_5662.chk"
 ------------------------------
 CID_64490672_JID_5662_neutraal
 ------------------------------
 Charge =  0 Multiplicity = 1

 SCF Done:  E(RB3LYP) =  -673.958223964     A.U. after    1 cycles

  Exact polarizability: 185.025   1.397 131.801  -8.803 -17.292 104.630
 Approx polarizability: 250.276  -2.966 209.417 -18.962 -36.381 152.490

                      1                      2                      3
                      A                      A                      A
 Frequencies --     22.8435                46.3024                54.1017
 Red. masses --      3.6548                 3.4526                 3.0518
 Frc consts  --      0.0011                 0.0044                 0.0053
 IR Inten    --      0.7342                 0.2835                 0.1312

                      4                      5                      6
                      A                      A                      A
 Frequencies --     65.6644                94.3301               131.2101
 Red. masses --      3.4489                 2.7736                 2.2632
 Frc consts  --      0.0088                 0.0145                 0.0230
 IR Inten    --      0.1804                 2.7310                 1.9572

                      7                      8                      9
                      A                      A                      A
 Frequencies --    158.4564               189.6252               207.1525
 Red. masses --      2.3505                 3.7885                 1.8355
 Frc consts  --      0.0348                 0.0803                 0.0464
 IR Inten    --      1.2700                 0.5608                 3.5700

                     10                     11                     12
                      A                      A                      A
 Frequencies --    222.6818               228.2283               240.9891
 Red. masses --      1.3234                 1.3647                 1.8050
 Frc consts  --      0.0387                 0.0419                 0.0618
 IR Inten    --      1.1821                 3.3063                 0.4701

                     13                     14                     15
                      A                      A                      A
 Frequencies --    265.1472               303.7159               324.8645
 Red. masses --      2.0285                 2.8601                 2.4555
 Frc consts  --      0.0840                 0.1554                 0.1527
 IR Inten    --      0.7718                 2.8160                 2.3802

                     16                     17                     18
                      A                      A                      A
 Frequencies --    331.9918               355.1932               365.3554
 Red. masses --      1.1113                 3.6019                 4.5461
 Frc consts  --      0.0722                 0.2677                 0.3575
 IR Inten    --    112.4501                 2.4040                 1.0653

                     19                     20                     21
                      A                      A                      A
 Frequencies --    391.4699               455.2287               482.8454
 Red. masses --      2.7526                 3.1129                 3.3413
 Frc consts  --      0.2485                 0.3801                 0.4590
 IR Inten    --      5.4311                 1.3703                 6.6718

                     22                     23                     24
                      A                      A                      A
 Frequencies --    506.3396               526.8089               579.8991
 Red. masses --      3.5454                 4.9248                 4.2586
 Frc consts  --      0.5356                 0.8053                 0.8438
 IR Inten    --      2.1457                 2.4412                 7.9820

                     25                     26                     27
                      A                      A                      A
 Frequencies --    597.1156               634.0460               724.3014
 Red. masses --      2.7255                 2.8447                 3.7413
 Frc consts  --      0.5726                 0.6738                 1.1564
 IR Inten    --      6.1976                 1.2875                 5.9942

                     28                     29                     30
                      A                      A                      A
 Frequencies --    741.5370               756.5620               806.7056
 Red. masses --      3.2795                 2.8655                 1.5104
 Frc consts  --      1.0625                 0.9664                 0.5791
 IR Inten    --     14.9212                 4.7022                14.3167

                     31                     32                     33
                      A                      A                      A
 Frequencies --    816.2866               834.0905               880.5458
 Red. masses --      1.2931                 2.7815                 1.6116
 Frc consts  --      0.5077                 1.1401                 0.7362
 IR Inten    --     63.5511                17.7353                41.9652

                     34                     35                     36
                      A                      A                      A
 Frequencies --    884.9823               905.7636               944.0005
 Red. masses --      1.5814                 1.3294                 2.1334
 Frc consts  --      0.7297                 0.6426                 1.1201
 IR Inten    --      2.4749                 2.2686                10.5621

                     37                     38                     39
                      A                      A                      A
 Frequencies --    979.6896               983.1333              1018.6618
 Red. masses --      2.0410                 2.4408                 2.0881
 Frc consts  --      1.1542                 1.3900                 1.2766
 IR Inten    --     11.0136                 3.4116                11.5183

                     40                     41                     42
                      A                      A                      A
 Frequencies --   1034.0232              1060.0699              1076.2904
 Red. masses --      1.5587                 2.8828                 1.4973
 Frc consts  --      0.9819                 1.9087                 1.0219
 IR Inten    --     27.9844                 8.4343                 5.0300

                     43                     44                     45
                      A                      A                      A
 Frequencies --   1120.0552              1144.8385              1156.1612
 Red. masses --      1.8272                 2.2524                 1.9728
 Frc consts  --      1.3506                 1.7393                 1.5537
 IR Inten    --      9.1160                77.5899                76.3420

                     46                     47                     48
                      A                      A                      A
 Frequencies --   1161.2192              1181.4240              1192.7448
 Red. masses --      1.8825                 3.1533                 1.4633
 Frc consts  --      1.4956                 2.5932                 1.2265
 IR Inten    --     33.1022                43.5498                49.7900

                     49                     50                     51
                      A                      A                      A
 Frequencies --   1199.6386              1225.0044              1233.2920
 Red. masses --      1.3981                 1.4671                 1.6933
 Frc consts  --      1.1855                 1.2971                 1.5175
 IR Inten    --      2.8108                89.6757                45.4130

                     52                     53                     54
                      A                      A                      A
 Frequencies --   1272.8983              1282.9366              1291.6326
 Red. masses --      1.8131                 1.8469                 1.3869
 Frc consts  --      1.7308                 1.7910                 1.3633
 IR Inten    --     67.6490                38.2513                13.1064

                     55                     56                     57
                      A                      A                      A
 Frequencies --   1307.4768              1335.6126              1344.4794
 Red. masses --      1.2134                 3.2993                 1.4040
 Frc consts  --      1.2222                 3.4677                 1.4953
 IR Inten    --      9.2835                12.4812                73.1240

                     58                     59                     60
                      A                      A                      A
 Frequencies --   1366.0212              1386.2829              1408.4366
 Red. masses --      3.2919                 1.4309                 1.4575
 Frc consts  --      3.6192                 1.6202                 1.7035
 IR Inten    --     59.5063                 7.7987                 2.3668

                     61                     62                     63
                      A                      A                      A
 Frequencies --   1434.1005              1437.0405              1440.8697
 Red. masses --      1.3910                 1.2547                 1.2356
 Frc consts  --      1.6855                 1.5267                 1.5114
 IR Inten    --     29.1344                 1.0932                 7.6687

                     64                     65                     66
                      A                      A                      A
 Frequencies --   1485.3422              1502.1519              1512.3809
 Red. masses --      1.9365                 1.1658                 1.0961
 Frc consts  --      2.5172                 1.5499                 1.4771
 IR Inten    --     41.4818                 8.0737                10.7396

                     67                     68                     69
                      A                      A                      A
 Frequencies --   1514.8866              1517.8163              1521.3418
 Red. masses --      1.0491                 1.0801                 1.2591
 Frc consts  --      1.4185                 1.4661                 1.7169
 IR Inten    --      4.9417                 0.5072                26.6615

                     70                     71                     72
                      A                      A                      A
 Frequencies --   1527.2707              1530.7526              1539.7565
 Red. masses --      1.0727                 1.0573                 1.0888
 Frc consts  --      1.4742                 1.4597                 1.5209
 IR Inten    --     10.1885                14.4084                14.0071

                     73                     74                     75
                      A                      A                      A
 Frequencies --   1545.9582              1553.2483              1557.5832
 Red. masses --      1.3598                 1.4235                 1.6163
 Frc consts  --      1.9148                 2.0235                 2.3103
 IR Inten    --     30.0533               107.6500                35.9516

                     76                     77                     78
                      A                      A                      A
 Frequencies --   1650.9409              1683.6672              2990.0494
 Red. masses --      5.3828                 6.0144                 1.0400
 Frc consts  --      8.6441                10.0452                 5.4782
 IR Inten    --     36.7107                10.7250                50.6536

                     79                     80                     81
                      A                      A                      A
 Frequencies --   3003.9593              3034.1879              3036.6268
 Red. masses --      1.0513                 1.1045                 1.0442
 Frc consts  --      5.5896                 5.9909                 5.6733
 IR Inten    --     69.2865                84.2635                28.8114

                     82                     83                     84
                      A                      A                      A
 Frequencies --   3038.6332              3043.4178              3057.5487
 Red. masses --      1.1055                 1.0402                 1.0603
 Frc consts  --      6.0141                 5.6766                 5.8400
 IR Inten    --     26.6390                39.5972                 8.9519

                     85                     86                     87
                      A                      A                      A
 Frequencies --   3072.2817              3091.9182              3096.3495
 Red. masses --      1.0831                 1.1002                 1.0914
 Frc consts  --      6.0234                 6.1971                 6.1648
 IR Inten    --     33.7240                 3.6712                26.9858

                     88                     89                     90
                      A                      A                      A
 Frequencies --   3110.3792              3119.4139              3131.3428
 Red. masses --      1.1012                 1.1024                 1.1031
 Frc consts  --      6.2770                 6.3205                 6.3730
 IR Inten    --     44.5094                48.8389                14.1211

                     91                     92                     93
                      A                      A                      A
 Frequencies --   3137.1406              3163.9316              3184.0430
 Red. masses --      1.0971                 1.0872                 1.0939
 Frc consts  --      6.3616                 6.4123                 6.5343
 IR Inten    --     30.4490                25.6975                19.1915

                     94                     95                     96
                      A                      A                      A
 Frequencies --   3200.0214              3521.0545              3754.9649
 Red. masses --      1.0905                 1.0735                 1.0659
 Frc consts  --      6.5792                 7.8414                 8.8549
 IR Inten    --      9.2230                 9.9946                41.1101

 - Thermochemistry -
 -------------------
 Temperature   298.150 Kelvin.  Pressure   1.00000 Atm.
 Atom     1 has atomic number  6 and mass  12.00000

 Molecular mass:   209.14158 amu.
 Principal axes and moments of inertia in atomic units:
                           1         2         3
     Eigenvalues --  1583.534626472.656596589.38118
           X            1.00000   0.00048   0.00146
           Y           -0.00042   0.99912  -0.04205
           Z           -0.00148   0.04205   0.99911
 This molecule is an asymmetric top.
 Rotational symmetry number  1.
 Warning -- assumption of classical behavior for rotation
           may cause significant error
 Rotational temperatures (Kelvin)      0.05470     0.01338     0.01314
 Rotational constants (GHZ):           1.13969     0.27883     0.27389
 Zero-point vibrational energy     781046.5 (Joules/Mol)
                                  186.67459 (Kcal/Mol)
 Warning -- explicit consideration of  25 degrees of freedom as
           vibrations may cause significant error
 Vibrational temperatures:     32.87    66.62    77.84    94.48   135.72
          (Kelvin)            188.78   227.98   272.83   298.05   320.39
                              328.37   346.73   381.49   436.98   467.41
                              477.66   511.04   525.66   563.24   654.97
                              694.71   728.51   757.96   834.35   859.12
                              912.25  1042.11  1066.91  1088.52  1160.67
                             1174.45  1200.07  1266.91  1273.29  1303.19
                             1358.21  1409.55  1414.51  1465.63  1487.73
                             1525.20  1548.54  1611.51  1647.17  1663.46
                             1670.74  1699.81  1716.09  1726.01  1762.51
                             1774.43  1831.42  1845.86  1858.37  1881.17
                             1921.65  1934.41  1965.40  1994.55  2026.43
                             2063.35  2067.58  2073.09  2137.08  2161.26
                             2175.98  2179.58  2183.80  2188.87  2197.40
                             2202.41  2215.37  2224.29  2234.78  2241.01
                             2375.34  2422.42  4302.01  4322.03  4365.52
                             4369.03  4371.92  4378.80  4399.13  4420.33
                             4448.58  4454.96  4475.14  4488.14  4505.30
                             4513.65  4552.19  4581.13  4604.12  5066.01
                             5402.56

 Zero-point correction=                           0.297485 (Hartree/Particle)
 Thermal correction to Energy=                    0.313729
 Thermal correction to Enthalpy=                  0.314673
 Thermal correction to Gibbs Free Energy=         0.252974
 Sum of electronic and zero-point Energies=           -673.660739
 Sum of electronic and thermal Energies=              -673.644495
 Sum of electronic and thermal Enthalpies=            -673.643551
 Sum of electronic and thermal Free Energies=         -673.705250

                     E (Thermal)             CV                S
                      KCal/Mol        Cal/Mol-Kelvin    Cal/Mol-Kelvin
 Total                  196.868             60.670            129.858
 Electronic               0.000              0.000              0.000
 Translational            0.889              2.981             41.917
 Rotational               0.889              2.981             32.579
 Vibrational            195.091             54.709             55.361
 Vibration     1          0.593              1.985              6.370
 Vibration     2          0.595              1.979              4.969
 Vibration     3          0.596              1.976              4.662
 Vibration     4          0.597              1.971              4.279
 Vibration     5          0.603              1.953              3.568
 Vibration     6          0.612              1.922              2.928
 Vibration     7          0.621              1.893              2.568
 Vibration     8          0.633              1.854              2.231
 Vibration     9          0.641              1.830              2.069
 Vibration    10          0.648              1.807              1.937
 Vibration    11          0.651              1.798              1.893
 Vibration    12          0.658              1.778              1.796
 Vibration    13          0.671              1.737              1.628
 Vibration    14          0.695              1.667              1.396
 Vibration    15          0.709              1.626              1.286
 Vibration    16          0.714              1.612              1.250
 Vibration    17          0.731              1.565              1.143
 Vibration    18          0.739              1.544              1.099
 Vibration    19          0.759              1.488              0.995
 Vibration    20          0.814              1.349              0.780
 Vibration    21          0.839              1.288              0.702
 Vibration    22          0.862              1.236              0.642
 Vibration    23          0.882              1.191              0.594
 Vibration    24          0.937              1.075              0.486
 Vibration    25          0.955              1.038              0.455

 Optimization completed.
    -- Stationary point found.
 Normal termination of Gaussian 16 at Thu Dec 10 16:45:46 2020.

 ----------------------------------------------------------------------
 # B3LYP/6-311++G(d,p) empiricaldispersion=gd3bj scf=xqc pop=npa geom=c
 heck
 ----------------------------------------------------------------------

 --------------------------------------
 CID_64490672_JID_5662_Energie_neutraal
 --------------------------------------
 Structure from the checkpoint file:  "JID_5662.chk"
 Charge =  0 Multiplicity = 1

 SCF Done:  E(RB3LYP) =  -674.157288335     A.U. after   14 cycles
 Normal termination of Gaussian 16 at Thu Dec 10 16:51:37 2020.

 ----------------------------------------------------------------------
 # B3LYP/6-311++G(d,p) empiricaldispersion=gd3bj scf=xqc pop=npa geom=c
 heck
 ----------------------------------------------------------------------

 ------------------------------------
 CID_64490672_JID_5662_Energie_kation
 ------------------------------------
 Structure from the checkpoint file:  "JID_5662.chk"
 Charge =  1 Multiplicity = 2

 SCF Done:  E(UB3LYP) =  -673.894500937     A.U. after   21 cycles
 Normal termination of Gaussian 16 at Thu Dec 10 17:03:53 2020.
 Gaussian 16:  ES64L-G16RevA.03 25-Dec-2016

 ----------------------------------------------------------------------
 # B3LYP/6-311++G(d,p) empiricaldispersion=gd3bj scf=xqc pop=npa geom=c
 heck
 ----------------------------------------------------------------------

 -----------------------------------
 CID_64490672_JID_5662_Energie_anion
 -----------------------------------
 Structure from the checkpoint file:  "JID_5662.chk"
 Charge = -1 Multiplicity = 2

                         Standard orientation:
 ---------------------------------------------------------------------
 Center     Atomic      Atomic             Coordinates (Angstroms)
 Number     Number       Type             X           Y           Z
 ---------------------------------------------------------------------
      1          6           0        2.244326    1.514301    2.259675
      2          6           0        1.415710    0.466599    1.512083
      3          6           0        1.491708    0.586184   -0.021067
      4          6           0        2.894554    0.348015   -0.568314
      5          8           0        3.282785   -0.973078   -0.224664
      6          6           0        4.533995   -1.333326   -0.766238
      7          7           0        0.595180   -0.348262   -0.727011
      8          6           0       -0.783654   -0.338646   -0.393183
      9          6           0       -1.612642    0.734355   -0.791354
     10          6           0       -2.971654    0.695559   -0.477307
     11          6           0       -3.533531   -0.390304    0.196506
     12          6           0       -2.723708   -1.464116    0.566041
     13          6           0       -1.360603   -1.421884    0.280068
     14          8           0       -4.880989   -0.348124    0.454311
     15          6           0       -1.057911    1.891322   -1.582121
     16          1           0        3.318928    1.376440    2.096809
     17          1           0        2.066896    1.455411    3.339058
     18          1           0        1.984940    2.530856    1.937264
     19          1           0        1.737646   -0.541087    1.800288
     20          1           0        0.362540    0.557641    1.801502
     21          1           0        1.212548    1.607796   -0.303854
     22          1           0        2.881558    0.466667   -1.662831
     23          1           0        3.608209    1.075999   -0.152482
     24          1           0        4.527016   -1.290517   -1.866897
     25          1           0        5.337790   -0.675042   -0.399651
     26          1           0        4.742195   -2.358604   -0.449772
     27          1           0        0.981294   -1.282675   -0.617820
     28          1           0       -3.624133    1.509313   -0.780135
     29          1           0       -3.147699   -2.321866    1.084839
     30          1           0       -0.724836   -2.248499    0.588556
     31          1           0       -5.131820   -1.164077    0.913498
     32          1           0       -1.844717    2.373776   -2.170166
     33          1           0       -0.618076    2.662391   -0.935453
     34          1           0       -0.270455    1.545181   -2.259581
 ---------------------------------------------------------------------

 SCF Done:  E(UB3LYP) =  -674.144542689     A.U. after   33 cycles
 SCF Done:  E(UB3LYP) =  -674.144542689     a.u. after    1 cycles

 The electronic state is 2-A.
 Alpha  occ. eigenvalues --  -19.05309 -19.03962 -14.21308 -10.13559 -10.12419
 Alpha  occ. eigenvalues --  -10.12143 -10.11135 -10.10601 -10.08956 -10.07970
 Alpha  occ. eigenvalues --  -10.07815 -10.07683 -10.07458 -10.07035 -10.06978
 Alpha  occ. eigenvalues --   -0.96244  -0.95301  -0.83292  -0.75374  -0.69502
 Alpha  occ. eigenvalues --   -0.68129  -0.64901  -0.62899  -0.59804  -0.57529
 Alpha  occ. eigenvalues --   -0.54258  -0.52018  -0.51039  -0.48067  -0.43660
 Alpha  occ. eigenvalues --   -0.42790  -0.40732  -0.39689  -0.38489  -0.37313
 Alpha  occ. eigenvalues --   -0.35668  -0.34806  -0.34449  -0.33603  -0.32958
 Alpha  occ. eigenvalues --   -0.32051  -0.31562  -0.30735  -0.30121  -0.29453
 Alpha  occ. eigenvalues --   -0.28856  -0.27192  -0.27005  -0.26070  -0.24840
 Alpha  occ. eigenvalues --   -0.24554  -0.23557  -0.22962  -0.17760  -0.16863
 Alpha  occ. eigenvalues --   -0.15718  -0.10691   0.04035
 Alpha virt. eigenvalues --    0.05187   0.06393   0.07142   0.07591   0.07886
 Alpha virt. eigenvalues --    0.08497   0.09038   0.09537   0.09835   0.10124
 Alpha virt. eigenvalues --    0.10430   0.10918   0.11529   0.12183   0.12474

  Beta  occ. eigenvalues --  -19.05263 -19.03954 -14.21305 -10.13560 -10.12401
  Beta  occ. eigenvalues --  -10.12100 -10.11130 -10.10600 -10.08955 -10.07967
  Beta  occ. eigenvalues --  -10.07807 -10.07657 -10.07451 -10.07029 -10.06955
  Beta  occ. eigenvalues --   -0.96154  -0.95288  -0.83285  -0.75356  -0.69483
  Beta  occ. eigenvalues --   -0.68110  -0.64872  -0.62864  -0.59767  -0.57474
  Beta  occ. eigenvalues --   -0.54200  -0.51998  -0.50980  -0.48029  -0.43610
  Beta  occ. eigenvalues --   -0.42739  -0.40712  -0.39644  -0.38463  -0.37279
  Beta  occ. eigenvalues --   -0.35650  -0.34784  -0.34420  -0.33586  -0.32917
  Beta  occ. eigenvalues --   -0.32019  -0.31541  -0.30706  -0.30095  -0.29426
  Beta  occ. eigenvalues --   -0.28827  -0.27166  -0.26979  -0.26038  -0.24812
  Beta  occ. eigenvalues --   -0.24526  -0.23533  -0.22929  -0.17738  -0.16844
  Beta  occ. eigenvalues --   -0.15707  -0.10677
  Beta virt. eigenvalues --    0.06064   0.06806   0.07071   0.07281   0.07684
  Beta virt. eigenvalues --    0.08383   0.08747   0.09589   0.09697   0.09948
  Beta virt. eigenvalues --    0.10433   0.10642   0.11055   0.11642   0.12229

 Mulliken charges and spin densities:
               1          2
     1  C    0.503687  -1.171403
     2  C   -0.823711   0.498656
     3  C   -0.807872   0.581658
     4  C    0.504993  -0.890105
     5  O   -0.204920   0.088341
     6  C    0.832186  -1.081553
     7  N    0.342854  -0.031546
     8  C   -1.473894   0.267224
     9  C   -0.343009   1.070625
    10  C    0.869246  -0.608703
    11  C    0.569724  -1.329656
    12  C    0.296709  -0.165056
    13  C   -0.124847   0.325396
    14  O   -0.277212   0.040117
    15  C    0.448942  -0.991273
    16  H   -0.122767   0.275805
    17  H   -0.035791   0.171169
    18  H   -0.093249   0.230835
    19  H    0.081196   0.089230
    20  H    0.188356  -0.027803
    21  H   -0.011432   0.130887
    22  H    0.092799   0.069179
    23  H   -0.051457   0.205075
    24  H   -0.249002   0.380190
    25  H   -0.416999   0.551643
    26  H   -0.228526   0.366338
    27  H    0.276646  -0.028324
    28  H    0.135347   0.041177
    29  H   -0.870271   1.044518
    30  H    0.055886   0.084143
    31  H   -0.311017   0.586372
    32  H    0.065126   0.074899
    33  H    0.090053   0.072401
    34  H    0.092227   0.079545
 Sum of Mulliken charges =  -1.00000   1.00000

 Dipole moment (field-independent basis, Debye):
    X=              0.3943    Y=              3.0059    Z=             -1.9348  Tot=              3.5965
 Quadrupole moment (field-independent basis, Debye-Ang):
   XX=           -213.4433   YY=           -129.9544   ZZ=           -126.8244
   XY=            -13.3004   XZ=             10.4918   YZ=              0.7025

 Summary of Natural Population Analysis:

                                       Natural Population
                Natural  -----------------------------------------------
    Atom  No    Charge         Core      Valence    Rydberg      Total
 -----------------------------------------------------------------------
      C    1   -0.28518      0.99967     2.28129    0.00422     3.28518
      C    2   -0.20196      0.99961     2.19333    0.00901     3.20196
      C    3   -0.01788      0.99957     2.00477    0.01354     3.01788
      C    4   -0.00978      0.99955     1.99666    0.01357     3.00978
      O    5   -0.30472      0.99988     3.29541    0.00943     4.30472
      C    6   -0.09510      0.99962     2.08644    0.00904     3.09510
      N    7   -0.33365      0.99970     2.82261    0.01134     3.83365
      C    8    0.06684      0.99943     1.92318    0.01055     2.93316
      C    9   -0.01830      0.99948     2.01118    0.00764     3.01830
      C   10   -0.12129      0.99948     2.11335    0.00846     3.12129
      C   11    0.15198      0.99937     1.83473    0.01392     2.84802
      C   12   -0.13576      0.99952     2.12564    0.01061     3.13576
      C   13   -0.10428      0.99952     2.09544    0.00931     3.10428
      O   14   -0.34372      0.99988     3.33678    0.00706     4.34372
      C   15   -0.29558      0.99964     2.29116    0.00478     3.29558
      H   16    0.09831      0.00000     0.40046    0.00123     0.40169
      H   17    0.09910      0.00000     0.40003    0.00087     0.40090
      H   18    0.09461      0.00000     0.40426    0.00113     0.40539
      H   19    0.10089      0.00000     0.39749    0.00162     0.39911
      H   20    0.10147      0.00000     0.39722    0.00131     0.39853
      H   21    0.09442      0.00000     0.40319    0.00239     0.40558
      H   22    0.08498      0.00000     0.41343    0.00159     0.41502
      H   23    0.08468      0.00000     0.41380    0.00152     0.41532
      H   24    0.07842      0.00000     0.41989    0.00169     0.42158
      H   25    0.08100      0.00000     0.41678    0.00222     0.41900
      H   26    0.09037      0.00000     0.40847    0.00117     0.40963
      H   27    0.18300      0.00000     0.31361    0.00340     0.31700
      H   28    0.10164      0.00000     0.39714    0.00122     0.39836
      H   29    0.10431      0.00000     0.39331    0.00238     0.39569
      H   30    0.09989      0.00000     0.39901    0.00111     0.40011
      H   31    0.23901      0.00000     0.25019    0.01080     0.26099
      H   32    0.10035      0.00000     0.39887    0.00078     0.39965
      H   33    0.10198      0.00000     0.39679    0.00122     0.39802
      H   34    0.10996      0.00000     0.38881    0.00122     0.39004
 =======================================================================
   * Total *   -0.00000     14.99393    41.82471    0.18136    57.00000

 Normal termination of Gaussian 16 at Thu Dec 10 17:22:26 2020.
