 Gaussian 16, Revision A.03,

 -----------------------------------------------------------
 # opt freq B3LYP/6-31G(d) empiricaldispersion=gd3bj scf=xqc
 -----------------------------------------------------------

 -------------------------------
 CID_118511143_JID_7186_neutraal
 -------------------------------
 Symbolic Z-matrix:
 Charge =  0 Multiplicity = 1

 SCF Done:  E(RB3LYP) =  -785.996461861     A.U. after   16 cycles
 SCF Done:  E(RB3LYP) =  -786.015631032     A.U. after   13 cycles
 SCF Done:  E(RB3LYP) =  -786.016548413     A.U. after   13 cycles
 SCF Done:  E(RB3LYP) =  -786.011829954     A.U. after   15 cycles
 SCF Done:  E(RB3LYP) =  -786.017395546     A.U. after   13 cycles
 SCF Done:  E(RB3LYP) =  -786.017521149     A.U. after   13 cycles
 SCF Done:  E(RB3LYP) =  -786.017697803     A.U. after   12 cycles
 SCF Done:  E(RB3LYP) =  -786.017672915     A.U. after   12 cycles
 SCF Done:  E(RB3LYP) =  -786.017759039     A.U. after   10 cycles
 SCF Done:  E(RB3LYP) =  -786.017769154     A.U. after   10 cycles
 SCF Done:  E(RB3LYP) =  -786.017771495     A.U. after   12 cycles
 SCF Done:  E(RB3LYP) =  -786.017773611     A.U. after   10 cycles
 SCF Done:  E(RB3LYP) =  -786.017773743     A.U. after   10 cycles
 SCF Done:  E(RB3LYP) =  -786.017773783     A.U. after    9 cycles
 SCF Done:  E(RB3LYP) =  -786.017773778     A.U. after    7 cycles
 Optimization completed on the basis of negligible forces.
    -- Stationary point found.
 Normal termination of Gaussian 16 at Mon Dec 14 13:26:13 2020.

 --------------------------------------------------------------------
 #N Geom=AllCheck Guess=TCheck SCRF=Check GenChk RB3LYP/6-31G(d) Freq
 --------------------------------------------------------------------

 Structure from the checkpoint file:  "JID_7186.chk"
 -------------------------------
 CID_118511143_JID_7186_neutraal
 -------------------------------
 Charge =  0 Multiplicity = 1

 SCF Done:  E(RB3LYP) =  -786.017773778     A.U. after    1 cycles

  Exact polarizability: 248.188  -4.296 136.500   2.952   2.678  98.874
 Approx polarizability: 326.136 -20.688 221.769   6.109   7.516 140.839

 ******    1 imaginary frequencies (negative Signs) ******

                      1                      2                      3
                      A                      A                      A
 Frequencies --     -0.8181                29.0190                35.2033
 Red. masses --      3.0912                 4.2847                 3.6685
 Frc consts  --      0.0000                 0.0021                 0.0027
 IR Inten    --      0.8891                 0.1215                 0.0632

                      4                      5                      6
                      A                      A                      A
 Frequencies --     39.3362                66.9610                97.9556
 Red. masses --      4.4335                 3.8947                 4.3948
 Frc consts  --      0.0040                 0.0103                 0.0248
 IR Inten    --      0.4786                 0.3374                 0.6050

                      7                      8                      9
                      A                      A                      A
 Frequencies --    120.5213               123.5593               161.0399
 Red. masses --      3.6763                 3.2658                 1.1033
 Frc consts  --      0.0315                 0.0294                 0.0169
 IR Inten    --      0.3541                 0.3546                 0.1426

                     10                     11                     12
                      A                      A                      A
 Frequencies --    164.7897               223.1771               224.4511
 Red. masses --      2.4655                 2.5319                 1.0146
 Frc consts  --      0.0394                 0.0743                 0.0301
 IR Inten    --      0.6032                 0.6825                 0.0004

                     13                     14                     15
                      A                      A                      A
 Frequencies --    232.2794               236.0487               279.4681
 Red. masses --      3.4417                 1.8752                 1.0595
 Frc consts  --      0.1094                 0.0616                 0.0488
 IR Inten    --      0.4573                 0.3064                 0.0203

                     16                     17                     18
                      A                      A                      A
 Frequencies --    280.4788               282.7328               301.7412
 Red. masses --      1.0544                 4.1786                 2.8400
 Frc consts  --      0.0489                 0.1968                 0.1523
 IR Inten    --      0.0012                 0.6128                 0.6962

                     19                     20                     21
                      A                      A                      A
 Frequencies --    340.2356               348.6802               355.5037
 Red. masses --      3.1153                 2.8143                 2.8631
 Frc consts  --      0.2125                 0.2016                 0.2132
 IR Inten    --     10.6966                 1.0916                 3.8061

                     22                     23                     24
                      A                      A                      A
 Frequencies --    363.2435               422.8558               430.2254
 Red. masses --      3.7327                 5.7931                 5.9642
 Frc consts  --      0.2902                 0.6103                 0.6504
 IR Inten    --      0.8537                 0.2188                 1.7540

                     25                     26                     27
                      A                      A                      A
 Frequencies --    464.4263               519.8682               556.2005
 Red. masses --      3.5769                 3.9774                 5.5977
 Frc consts  --      0.4546                 0.6333                 1.0203
 IR Inten    --      2.2943                 2.5158                 2.1398

                     28                     29                     30
                      A                      A                      A
 Frequencies --    563.3192               616.3023               637.0870
 Red. masses --      4.9846                 5.2814                11.1441
 Frc consts  --      0.9319                 1.1819                 2.6650
 IR Inten    --      0.4852                 0.0235                 8.0443

                     31                     32                     33
                      A                      A                      A
 Frequencies --    682.3446               698.1476               770.5109
 Red. masses --      5.2718                 8.4022                 3.2887
 Frc consts  --      1.4462                 2.4129                 1.1503
 IR Inten    --      3.5064                 6.5797                 3.5942

                     34                     35                     36
                      A                      A                      A
 Frequencies --    784.1541               790.1499               855.3842
 Red. masses --      5.8556                 2.0772                 2.2302
 Frc consts  --      2.1214                 0.7641                 0.9614
 IR Inten    --      3.7923                 8.5478                19.4155

                     37                     38                     39
                      A                      A                      A
 Frequencies --    888.6437               921.5574               944.0311
 Red. masses --      2.8638                 3.0751                 1.8079
 Frc consts  --      1.3324                 1.5387                 0.9493
 IR Inten    --      2.4070                29.1096                 0.6229

                     40                     41                     42
                      A                      A                      A
 Frequencies --    945.5669               982.4909               985.5617
 Red. masses --      1.7985                 1.1960                 2.4905
 Frc consts  --      0.9474                 0.6802                 1.4253
 IR Inten    --      0.6695                 0.0005                 4.4903

                     43                     44                     45
                      A                      A                      A
 Frequencies --   1009.4728              1049.0092              1063.0321
 Red. masses --      7.2171                 3.8290                 1.3924
 Frc consts  --      4.3331                 2.4825                 0.9271
 IR Inten    --     41.5746                34.4113                 1.0498

                     46                     47                     48
                      A                      A                      A
 Frequencies --   1063.6136              1082.1426              1123.5711
 Red. masses --      1.3899                 1.4498                 2.5617
 Frc consts  --      0.9264                 1.0003                 1.9053
 IR Inten    --      0.0785                 0.7052                99.0217

                     49                     50                     51
                      A                      A                      A
 Frequencies --   1133.1097              1159.6356              1208.7691
 Red. masses --      2.0864                 7.6349                 1.9146
 Frc consts  --      1.5783                 6.0492                 1.6482
 IR Inten    --     88.0109                41.6341                 8.2821

                     52                     53                     54
                      A                      A                      A
 Frequencies --   1229.5333              1238.4777              1239.8458
 Red. masses --      3.9745                 2.5871                 2.6189
 Frc consts  --      3.5401                 2.3380                 2.3719
 IR Inten    --    302.0037                 4.0527                 9.5853

                     55                     56                     57
                      A                      A                      A
 Frequencies --   1289.2197              1342.4170              1344.1558
 Red. masses --      3.5489                 3.7652                 1.2490
 Frc consts  --      3.4753                 3.9977                 1.3296
 IR Inten    --     81.8410                55.4262                42.3289

                     58                     59                     60
                      A                      A                      A
 Frequencies --   1417.1315              1423.6118              1424.1267
 Red. masses --      1.2944                 1.2093                 1.2087
 Frc consts  --      1.5316                 1.4440                 1.4443
 IR Inten    --      1.7906                 3.6177                 3.8298

                     61                     62                     63
                      A                      A                      A
 Frequencies --   1442.5387              1445.6355              1455.5981
 Red. masses --      1.3336                 1.3339                 1.2203
 Frc consts  --      1.6351                 1.6424                 1.5234
 IR Inten    --     13.4708                19.3357                 0.6693

                     64                     65                     66
                      A                      A                      A
 Frequencies --   1474.0258              1498.9037              1506.2419
 Red. masses --      4.8404                 7.8271                 1.0484
 Frc consts  --      6.1965                10.3609                 1.4014
 IR Inten    --     47.7690               118.9656                 0.0003

                     67                     68                     69
                      A                      A                      A
 Frequencies --   1511.7402              1515.6186              1516.4212
 Red. masses --      1.0445                 1.0718                 1.0462
 Frc consts  --      1.4064                 1.4506                 1.4175
 IR Inten    --      5.2182                30.8307                 0.4189

                     70                     71                     72
                      A                      A                      A
 Frequencies --   1516.5142              1516.6893              1519.7402
 Red. masses --      1.0934                 1.0461                 1.1098
 Frc consts  --      1.4816                 1.4179                 1.5103
 IR Inten    --      5.4361                 0.2364                 9.5770

                     73                     74                     75
                      A                      A                      A
 Frequencies --   1529.5011              1529.7990              1538.0786
 Red. masses --      1.0500                 1.0499                 1.0619
 Frc consts  --      1.4472                 1.4477                 1.4801
 IR Inten    --      6.4469                 6.8979                10.2103

                     76                     77                     78
                      A                      A                      A
 Frequencies --   1548.5572              1649.9990              1826.7646
 Red. masses --      1.0734                 8.3800                11.9383
 Frc consts  --      1.5166                13.4419                23.4723
 IR Inten    --      2.0529                13.3953               244.3731

                     79                     80                     81
                      A                      A                      A
 Frequencies --   2345.8115              3051.7342              3052.4942
 Red. masses --     11.9679                 1.0342                 1.0344
 Frc consts  --     38.8021                 5.6750                 5.6785
 IR Inten    --     53.8362                19.5092                19.9083

                     82                     83                     84
                      A                      A                      A
 Frequencies --   3058.4782              3062.8150              3063.4825
 Red. masses --      1.0353                 1.0362                 1.0350
 Frc consts  --      5.7058                 5.7272                 5.7229
 IR Inten    --     39.5622                16.6000                16.1785

                     85                     86                     87
                      A                      A                      A
 Frequencies --   3097.3338              3123.0645              3123.8882
 Red. masses --      1.0590                 1.1027                 1.1012
 Frc consts  --      5.9859                 6.3370                 6.3314
 IR Inten    --     25.3031                 2.1659                10.6241

                     88                     89                     90
                      A                      A                      A
 Frequencies --   3124.3023              3128.9018              3129.8281
 Red. masses --      1.1026                 1.1017                 1.1019
 Frc consts  --      6.3411                 6.3549                 6.3597
 IR Inten    --      7.0507                30.9078                67.4672

                     91                     92                     93
                      A                      A                      A
 Frequencies --   3132.4700              3135.9367              3137.8262
 Red. masses --      1.1041                 1.1034                 1.1033
 Frc consts  --      6.3831                 6.3934                 6.4006
 IR Inten    --      7.3485                31.4123                33.7225

                     94                     95                     96
                      A                      A                      A
 Frequencies --   3141.5585              3143.1995              3162.3049
 Red. masses --      1.1037                 1.1043                 1.1077
 Frc consts  --      6.4181                 6.4280                 6.5266
 IR Inten    --     14.6838                 5.8998                23.1592

 - Thermochemistry -
 -------------------
 Temperature   298.150 Kelvin.  Pressure   1.00000 Atm.
 Atom     1 has atomic number  6 and mass  12.00000

 Molecular mass:   235.12084 amu.
 Principal axes and moments of inertia in atomic units:
                           1         2         3
     Eigenvalues --  1471.80063********************
           X            0.99997   0.00669  -0.00261
           Y           -0.00670   0.99997  -0.00373
           Z            0.00258   0.00375   0.99999
 This molecule is an asymmetric top.
 Rotational symmetry number  1.
 Warning -- assumption of classical behavior for rotation
           may cause significant error
 Rotational temperatures (Kelvin)      0.05885     0.00803     0.00743
 Rotational constants (GHZ):           1.22621     0.16740     0.15480
    1 imaginary frequencies ignored.
 Zero-point vibrational energy     737880.1 (Joules/Mol)
                                  176.35758 (Kcal/Mol)
 Warning -- explicit consideration of  28 degrees of freedom as
           vibrations may cause significant error
 Vibrational temperatures:     41.75    50.65    56.60    96.34   140.94
          (Kelvin)            173.40   177.77   231.70   237.10   321.10
                              322.94   334.20   339.62   402.09   403.55
                              406.79   434.14   489.52   501.67   511.49
                              522.63   608.40   619.00   668.21   747.97
                              800.25   810.49   886.72   916.63   981.74
                             1004.48  1108.59  1128.22  1136.85  1230.71
                             1278.56  1325.92  1358.25  1360.46  1413.59
                             1418.00  1452.41  1509.29  1529.47  1530.30
                             1556.96  1616.57  1630.29  1668.46  1739.15
                             1769.02  1781.89  1783.86  1854.90  1931.44
                             1933.94  2038.94  2048.26  2049.00  2075.49
                             2079.95  2094.28  2120.79  2156.59  2167.15
                             2175.06  2180.64  2181.79  2181.93  2182.18
                             2186.57  2200.61  2201.04  2212.95  2228.03
                             2373.98  2628.31  3375.10  4390.76  4391.86
                             4400.47  4406.71  4407.67  4456.37  4493.39
                             4494.58  4495.17  4501.79  4503.12  4506.93
                             4511.91  4514.63  4520.00  4522.36  4549.85

 Zero-point correction=                           0.281044 (Hartree/Particle)
 Thermal correction to Energy=                    0.298824
 Thermal correction to Enthalpy=                  0.299768
 Thermal correction to Gibbs Free Energy=         0.234307
 Sum of electronic and zero-point Energies=           -785.736730
 Sum of electronic and thermal Energies=              -785.718950
 Sum of electronic and thermal Enthalpies=            -785.718006
 Sum of electronic and thermal Free Energies=         -785.783466

                     E (Thermal)             CV                S
                      KCal/Mol        Cal/Mol-Kelvin    Cal/Mol-Kelvin
 Total                  187.515             65.323            137.773
 Electronic               0.000              0.000              0.000
 Translational            0.889              2.981             42.266
 Rotational               0.889              2.981             33.580
 Vibrational            185.737             59.361             61.926
 Vibration     1          0.593              1.984              5.895
 Vibration     2          0.594              1.982              5.512
 Vibration     3          0.594              1.981              5.292
 Vibration     4          0.598              1.970              4.241
 Vibration     5          0.603              1.951              3.495
 Vibration     6          0.609              1.932              3.092
 Vibration     7          0.610              1.929              3.044
 Vibration     8          0.622              1.890              2.538
 Vibration     9          0.623              1.886              2.494
 Vibration    10          0.649              1.806              1.933
 Vibration    11          0.649              1.804              1.923
 Vibration    12          0.653              1.792              1.861
 Vibration    13          0.655              1.786              1.832
 Vibration    14          0.680              1.712              1.537
 Vibration    15          0.680              1.710              1.531
 Vibration    16          0.682              1.706              1.517
 Vibration    17          0.694              1.670              1.407
 Vibration    18          0.720              1.595              1.211
 Vibration    19          0.726              1.578              1.172
 Vibration    20          0.731              1.564              1.142
 Vibration    21          0.737              1.548              1.108
 Vibration    22          0.785              1.421              0.882
 Vibration    23          0.791              1.404              0.858
 Vibration    24          0.822              1.329              0.753
 Vibration    25          0.875              1.206              0.610
 Vibration    26          0.912              1.126              0.531
 Vibration    27          0.919              1.111              0.517
 Vibration    28          0.976              0.997              0.422

                           ! Non-Optimized Parameters !
 Normal termination of Gaussian 16 at Mon Dec 14 13:35:45 2020.

 ----------------------------------------------------------------------
 # B3LYP/6-311++G(d,p) empiricaldispersion=gd3bj scf=xqc pop=npa geom=c
 heck
 ----------------------------------------------------------------------

 ---------------------------------------
 CID_118511143_JID_7186_Energie_neutraal
 ---------------------------------------
 Structure from the checkpoint file:  "JID_7186.chk"
 Charge =  0 Multiplicity = 1

 SCF Done:  E(RB3LYP) =  -786.234600987     A.U. after   16 cycles
 Normal termination of Gaussian 16 at Mon Dec 14 13:41:03 2020.

 ----------------------------------------------------------------------
 # B3LYP/6-311++G(d,p) empiricaldispersion=gd3bj scf=xqc pop=npa geom=c
 heck
 ----------------------------------------------------------------------

 -------------------------------------
 CID_118511143_JID_7186_Energie_kation
 -------------------------------------
 Structure from the checkpoint file:  "JID_7186.chk"
 Charge =  1 Multiplicity = 2

 SCF Done:  E(UB3LYP) =  -785.923374588     A.U. after   21 cycles
 Normal termination of Gaussian 16 at Mon Dec 14 13:51:42 2020.
 Gaussian 16:  ES64L-G16RevA.03 25-Dec-2016

 ----------------------------------------------------------------------
 # B3LYP/6-311++G(d,p) empiricaldispersion=gd3bj scf=xqc pop=npa geom=c
 heck
 ----------------------------------------------------------------------

 ------------------------------------
 CID_118511143_JID_7186_Energie_anion
 ------------------------------------
 Structure from the checkpoint file:  "JID_7186.chk"
 Charge = -1 Multiplicity = 2

                         Standard orientation:
 ---------------------------------------------------------------------
 Center     Atomic      Atomic             Coordinates (Angstroms)
 Number     Number       Type             X           Y           Z
 ---------------------------------------------------------------------
      1          6           0       -5.434151   -1.222290    0.962607
      2          6           0       -4.824115   -1.090379   -0.423177
      3          8           0       -3.423277   -0.731190   -0.344386
      4          6           0       -3.157479    0.584377   -0.176381
      5          8           0       -3.996734    1.452836   -0.108846
      6          6           0       -1.688324    0.805830   -0.090199
      7          7           0       -1.254351    2.044626    0.066182
      8          8           0        0.117342    1.956892    0.116636
      9          6           0        0.495459    0.648913   -0.010721
     10          6           0       -0.618869   -0.141820   -0.147258
     11          6           0       -0.646710   -1.626303   -0.311637
     12          6           0        1.868288    0.341708    0.016476
     13          6           0        3.043769    0.044648    0.036191
     14          6           0        4.469396   -0.305726    0.060416
     15          6           0        4.685550   -1.595235   -0.761929
     16          6           0        5.283311    0.853000   -0.556823
     17          6           0        4.912784   -0.536536    1.522436
     18          1           0       -4.876006   -1.946736    1.564438
     19          1           0       -6.470987   -1.567039    0.880619
     20          1           0       -5.431518   -0.256738    1.474854
     21          1           0       -4.825413   -2.042158   -0.958884
     22          1           0       -5.344901   -0.335761   -1.016960
     23          1           0        0.373393   -2.020549   -0.301979
     24          1           0       -1.216917   -2.103319    0.491536
     25          1           0       -1.125510   -1.911840   -1.253525
     26          1           0        4.375131   -1.452790   -1.801726
     27          1           0        5.747115   -1.866915   -0.750907
     28          1           0        4.111597   -2.427702   -0.342445
     29          1           0        5.136489    1.778323    0.008639
     30          1           0        6.350183    0.602846   -0.542611
     31          1           0        4.982733    1.033217   -1.593540
     32          1           0        4.761801    0.365530    2.123282
     33          1           0        4.344264   -1.352576    1.979433
     34          1           0        5.976883   -0.797603    1.549271
 ---------------------------------------------------------------------

 SCF Done:  E(UB3LYP) =  -786.242940709     A.U. after   33 cycles
 SCF Done:  E(UB3LYP) =  -786.242940709     a.u. after    1 cycles

 The electronic state is 2-A.
 Alpha  occ. eigenvalues --  -19.04377 -19.03692 -18.96325 -14.18776 -10.15247
 Alpha  occ. eigenvalues --  -10.12385 -10.11470 -10.09648 -10.07596 -10.07574
 Alpha  occ. eigenvalues --  -10.07454 -10.07053 -10.05605 -10.05443 -10.05358
 Alpha  occ. eigenvalues --  -10.05236 -10.04795  -0.99198  -0.97433  -0.88326
 Alpha  occ. eigenvalues --   -0.74053  -0.71978  -0.68977  -0.66746  -0.62683
 Alpha  occ. eigenvalues --   -0.60297  -0.60217  -0.58358  -0.56313  -0.51332
 Alpha  occ. eigenvalues --   -0.49119  -0.46901  -0.43801  -0.40536  -0.38901
 Alpha  occ. eigenvalues --   -0.36631  -0.35676  -0.35554  -0.35499  -0.34554
 Alpha  occ. eigenvalues --   -0.33210  -0.32006  -0.30909  -0.30837  -0.30505
 Alpha  occ. eigenvalues --   -0.30168  -0.29503  -0.28337  -0.28227  -0.27660
 Alpha  occ. eigenvalues --   -0.27176  -0.26067  -0.25603  -0.25590  -0.24000
 Alpha  occ. eigenvalues --   -0.22760  -0.19238  -0.18325  -0.17006  -0.15110
 Alpha  occ. eigenvalues --   -0.14534  -0.14283  -0.10558   0.04144
 Alpha virt. eigenvalues --    0.05580   0.06690   0.07973   0.08466   0.08618
 Alpha virt. eigenvalues --    0.09121   0.09565   0.10524   0.10870   0.11242
 Alpha virt. eigenvalues --    0.11357   0.11670   0.12348   0.12725   0.13078

  Beta  occ. eigenvalues --  -19.03965 -19.03622 -18.96168 -14.17971 -10.15049
  Beta  occ. eigenvalues --  -10.12387 -10.11482 -10.09526 -10.07582 -10.07554
  Beta  occ. eigenvalues --  -10.07434 -10.07039 -10.05601 -10.05503 -10.05358
  Beta  occ. eigenvalues --  -10.05241 -10.04672  -0.98406  -0.97200  -0.88067
  Beta  occ. eigenvalues --   -0.73977  -0.71251  -0.68675  -0.66681  -0.62500
  Beta  occ. eigenvalues --   -0.60258  -0.60185  -0.58161  -0.56098  -0.51114
  Beta  occ. eigenvalues --   -0.48808  -0.46637  -0.43616  -0.40353  -0.38855
  Beta  occ. eigenvalues --   -0.36455  -0.35576  -0.35491  -0.35370  -0.34167
  Beta  occ. eigenvalues --   -0.32279  -0.31793  -0.30850  -0.30803  -0.30316
  Beta  occ. eigenvalues --   -0.30025  -0.28905  -0.28318  -0.28115  -0.27216
  Beta  occ. eigenvalues --   -0.26972  -0.25910  -0.25572  -0.25506  -0.23717
  Beta  occ. eigenvalues --   -0.22639  -0.18194  -0.17641  -0.16675  -0.14183
  Beta  occ. eigenvalues --   -0.13752  -0.13678  -0.08836
  Beta virt. eigenvalues --    0.05828   0.06644   0.08034   0.08335   0.08648
  Beta virt. eigenvalues --    0.09049   0.09547   0.10527   0.10879   0.11096
  Beta virt. eigenvalues --    0.11188   0.11543   0.11928   0.12321   0.12714

 Mulliken charges and spin densities:
               1          2
     1  C   -0.132559  -0.218337
     2  C   -0.261768   0.100165
     3  O   -0.036610   0.010211
     4  C   -0.555782   0.288786
     5  O   -0.295070   0.057366
     6  C    0.931526  -0.124223
     7  N   -0.448586   0.375455
     8  O    0.138579   0.089788
     9  C   -0.436024  -0.091085
    10  C    0.206355  -0.070876
    11  C   -0.849983  -0.139355
    12  C    0.281447  -0.020999
    13  C    0.494513  -0.614958
    14  C   -0.442539   1.297075
    15  C   -0.145218  -0.512570
    16  C   -0.269266  -0.372261
    17  C   -0.621230  -0.035233
    18  H    0.112229   0.019295
    19  H    0.028065   0.086713
    20  H    0.123075   0.056719
    21  H    0.059773   0.069148
    22  H    0.164259   0.003283
    23  H    0.120454  -0.018914
    24  H    0.142587   0.008199
    25  H    0.140768   0.018615
    26  H    0.079248   0.065381
    27  H   -0.140118   0.285475
    28  H    0.100086   0.039228
    29  H    0.130538   0.014391
    30  H   -0.094872   0.239041
    31  H    0.089089   0.056292
    32  H    0.139207   0.004542
    33  H    0.132980   0.011873
    34  H    0.114848   0.021768
 Sum of Mulliken charges =  -1.00000   1.00000

 Dipole moment (field-independent basis, Debye):
    X=              1.9072    Y=             -6.0414    Z=              0.3825  Tot=              6.3468
 Quadrupole moment (field-independent basis, Debye-Ang):
   XX=           -173.3339   YY=           -131.1938   ZZ=           -111.7526
   XY=             16.4163   XZ=              6.2239   YZ=             -0.7473

 Summary of Natural Population Analysis:

                                       Natural Population
                Natural  -----------------------------------------------
    Atom  No    Charge         Core      Valence    Rydberg      Total
 -----------------------------------------------------------------------
      C    1   -0.29923      0.99966     2.29518    0.00438     3.29923
      C    2   -0.01732      0.99959     2.00641    0.01131     3.01732
      O    3   -0.28430      0.99987     3.27600    0.00843     4.28430
      C    4    0.41748      0.99965     1.55772    0.02516     2.58252
      O    5   -0.29904      0.99987     3.29354    0.00563     4.29904
      C    6   -0.00915      0.99950     1.99293    0.01672     3.00915
      N    7    0.07281      0.99968     2.41436    0.01316     3.42719
      O    8   -0.13697      0.99987     3.12006    0.01704     4.13697
      C    9    0.16630      0.99937     1.81420    0.02012     2.83370
      C   10   -0.07616      0.99950     2.06275    0.01391     3.07616
      C   11   -0.29029      0.99964     2.28545    0.00520     3.29029
      C   12    0.00105      0.99934     1.98565    0.01396     2.99895
      C   13   -0.00772      0.99937     1.99142    0.01693     3.00772
      C   14   -0.07860      0.99955     2.07109    0.00796     3.07860
      C   15   -0.27560      0.99964     2.26872    0.00724     3.27560
      C   16   -0.27541      0.99964     2.26853    0.00723     3.27541
      C   17   -0.27251      0.99964     2.26733    0.00554     3.27251
      H   18    0.09689      0.00000     0.40174    0.00136     0.40311
      H   19    0.09414      0.00000     0.40447    0.00139     0.40586
      H   20    0.10918      0.00000     0.38933    0.00149     0.39082
      H   21    0.08311      0.00000     0.41540    0.00150     0.41689
      H   22    0.09381      0.00000     0.40432    0.00187     0.40619
      H   23    0.10086      0.00000     0.39803    0.00111     0.39914
      H   24    0.10188      0.00000     0.39648    0.00164     0.39812
      H   25    0.10199      0.00000     0.39642    0.00159     0.39801
      H   26    0.10289      0.00000     0.39636    0.00076     0.39711
      H   27    0.09515      0.00000     0.40396    0.00088     0.40485
      H   28    0.10085      0.00000     0.39837    0.00078     0.39915
      H   29    0.10204      0.00000     0.39718    0.00078     0.39796
      H   30    0.09453      0.00000     0.40462    0.00084     0.40547
      H   31    0.10309      0.00000     0.39613    0.00078     0.39691
      H   32    0.10153      0.00000     0.39766    0.00081     0.39847
      H   33    0.10077      0.00000     0.39843    0.00080     0.39923
      H   34    0.09299      0.00000     0.40609    0.00092     0.40701
 =======================================================================
   * Total *    0.01106     16.99336    45.77635    0.21923    62.98894

 Normal termination of Gaussian 16 at Mon Dec 14 14:08:46 2020.
