 Gaussian 16, Revision A.03,

 -----------------------------------------------------------
 # opt freq B3LYP/6-31G(d) empiricaldispersion=gd3bj scf=xqc
 -----------------------------------------------------------

 ------------------------------
 CID_79249093_JID_4143_neutraal
 ------------------------------
 Symbolic Z-matrix:
 Charge =  0 Multiplicity = 1

 SCF Done:  E(RB3LYP) =  -674.177396409     A.U. after   14 cycles
 SCF Done:  E(RB3LYP) =  -674.181769781     A.U. after   12 cycles
 SCF Done:  E(RB3LYP) =  -674.182525250     A.U. after   12 cycles
 SCF Done:  E(RB3LYP) =  -674.182752842     A.U. after   12 cycles
 SCF Done:  E(RB3LYP) =  -674.182906154     A.U. after   12 cycles
 SCF Done:  E(RB3LYP) =  -674.183323601     A.U. after   10 cycles
 SCF Done:  E(RB3LYP) =  -674.183676483     A.U. after   11 cycles
 SCF Done:  E(RB3LYP) =  -674.183791442     A.U. after   11 cycles
 SCF Done:  E(RB3LYP) =  -674.183844659     A.U. after   10 cycles
 SCF Done:  E(RB3LYP) =  -674.183874066     A.U. after   10 cycles
 SCF Done:  E(RB3LYP) =  -674.183898594     A.U. after   10 cycles
 SCF Done:  E(RB3LYP) =  -674.183898804     A.U. after   10 cycles
 SCF Done:  E(RB3LYP) =  -674.183909088     A.U. after   10 cycles
 SCF Done:  E(RB3LYP) =  -674.183910056     A.U. after    8 cycles
 SCF Done:  E(RB3LYP) =  -674.183910134     A.U. after    7 cycles
 Optimization completed.
    -- Stationary point found.
 Normal termination of Gaussian 16 at Thu Dec 10 09:21:23 2020.

 --------------------------------------------------------------------
 #N Geom=AllCheck Guess=TCheck SCRF=Check GenChk RB3LYP/6-31G(d) Freq
 --------------------------------------------------------------------

 Structure from the checkpoint file:  "JID_4143.chk"
 ------------------------------
 CID_79249093_JID_4143_neutraal
 ------------------------------
 Charge =  0 Multiplicity = 1

 SCF Done:  E(RB3LYP) =  -674.183910134     A.U. after    1 cycles

  Exact polarizability: 143.585   3.423 115.196  -1.925   1.907 106.785
 Approx polarizability: 167.469   1.048 172.886  -4.275   2.010 156.617

                      1                      2                      3
                      A                      A                      A
 Frequencies --     19.1436                27.9569                41.3676
 Red. masses --      3.6077                 3.5587                 3.6162
 Frc consts  --      0.0008                 0.0016                 0.0036
 IR Inten    --      0.3109                 1.8751                 0.3743

                      4                      5                      6
                      A                      A                      A
 Frequencies --     47.6775                79.0448               104.7201
 Red. masses --      3.5417                 3.4922                 3.7959
 Frc consts  --      0.0047                 0.0129                 0.0245
 IR Inten    --      0.6763                 3.1058                 1.8279

                      7                      8                      9
                      A                      A                      A
 Frequencies --    109.1048               156.8846               176.3206
 Red. masses --      4.4231                 3.0404                 3.3360
 Frc consts  --      0.0310                 0.0441                 0.0611
 IR Inten    --      2.6855                 5.3260                 0.2245

                     10                     11                     12
                      A                      A                      A
 Frequencies --    206.9671               208.0941               239.3123
 Red. masses --      1.8886                 1.1910                 1.7017
 Frc consts  --      0.0477                 0.0304                 0.0574
 IR Inten    --      0.5383                 0.0594                 0.9791

                     13                     14                     15
                      A                      A                      A
 Frequencies --    251.1999               267.2804               283.0310
 Red. masses --      1.1408                 2.5692                 2.4199
 Frc consts  --      0.0424                 0.1081                 0.1142
 IR Inten    --      0.2202                 0.6804                 0.4731

                     16                     17                     18
                      A                      A                      A
 Frequencies --    331.3588               340.3351               350.9373
 Red. masses --      1.4089                 1.9105                 2.6749
 Frc consts  --      0.0911                 0.1304                 0.1941
 IR Inten    --      6.8549                10.6209                 5.6769

                     19                     20                     21
                      A                      A                      A
 Frequencies --    389.6436               403.0136               406.4580
 Red. masses --      1.8084                 1.9097                 1.7123
 Frc consts  --      0.1618                 0.1827                 0.1667
 IR Inten    --      0.3952                45.8832                46.9661

                     22                     23                     24
                      A                      A                      A
 Frequencies --    421.2152               450.4951               492.3943
 Red. masses --      2.2322                 2.4741                 3.5658
 Frc consts  --      0.2333                 0.2958                 0.5094
 IR Inten    --      2.1360                 2.7031                10.3990

                     25                     26                     27
                      A                      A                      A
 Frequencies --    550.2842               651.6907               685.3810
 Red. masses --      3.0288                 3.5691                 2.7905
 Frc consts  --      0.5404                 0.8931                 0.7723
 IR Inten    --     18.6177                 8.5415                 7.1481

                     28                     29                     30
                      A                      A                      A
 Frequencies --    754.8163               786.9167               798.7959
 Red. masses --      2.7962                 2.2179                 1.7144
 Frc consts  --      0.9387                 0.8092                 0.6445
 IR Inten    --     43.6986                13.4987                13.4126

                     31                     32                     33
                      A                      A                      A
 Frequencies --    845.6076               865.3103               901.5771
 Red. masses --      2.2445                 2.5215                 2.3449
 Frc consts  --      0.9456                 1.1124                 1.1230
 IR Inten    --     17.9320                10.9797                 1.3053

                     34                     35                     36
                      A                      A                      A
 Frequencies --    916.5021               939.8062               940.2841
 Red. masses --      1.9002                 1.2316                 1.6707
 Frc consts  --      0.9404                 0.6409                 0.8703
 IR Inten    --      1.8213                 1.7154                 4.9330

                     37                     38                     39
                      A                      A                      A
 Frequencies --    961.3998               981.2675               996.2213
 Red. masses --      1.8272                 1.5567                 1.7800
 Frc consts  --      0.9950                 0.8831                 1.0408
 IR Inten    --      9.4865                 5.7070                 4.1170

                     40                     41                     42
                      A                      A                      A
 Frequencies --   1028.9896              1080.3077              1092.8019
 Red. masses --      1.9365                 3.6878                 2.3544
 Frc consts  --      1.2081                 2.5358                 1.6566
 IR Inten    --      4.5230               116.1537                56.8374

                     43                     44                     45
                      A                      A                      A
 Frequencies --   1098.7476              1123.6891              1133.2942
 Red. masses --      3.1624                 2.8504                 2.0085
 Frc consts  --      2.2494                 2.1205                 1.5199
 IR Inten    --     41.8892               101.1186                53.2074

                     46                     47                     48
                      A                      A                      A
 Frequencies --   1158.2796              1172.3687              1185.3986
 Red. masses --      2.1108                 2.2383                 1.7767
 Frc consts  --      1.6685                 1.8126                 1.4709
 IR Inten    --      9.5236                45.0270                20.7204

                     49                     50                     51
                      A                      A                      A
 Frequencies --   1207.6831              1210.2108              1262.0934
 Red. masses --      1.7671                 1.7246                 1.3814
 Frc consts  --      1.5185                 1.4882                 1.2965
 IR Inten    --      7.8899                 8.7455                27.5064

                     52                     53                     54
                      A                      A                      A
 Frequencies --   1296.1724              1302.5013              1339.2439
 Red. masses --      1.8189                 2.1580                 1.3146
 Frc consts  --      1.8005                 2.1571                 1.3892
 IR Inten    --     95.9463               152.2720                 7.7014

                     55                     56                     57
                      A                      A                      A
 Frequencies --   1345.0654              1357.3336              1363.7219
 Red. masses --      1.1822                 1.3901                 1.2494
 Frc consts  --      1.2602                 1.5089                 1.3690
 IR Inten    --     41.8040                 3.6374                 2.5211

                     58                     59                     60
                      A                      A                      A
 Frequencies --   1377.3962              1394.0507              1415.5151
 Red. masses --      1.2854                 1.3133                 1.3522
 Frc consts  --      1.4368                 1.5038                 1.5963
 IR Inten    --      7.5083                 3.1729                 6.0856

                     61                     62                     63
                      A                      A                      A
 Frequencies --   1419.4476              1429.6479              1432.4264
 Red. masses --      1.2892                 1.2648                 1.2512
 Frc consts  --      1.5304                 1.5231                 1.5126
 IR Inten    --      6.9215                 2.4944                 8.1186

                     64                     65                     66
                      A                      A                      A
 Frequencies --   1444.4883              1448.3131              1453.7907
 Red. masses --      1.3331                 1.2545                 1.2469
 Frc consts  --      1.6389                 1.5504                 1.5527
 IR Inten    --     13.6235                32.7534                61.8199

                     67                     68                     69
                      A                      A                      A
 Frequencies --   1515.7923              1518.2076              1519.3974
 Red. masses --      1.0518                 1.0597                 1.0732
 Frc consts  --      1.4238                 1.4391                 1.4598
 IR Inten    --      6.8424                 1.7199                 3.6716

                     70                     71                     72
                      A                      A                      A
 Frequencies --   1521.0476              1526.2524              1529.4331
 Red. masses --      1.0521                 1.0751                 1.0491
 Frc consts  --      1.4341                 1.4755                 1.4458
 IR Inten    --      0.3612                14.4320                 5.0715

                     73                     74                     75
                      A                      A                      A
 Frequencies --   1536.0201              1538.3118              1544.0185
 Red. masses --      1.0610                 1.0583                 1.1405
 Frc consts  --      1.4750                 1.4755                 1.6019
 IR Inten    --      2.5063                 6.1037                15.5190

                     76                     77                     78
                      A                      A                      A
 Frequencies --   1553.4839              1561.2630              1827.0797
 Red. masses --      1.0626                 1.0807                10.9390
 Frc consts  --      1.5109                 1.5520                21.5150
 IR Inten    --     15.0690                 5.9026               189.5412

                     79                     80                     81
                      A                      A                      A
 Frequencies --   2951.6698              2969.2524              3035.9660
 Red. masses --      1.0796                 1.0777                 1.0426
 Frc consts  --      5.5418                 5.5980                 5.6620
 IR Inten    --     27.0132                99.3596                19.0601

                     82                     83                     84
                      A                      A                      A
 Frequencies --   3041.8844              3052.6316              3061.6690
 Red. masses --      1.0445                 1.0348                 1.0731
 Frc consts  --      5.6941                 5.6811                 5.9266
 IR Inten    --     23.0950                16.0240                19.1913

                     85                     86                     87
                      A                      A                      A
 Frequencies --   3061.7612              3095.0190              3097.2881
 Red. masses --      1.0412                 1.0590                 1.0979
 Frc consts  --      5.7510                 5.9771                 6.2055
 IR Inten    --     15.2838                23.5958                15.5196

                     88                     89                     90
                      A                      A                      A
 Frequencies --   3108.5735              3119.2689              3120.1572
 Red. masses --      1.0971                 1.0959                 1.1017
 Frc consts  --      6.2465                 6.2825                 6.3195
 IR Inten    --     63.3868                33.8851                23.9980

                     91                     92                     93
                      A                      A                      A
 Frequencies --   3127.4138              3129.5626              3132.8349
 Red. masses --      1.1019                 1.1022                 1.0939
 Frc consts  --      6.3500                 6.3605                 6.3257
 IR Inten    --     26.7037                11.4687                41.7783

                     94                     95                     96
                      A                      A                      A
 Frequencies --   3140.9631              3142.0078              3160.1962
 Red. masses --      1.1041                 1.0989                 1.1076
 Frc consts  --      6.4178                 6.3916                 6.5170
 IR Inten    --      7.7775                20.2471                26.7822

                     97                     98                     99
                      A                      A                      A
 Frequencies --   3173.5415              3476.1484              3714.4570
 Red. masses --      1.0863                 1.0737                 1.0659
 Frc consts  --      6.4458                 7.6441                 8.6645
 IR Inten    --      6.6755                 0.2918                22.7986

 - Thermochemistry -
 -------------------
 Temperature   298.150 Kelvin.  Pressure   1.00000 Atm.
 Atom     1 has atomic number  6 and mass  12.00000

 Molecular mass:   203.15214 amu.
 Principal axes and moments of inertia in atomic units:
                           1         2         3
     Eigenvalues --  1578.640655434.435175902.00259
           X            0.99982   0.01866  -0.00221
           Y           -0.01858   0.99936   0.03045
           Z            0.00278  -0.03040   0.99953
 This molecule is an asymmetric top.
 Rotational symmetry number  1.
 Warning -- assumption of classical behavior for rotation
           may cause significant error
 Rotational temperatures (Kelvin)      0.05487     0.01594     0.01468
 Rotational constants (GHZ):           1.14322     0.33209     0.30578
 Zero-point vibrational energy     822763.8 (Joules/Mol)
                                  196.64527 (Kcal/Mol)
 Warning -- explicit consideration of  25 degrees of freedom as
           vibrations may cause significant error
 Vibrational temperatures:     27.54    40.22    59.52    68.60   113.73
          (Kelvin)            150.67   156.98   225.72   253.69   297.78
                              299.40   344.32   361.42   384.56   407.22
                              476.75   489.67   504.92   560.61   579.85
                              584.80   606.03   648.16   708.45   791.74
                              937.64   986.11  1086.01  1132.20  1149.29
                             1216.64  1244.99  1297.17  1318.64  1352.17
                             1352.86  1383.24  1411.83  1433.34  1480.49
                             1554.32  1572.30  1580.85  1616.74  1630.56
                             1666.51  1686.78  1705.52  1737.59  1741.22
                             1815.87  1864.90  1874.01  1926.87  1935.25
                             1952.90  1962.09  1981.77  2005.73  2036.61
                             2042.27  2056.94  2060.94  2078.30  2083.80
                             2091.68  2180.89  2184.36  2186.07  2188.45
                             2195.94  2200.51  2209.99  2213.29  2221.50
                             2235.12  2246.31  2628.76  4246.79  4272.09
                             4368.08  4376.59  4392.06  4405.06  4405.19
                             4453.04  4456.31  4472.54  4487.93  4489.21
                             4499.65  4502.74  4507.45  4519.15  4520.65
                             4546.82  4566.02  5001.40  5344.28

 Zero-point correction=                           0.313374 (Hartree/Particle)
 Thermal correction to Energy=                    0.330512
 Thermal correction to Enthalpy=                  0.331456
 Thermal correction to Gibbs Free Energy=         0.266740
 Sum of electronic and zero-point Energies=           -673.870536
 Sum of electronic and thermal Energies=              -673.853398
 Sum of electronic and thermal Enthalpies=            -673.852454
 Sum of electronic and thermal Free Energies=         -673.917170

                     E (Thermal)             CV                S
                      KCal/Mol        Cal/Mol-Kelvin    Cal/Mol-Kelvin
 Total                  207.399             61.962            136.205
 Electronic               0.000              0.000              0.000
 Translational            0.889              2.981             41.831
 Rotational               0.889              2.981             32.293
 Vibrational            205.622             56.000             62.081
 Vibration     1          0.593              1.986              6.721
 Vibration     2          0.593              1.984              5.969
 Vibration     3          0.594              1.981              5.192
 Vibration     4          0.595              1.978              4.911
 Vibration     5          0.600              1.963              3.914
 Vibration     6          0.605              1.945              3.365
 Vibration     7          0.606              1.942              3.285
 Vibration     8          0.621              1.895              2.587
 Vibration     9          0.628              1.872              2.367
 Vibration    10          0.641              1.830              2.070
 Vibration    11          0.641              1.828              2.060
 Vibration    12          0.657              1.780              1.808
 Vibration    13          0.663              1.761              1.722
 Vibration    14          0.672              1.733              1.614
 Vibration    15          0.682              1.705              1.515
 Vibration    16          0.714              1.613              1.253
 Vibration    17          0.720              1.595              1.211
 Vibration    18          0.728              1.573              1.162
 Vibration    19          0.758              1.492              1.002
 Vibration    20          0.768              1.464              0.952
 Vibration    21          0.771              1.456              0.939
 Vibration    22          0.784              1.424              0.888
 Vibration    23          0.809              1.360              0.794
 Vibration    24          0.848              1.267              0.677
 Vibration    25          0.906              1.139              0.544

                           ! Non-Optimized Parameters !
 Normal termination of Gaussian 16 at Thu Dec 10 09:31:24 2020.

 ----------------------------------------------------------------------
 # B3LYP/6-311++G(d,p) empiricaldispersion=gd3bj scf=xqc pop=npa geom=c
 heck
 ----------------------------------------------------------------------

 --------------------------------------
 CID_79249093_JID_4143_Energie_neutraal
 --------------------------------------
 Structure from the checkpoint file:  "JID_4143.chk"
 Charge =  0 Multiplicity = 1

 SCF Done:  E(RB3LYP) =  -674.394244328     A.U. after   14 cycles
 Normal termination of Gaussian 16 at Thu Dec 10 09:35:37 2020.

 ----------------------------------------------------------------------
 # B3LYP/6-311++G(d,p) empiricaldispersion=gd3bj scf=xqc pop=npa geom=c
 heck
 ----------------------------------------------------------------------

 ------------------------------------
 CID_79249093_JID_4143_Energie_kation
 ------------------------------------
 Structure from the checkpoint file:  "JID_4143.chk"
 Charge =  1 Multiplicity = 2

 SCF Done:  E(UB3LYP) =  -674.079493899     A.U. after   23 cycles
 Normal termination of Gaussian 16 at Thu Dec 10 09:45:03 2020.
 Gaussian 16:  ES64L-G16RevA.03 25-Dec-2016

 ----------------------------------------------------------------------
 # B3LYP/6-311++G(d,p) empiricaldispersion=gd3bj scf=xqc pop=npa geom=c
 heck
 ----------------------------------------------------------------------

 -----------------------------------
 CID_79249093_JID_4143_Energie_anion
 -----------------------------------
 Structure from the checkpoint file:  "JID_4143.chk"
 Charge = -1 Multiplicity = 2

                         Standard orientation:
 ---------------------------------------------------------------------
 Center     Atomic      Atomic             Coordinates (Angstroms)
 Number     Number       Type             X           Y           Z
 ---------------------------------------------------------------------
      1          6           0        4.777172    0.163769   -0.204726
      2          6           0        3.553749    0.591160   -0.998709
      3          8           0        2.371813    0.612773   -0.163410
      4          6           0        1.738039   -0.568139    0.013038
      5          8           0        2.107582   -1.618689   -0.464724
      6          6           0        0.489127   -0.383235    0.865107
      7          6           0        0.822228    0.169264    2.258135
      8          7           0       -0.438726    0.463605    0.096835
      9          6           0       -1.872655    0.317070    0.420529
     10          6           0       -2.500154    1.707660    0.245114
     11          8           0       -2.427485    2.168814   -1.096931
     12          6           0       -2.565734   -0.729290   -0.488880
     13          6           0       -1.825682   -2.069291   -0.576526
     14          6           0       -4.016745   -0.963026   -0.044072
     15          1           0        4.920581    0.812788    0.665303
     16          1           0        5.671941    0.227328   -0.834116
     17          1           0        4.668092   -0.869173    0.135926
     18          1           0        3.646463    1.616950   -1.362787
     19          1           0        3.373198   -0.080040   -1.841592
     20          1           0        0.051280   -1.374748    0.962204
     21          1           0        1.302642    1.149699    2.177838
     22          1           0       -0.092415    0.273632    2.851545
     23          1           0        1.501780   -0.499807    2.798367
     24          1           0       -0.149941    1.427385    0.258781
     25          1           0       -2.016477    0.020657    1.475663
     26          1           0       -3.558043    1.700241    0.517138
     27          1           0       -1.992860    2.410156    0.930345
     28          1           0       -1.565463    1.884495   -1.444086
     29          1           0       -2.581254   -0.293852   -1.495203
     30          1           0       -1.773381   -2.566878    0.401365
     31          1           0       -2.362704   -2.744636   -1.252356
     32          1           0       -0.809322   -1.955259   -0.962030
     33          1           0       -4.626344   -0.057044   -0.113097
     34          1           0       -4.490765   -1.723881   -0.673573
     35          1           0       -4.057281   -1.322092    0.992975
 ---------------------------------------------------------------------

 SCF Done:  E(UB3LYP) =  -674.380879006     A.U. after   33 cycles
 SCF Done:  E(UB3LYP) =  -674.380879006     a.u. after    1 cycles

 The electronic state is 2-A.
 Alpha  occ. eigenvalues --  -19.07406 -19.03319 -19.02136 -14.21664 -10.20731
 Alpha  occ. eigenvalues --  -10.13460 -10.12571 -10.12116 -10.11281 -10.08327
 Alpha  occ. eigenvalues --  -10.07182 -10.07035 -10.06991 -10.06710  -1.01460
 Alpha  occ. eigenvalues --   -0.93712  -0.92962  -0.82840  -0.71848  -0.68671
 Alpha  occ. eigenvalues --   -0.66230  -0.62156  -0.59337  -0.57860  -0.54666
 Alpha  occ. eigenvalues --   -0.53422  -0.47520  -0.46559  -0.43677  -0.40847
 Alpha  occ. eigenvalues --   -0.40097  -0.38415  -0.37850  -0.37641  -0.36014
 Alpha  occ. eigenvalues --   -0.35182  -0.34188  -0.33375  -0.32526  -0.31502
 Alpha  occ. eigenvalues --   -0.31166  -0.30340  -0.29675  -0.29220  -0.28600
 Alpha  occ. eigenvalues --   -0.27640  -0.26985  -0.25902  -0.25104  -0.24822
 Alpha  occ. eigenvalues --   -0.24375  -0.22926  -0.21487  -0.19181  -0.18728
 Alpha  occ. eigenvalues --   -0.14573   0.04229
 Alpha virt. eigenvalues --    0.05802   0.06837   0.07389   0.07939   0.08570
 Alpha virt. eigenvalues --    0.09011   0.09241   0.09531   0.10243   0.10458
 Alpha virt. eigenvalues --    0.10643   0.11112   0.11742   0.12394   0.12847

  Beta  occ. eigenvalues --  -19.07399 -19.03315 -19.02131 -14.21653 -10.20730
  Beta  occ. eigenvalues --  -10.13439 -10.12549 -10.12110 -10.11268 -10.08325
  Beta  occ. eigenvalues --  -10.07147 -10.06992 -10.06970 -10.06702  -1.01449
  Beta  occ. eigenvalues --   -0.93699  -0.92953  -0.82820  -0.71828  -0.68641
  Beta  occ. eigenvalues --   -0.66192  -0.62112  -0.59300  -0.57801  -0.54612
  Beta  occ. eigenvalues --   -0.53373  -0.47481  -0.46522  -0.43661  -0.40817
  Beta  occ. eigenvalues --   -0.40062  -0.38389  -0.37819  -0.37608  -0.35988
  Beta  occ. eigenvalues --   -0.35140  -0.34163  -0.33341  -0.32497  -0.31463
  Beta  occ. eigenvalues --   -0.31119  -0.30311  -0.29651  -0.29181  -0.28570
  Beta  occ. eigenvalues --   -0.27602  -0.26953  -0.25882  -0.25077  -0.24800
  Beta  occ. eigenvalues --   -0.24343  -0.22901  -0.21465  -0.19166  -0.18710
  Beta  occ. eigenvalues --   -0.14556
  Beta virt. eigenvalues --    0.06351   0.06778   0.07471   0.07840   0.08254
  Beta virt. eigenvalues --    0.09053   0.09255   0.09561   0.09879   0.10519
  Beta virt. eigenvalues --    0.10765   0.10933   0.11497   0.12160   0.12573

 Mulliken charges and spin densities:
               1          2
     1  C    0.646188  -1.029792
     2  C   -0.010869  -0.135890
     3  O    0.006582   0.020576
     4  C   -1.406068   1.230527
     5  O   -0.208893  -0.005526
     6  C   -0.764857   0.517916
     7  C    1.911002  -2.572776
     8  N    0.123052  -0.001864
     9  C   -0.104213  -0.075623
    10  C    0.824789  -1.483959
    11  O   -0.217438   0.020743
    12  C   -0.370814   0.945692
    13  C   -0.376639  -0.310633
    14  C    0.309206  -1.015042
    15  H   -0.057869   0.204907
    16  H   -0.366629   0.509564
    17  H   -0.110949   0.284176
    18  H   -0.653266   0.825393
    19  H    0.187575  -0.025633
    20  H    0.194691  -0.008993
    21  H   -0.162255   0.332290
    22  H   -0.516942   0.670507
    23  H   -0.243283   0.411363
    24  H    0.369278  -0.078056
    25  H    0.170453   0.017933
    26  H   -0.199326   0.352404
    27  H   -0.275747   0.437860
    28  H    0.178419   0.069747
    29  H    0.116462   0.036984
    30  H    0.078334   0.068077
    31  H    0.051701   0.082977
    32  H    0.121913   0.056213
    33  H    0.061386   0.062454
    34  H    0.046970   0.082503
    35  H   -0.351942   0.502976
 Sum of Mulliken charges =  -1.00000   1.00000

 Dipole moment (field-independent basis, Debye):
    X=             -2.8680    Y=             -2.6304    Z=             -3.0339  Tot=              4.9345
 Quadrupole moment (field-independent basis, Debye-Ang):
   XX=           -177.6398   YY=           -132.5272   ZZ=           -131.5111
   XY=             -2.5006   XZ=              6.6958   YZ=              0.3270

 Summary of Natural Population Analysis:

                                       Natural Population
                Natural  -----------------------------------------------
    Atom  No    Charge         Core      Valence    Rydberg      Total
 -----------------------------------------------------------------------
      C    1   -0.29932      0.99966     2.29476    0.00491     3.29932
      C    2   -0.01595      0.99957     2.00443    0.01195     3.01595
      O    3   -0.28426      0.99986     3.27488    0.00952     4.28426
      C    4    0.41629      0.99965     1.55696    0.02710     2.58371
      O    5   -0.30776      0.99987     3.30262    0.00528     4.30776
      C    6   -0.05247      0.99955     2.04059    0.01234     3.05247
      C    7   -0.29249      0.99965     2.28685    0.00600     3.29249
      N    8   -0.34990      0.99972     2.83885    0.01133     3.84990
      C    9   -0.02094      0.99956     2.00794    0.01344     3.02094
      C   10   -0.00979      0.99957     1.99709    0.01313     3.00979
      O   11   -0.37098      0.99990     3.36497    0.00612     4.37098
      C   12   -0.11796      0.99959     2.10808    0.01029     3.11796
      C   13   -0.28774      0.99965     2.28313    0.00497     3.28774
      C   14   -0.28624      0.99965     2.28062    0.00596     3.28624
      H   15    0.10275      0.00000     0.39588    0.00137     0.39725
      H   16    0.10306      0.00000     0.39546    0.00148     0.39694
      H   17    0.10461      0.00000     0.39435    0.00105     0.39539
      H   18    0.09273      0.00000     0.40555    0.00172     0.40727
      H   19    0.09283      0.00000     0.40591    0.00125     0.40717
      H   20    0.10709      0.00000     0.39054    0.00237     0.39291
      H   21    0.10504      0.00000     0.39299    0.00198     0.39496
      H   22    0.10402      0.00000     0.39438    0.00160     0.39598
      H   23    0.10388      0.00000     0.39485    0.00127     0.39612
      H   24    0.17771      0.00000     0.31875    0.00353     0.32229
      H   25    0.09112      0.00000     0.40618    0.00270     0.40888
      H   26    0.09037      0.00000     0.40837    0.00126     0.40963
      H   27    0.07838      0.00000     0.41990    0.00172     0.42162
      H   28    0.23089      0.00000     0.26588    0.00323     0.26911
      H   29    0.09856      0.00000     0.39947    0.00197     0.40144
      H   30    0.09516      0.00000     0.40386    0.00098     0.40484
      H   31    0.09718      0.00000     0.40209    0.00073     0.40282
      H   32    0.10803      0.00000     0.39087    0.00110     0.39197
      H   33    0.09991      0.00000     0.39925    0.00084     0.40009
      H   34    0.09780      0.00000     0.40146    0.00074     0.40220
      H   35    0.09839      0.00000     0.40055    0.00106     0.40161
 =======================================================================
   * Total *    0.00000     13.99545    41.82827    0.17627    56.00000

 Normal termination of Gaussian 16 at Thu Dec 10 09:58:26 2020.
