 Gaussian 16, Revision A.03,

 -----------------------------------------------------------
 # opt freq B3LYP/6-31G(d) empiricaldispersion=gd3bj scf=xqc
 -----------------------------------------------------------

 -------------------------------
 CID_108379609_JID_9911_neutraal
 -------------------------------
 Symbolic Z-matrix:
 Charge =  0 Multiplicity = 1

 SCF Done:  E(RB3LYP) =  -860.892526724     A.U. after   15 cycles
 SCF Done:  E(RB3LYP) =  -860.901271430     A.U. after   13 cycles
 SCF Done:  E(RB3LYP) =  -860.902960491     A.U. after   13 cycles
 SCF Done:  E(RB3LYP) =  -860.903088101     A.U. after   13 cycles
 SCF Done:  E(RB3LYP) =  -860.903827701     A.U. after   12 cycles
 SCF Done:  E(RB3LYP) =  -860.903863625     A.U. after   11 cycles
 SCF Done:  E(RB3LYP) =  -860.904002269     A.U. after   10 cycles
 SCF Done:  E(RB3LYP) =  -860.904010512     A.U. after   10 cycles
 SCF Done:  E(RB3LYP) =  -860.904012515     A.U. after    9 cycles
 SCF Done:  E(RB3LYP) =  -860.904013148     A.U. after    7 cycles
 SCF Done:  E(RB3LYP) =  -860.904013311     A.U. after    7 cycles
 SCF Done:  E(RB3LYP) =  -860.904013372     A.U. after    7 cycles
 Optimization completed.
    -- Stationary point found.
 Normal termination of Gaussian 16 at Sun Dec 13 12:38:59 2020.

 --------------------------------------------------------------------
 #N Geom=AllCheck Guess=TCheck SCRF=Check GenChk RB3LYP/6-31G(d) Freq
 --------------------------------------------------------------------

 Structure from the checkpoint file:  "JID_9911.chk"
 -------------------------------
 CID_108379609_JID_9911_neutraal
 -------------------------------
 Charge =  0 Multiplicity = 1

 SCF Done:  E(RB3LYP) =  -860.904013372     A.U. after    1 cycles

  Exact polarizability: 229.070   3.387 171.400   7.358   3.596 117.720
 Approx polarizability: 300.721  10.278 281.095  15.267   7.621 171.252

                      1                      2                      3
                      A                      A                      A
 Frequencies --     24.5969                37.0881                44.1011
 Red. masses --      3.8604                 5.5802                 3.8621
 Frc consts  --      0.0014                 0.0045                 0.0044
 IR Inten    --      0.4641                 1.6398                 0.3248

                      4                      5                      6
                      A                      A                      A
 Frequencies --     55.5747               102.4311               110.7978
 Red. masses --      4.2526                 3.8418                 2.7861
 Frc consts  --      0.0077                 0.0237                 0.0202
 IR Inten    --      0.9665                 1.2737                 0.5375

                      7                      8                      9
                      A                      A                      A
 Frequencies --    139.9243               141.2110               170.8651
 Red. masses --      2.3936                 1.2538                 4.0190
 Frc consts  --      0.0276                 0.0147                 0.0691
 IR Inten    --      0.0427                 0.0470                 0.1373

                     10                     11                     12
                      A                      A                      A
 Frequencies --    178.7622               190.7360               199.0571
 Red. masses --      1.0589                 3.1737                 2.7853
 Frc consts  --      0.0199                 0.0680                 0.0650
 IR Inten    --      0.1580                 0.0373                 0.2071

                     13                     14                     15
                      A                      A                      A
 Frequencies --    211.7656               268.2692               288.9171
 Red. masses --      5.4174                 2.7677                 1.4869
 Frc consts  --      0.1431                 0.1174                 0.0731
 IR Inten    --      6.7327                 0.3223                 0.4420

                     16                     17                     18
                      A                      A                      A
 Frequencies --    317.4209               321.4976               340.0689
 Red. masses --      2.4778                 2.9687                 2.5555
 Frc consts  --      0.1471                 0.1808                 0.1741
 IR Inten    --      3.2286                 8.3496                 3.4732

                     19                     20                     21
                      A                      A                      A
 Frequencies --    349.1182               359.8359               420.9521
 Red. masses --      4.3922                 2.9686                 2.2851
 Frc consts  --      0.3154                 0.2265                 0.2386
 IR Inten    --      6.9971                 1.8303                 3.2805

                     22                     23                     24
                      A                      A                      A
 Frequencies --    441.5548               450.3940               484.4933
 Red. masses --      3.2491                 3.6273                 2.9390
 Frc consts  --      0.3732                 0.4335                 0.4065
 IR Inten    --      4.9435                 4.4867                 2.1535

                     25                     26                     27
                      A                      A                      A
 Frequencies --    494.1236               548.7780               564.3667
 Red. masses --      5.1692                 3.5420                 3.2804
 Frc consts  --      0.7436                 0.6285                 0.6156
 IR Inten    --      8.3852                34.4431                 0.6908

                     28                     29                     30
                      A                      A                      A
 Frequencies --    584.5204               616.6701               654.5748
 Red. masses --      3.3288                 3.6640                 2.5175
 Frc consts  --      0.6701                 0.8209                 0.6355
 IR Inten    --     12.1008                32.2698                52.7562

                     31                     32                     33
                      A                      A                      A
 Frequencies --    702.7758               707.2311               755.3480
 Red. masses --      6.2626                 1.8660                 5.8808
 Frc consts  --      1.8224                 0.5499                 1.9769
 IR Inten    --     27.7194                14.0301                36.3359

                     34                     35                     36
                      A                      A                      A
 Frequencies --    768.8839               770.6753               824.7931
 Red. masses --      3.2549                 3.0331                 2.3588
 Frc consts  --      1.1337                 1.0614                 0.9454
 IR Inten    --     47.3712                25.1541                 5.0418

                     37                     38                     39
                      A                      A                      A
 Frequencies --    831.6956               844.4971               848.5911
 Red. masses --      4.8405                 2.6249                 1.5282
 Frc consts  --      1.9727                 1.1029                 0.6484
 IR Inten    --      6.5328                38.7586                 6.7336

                     40                     41                     42
                      A                      A                      A
 Frequencies --    875.9180               919.4916               933.3117
 Red. masses --      1.4965                 2.2232                 1.4821
 Frc consts  --      0.6765                 1.1075                 0.7606
 IR Inten    --      2.5873                 9.7985                 9.4025

                     43                     44                     45
                      A                      A                      A
 Frequencies --    939.3366               969.9229               975.2799
 Red. masses --      3.9750                 1.6702                 1.3346
 Frc consts  --      2.0665                 0.9258                 0.7479
 IR Inten    --      8.3397                 1.8773                 0.1096

                     46                     47                     48
                      A                      A                      A
 Frequencies --    981.2091               990.0679              1006.8639
 Red. masses --      1.7378                 1.6406                 6.1492
 Frc consts  --      0.9858                 0.9475                 3.6729
 IR Inten    --      1.4809                 3.1976                13.7719

                     49                     50                     51
                      A                      A                      A
 Frequencies --   1018.8479              1041.4381              1055.1976
 Red. masses --      1.9559                 3.9137                 1.4839
 Frc consts  --      1.1962                 2.5009                 0.9734
 IR Inten    --      1.4365                44.1646                 5.6822

                     52                     53                     54
                      A                      A                      A
 Frequencies --   1086.5360              1093.4879              1113.1283
 Red. masses --      1.9233                 1.4417                 1.9461
 Frc consts  --      1.3378                 1.0157                 1.4207
 IR Inten    --     10.9671                 3.4773                 2.9331

                     55                     56                     57
                      A                      A                      A
 Frequencies --   1136.8523              1145.2009              1168.7877
 Red. masses --      2.0959                 1.7920                 2.2351
 Frc consts  --      1.5960                 1.3847                 1.7990
 IR Inten    --     16.9064                41.2752                52.1699

                     58                     59                     60
                      A                      A                      A
 Frequencies --   1185.7916              1186.5865              1204.6579
 Red. masses --      2.5363                 1.2744                 2.5622
 Frc consts  --      2.1012                 1.0572                 2.1908
 IR Inten    --      8.4112                 0.8545                 1.7754

                     61                     62                     63
                      A                      A                      A
 Frequencies --   1222.3727              1228.1945              1257.6753
 Red. masses --      1.5060                 1.4662                 1.8752
 Frc consts  --      1.3258                 1.3031                 1.7475
 IR Inten    --     13.0751                 2.5407                22.6519

                     64                     65                     66
                      A                      A                      A
 Frequencies --   1280.3600              1305.7871              1310.1385
 Red. masses --      3.3550                 1.9571                 1.2181
 Frc consts  --      3.2404                 1.9661                 1.2319
 IR Inten    --    314.7474                 1.0414                 4.8558

                     67                     68                     69
                      A                      A                      A
 Frequencies --   1330.0608              1342.1214              1356.4795
 Red. masses --      2.5330                 4.2955                 1.2770
 Frc consts  --      2.6402                 4.5587                 1.3844
 IR Inten    --    234.4662                25.5301                 1.9224

                     70                     71                     72
                      A                      A                      A
 Frequencies --   1365.0627              1380.5761              1386.4629
 Red. masses --      1.6451                 1.3576                 1.2784
 Frc consts  --      1.8061                 1.5245                 1.4478
 IR Inten    --     17.4142                 1.5026                 0.3038

                     73                     74                     75
                      A                      A                      A
 Frequencies --   1400.6854              1407.1299              1433.7663
 Red. masses --      1.3649                 1.4331                 1.2815
 Frc consts  --      1.5777                 1.6718                 1.5521
 IR Inten    --      5.6746                 0.0678                 5.4059

                     76                     77                     78
                      A                      A                      A
 Frequencies --   1436.8252              1441.8522              1474.0828
 Red. masses --      1.3046                 1.3125                 1.9323
 Frc consts  --      1.5869                 1.6076                 2.4739
 IR Inten    --      1.9798                24.7771               147.2829

                     79                     80                     81
                      A                      A                      A
 Frequencies --   1483.5864              1496.8972              1510.9443
 Red. masses --      1.9084                 1.5774                 1.0658
 Frc consts  --      2.4749                 2.0824                 1.4336
 IR Inten    --     93.3738               128.0113                 0.0680

                     82                     83                     84
                      A                      A                      A
 Frequencies --   1512.0595              1516.0055              1519.8919
 Red. masses --      1.0479                 1.0911                 1.0736
 Frc consts  --      1.4115                 1.4775                 1.4612
 IR Inten    --      6.1182                 4.1639                 4.6726

                     85                     86                     87
                      A                      A                      A
 Frequencies --   1523.9746              1524.6899              1530.9091
 Red. masses --      1.0486                 1.0507                 1.1385
 Frc consts  --      1.4349                 1.4390                 1.5722
 IR Inten    --      6.4079                 5.1031                11.2662

                     88                     89                     90
                      A                      A                      A
 Frequencies --   1540.1869              1548.6837              1552.8358
 Red. masses --      1.0695                 1.0832                 1.9588
 Frc consts  --      1.4949                 1.5306                 2.7829
 IR Inten    --     12.7390                 1.7724                38.5146

                     91                     92                     93
                      A                      A                      A
 Frequencies --   1622.8349              1664.1937              1807.8819
 Red. masses --      6.1455                 6.2429                11.7590
 Frc consts  --      9.5358                10.1870                22.6444
 IR Inten    --    129.8854               159.1089               155.9317

                     94                     95                     96
                      A                      A                      A
 Frequencies --   3023.9826              3030.4140              3048.4504
 Red. masses --      1.0677                 1.0662                 1.0623
 Frc consts  --      5.7526                 5.7687                 5.8164
 IR Inten    --     18.6128                27.8334                16.7345

                     97                     98                     99
                      A                      A                      A
 Frequencies --   3061.8649              3064.6581              3070.5412
 Red. masses --      1.0397                 1.0471                 1.0817
 Frc consts  --      5.7428                 5.7944                 6.0090
 IR Inten    --      4.8381                24.8524                19.1257

                    100                    101                    102
                      A                      A                      A
 Frequencies --   3075.6996              3076.8838              3078.3706
 Red. masses --      1.0296                 1.0953                 1.0902
 Frc consts  --      5.7387                 6.1093                 6.0867
 IR Inten    --     39.4848                48.8866                57.5782

                    103                    104                    105
                      A                      A                      A
 Frequencies --   3087.7111              3092.6416              3126.8596
 Red. masses --      1.1043                 1.0859                 1.1000
 Frc consts  --      6.2032                 6.1195                 6.3366
 IR Inten    --     59.3975                 8.3463                59.6397

                    106                    107                    108
                      A                      A                      A
 Frequencies --   3132.8526              3145.0410              3149.8281
 Red. masses --      1.0982                 1.1028                 1.1074
 Frc consts  --      6.3507                 6.4272                 6.4734
 IR Inten    --     13.9031                 6.6109                20.8051

                    109                    110                    111
                      A                      A                      A
 Frequencies --   3159.2907              3173.1306              3183.3548
 Red. masses --      1.0995                 1.0902                 1.1071
 Frc consts  --      6.4660                 6.4674                 6.6101
 IR Inten    --     47.1319                38.6670                18.7726

                    112                    113                    114
                      A                      A                      A
 Frequencies --   3250.3745              3266.5264              3469.3821
 Red. masses --      1.0928                 1.0907                 1.0741
 Frc consts  --      6.8023                 6.8568                 7.6170
 IR Inten    --      2.6783                 1.2810                13.4087

 - Thermochemistry -
 -------------------
 Temperature   298.150 Kelvin.  Pressure   1.00000 Atm.
 Atom     1 has atomic number  6 and mass  12.00000

 Molecular mass:   263.16338 amu.
 Principal axes and moments of inertia in atomic units:
                           1         2         3
     Eigenvalues --  2463.356719594.02790**********
           X            1.00000   0.00309   0.00031
           Y           -0.00309   0.99998   0.00481
           Z           -0.00029  -0.00481   0.99999
 This molecule is an asymmetric top.
 Rotational symmetry number  1.
 Warning -- assumption of classical behavior for rotation
           may cause significant error
 Rotational temperatures (Kelvin)      0.03516     0.00903     0.00807
 Rotational constants (GHZ):           0.73263     0.18811     0.16816
 Zero-point vibrational energy     907235.5 (Joules/Mol)
                                  216.83450 (Kcal/Mol)
 Warning -- explicit consideration of  29 degrees of freedom as
           vibrations may cause significant error
 Vibrational temperatures:     35.39    53.36    63.45    79.96   147.38
          (Kelvin)            159.41   201.32   203.17   245.84   257.20
                              274.43   286.40   304.68   385.98   415.69
                              456.70   462.56   489.28   502.30   517.72
                              605.66   635.30   648.02   697.08   710.93
                              789.57   812.00   840.99   887.25   941.79
                             1011.14  1017.55  1086.78  1106.25  1108.83
                             1186.69  1196.62  1215.04  1220.93  1260.25
                             1322.94  1342.83  1351.50  1395.50  1403.21
                             1411.74  1424.49  1448.65  1465.89  1498.40
                             1518.19  1563.28  1573.29  1601.54  1635.68
                             1647.69  1681.62  1706.09  1707.23  1733.23
                             1758.72  1767.10  1809.51  1842.15  1878.74
                             1885.00  1913.66  1931.01  1951.67  1964.02
                             1986.34  1994.81  2015.27  2024.55  2062.87
                             2067.27  2074.50  2120.88  2134.55  2153.70
                             2173.91  2175.52  2181.19  2186.79  2192.66
                             2193.69  2202.64  2215.99  2228.21  2234.18
                             2334.90  2394.40  2601.14  4350.84  4360.09
                             4386.04  4405.34  4409.36  4417.82  4425.25
                             4426.95  4429.09  4442.53  4449.62  4498.85
                             4507.48  4525.01  4531.90  4545.51  4565.43
                             4580.14  4676.56  4699.80  4991.67

 Zero-point correction=                           0.345548 (Hartree/Particle)
 Thermal correction to Energy=                    0.364009
 Thermal correction to Enthalpy=                  0.364954
 Thermal correction to Gibbs Free Energy=         0.297981
 Sum of electronic and zero-point Energies=           -860.558466
 Sum of electronic and thermal Energies=              -860.540004
 Sum of electronic and thermal Enthalpies=            -860.539060
 Sum of electronic and thermal Free Energies=         -860.606033

                     E (Thermal)             CV                S
                      KCal/Mol        Cal/Mol-Kelvin    Cal/Mol-Kelvin
 Total                  228.419             70.701            140.956
 Electronic               0.000              0.000              0.000
 Translational            0.889              2.981             42.602
 Rotational               0.889              2.981             33.894
 Vibrational            226.642             64.739             64.460
 Vibration     1          0.593              1.985              6.223
 Vibration     2          0.594              1.982              5.409
 Vibration     3          0.595              1.980              5.066
 Vibration     4          0.596              1.975              4.608
 Vibration     5          0.604              1.947              3.408
 Vibration     6          0.607              1.941              3.255
 Vibration     7          0.615              1.913              2.805
 Vibration     8          0.615              1.912              2.787
 Vibration     9          0.626              1.878              2.426
 Vibration    10          0.629              1.868              2.341
 Vibration    11          0.634              1.853              2.221
 Vibration    12          0.637              1.841              2.142
 Vibration    13          0.643              1.823              2.028
 Vibration    14          0.673              1.731              1.607
 Vibration    15          0.685              1.694              1.480
 Vibration    16          0.704              1.640              1.323
 Vibration    17          0.707              1.632              1.302
 Vibration    18          0.720              1.595              1.212
 Vibration    19          0.726              1.577              1.170
 Vibration    20          0.734              1.555              1.123
 Vibration    21          0.783              1.425              0.889
 Vibration    22          0.801              1.380              0.822
 Vibration    23          0.809              1.360              0.795
 Vibration    24          0.841              1.284              0.698
 Vibration    25          0.850              1.263              0.673
 Vibration    26          0.904              1.142              0.547
 Vibration    27          0.920              1.108              0.515
 Vibration    28          0.941              1.065              0.477
 Vibration    29          0.976              0.997              0.422

                           ! Non-Optimized Parameters !
 Normal termination of Gaussian 16 at Sun Dec 13 13:00:30 2020.

 ----------------------------------------------------------------------
 # B3LYP/6-311++G(d,p) empiricaldispersion=gd3bj scf=xqc pop=npa geom=c
 heck
 ----------------------------------------------------------------------

 ---------------------------------------
 CID_108379609_JID_9911_Energie_neutraal
 ---------------------------------------
 Structure from the checkpoint file:  "JID_9911.chk"
 Charge =  0 Multiplicity = 1

 SCF Done:  E(RB3LYP) =  -861.141166693     A.U. after   16 cycles
 Normal termination of Gaussian 16 at Sun Dec 13 13:11:07 2020.

 ----------------------------------------------------------------------
 # B3LYP/6-311++G(d,p) empiricaldispersion=gd3bj scf=xqc pop=npa geom=c
 heck
 ----------------------------------------------------------------------

 -------------------------------------
 CID_108379609_JID_9911_Energie_kation
 -------------------------------------
 Structure from the checkpoint file:  "JID_9911.chk"
 Charge =  1 Multiplicity = 2

 SCF Done:  E(UB3LYP) =  -860.860428233     A.U. after   25 cycles
 Normal termination of Gaussian 16 at Sun Dec 13 13:35:44 2020.
 Gaussian 16:  ES64L-G16RevA.03 25-Dec-2016

 ----------------------------------------------------------------------
 # B3LYP/6-311++G(d,p) empiricaldispersion=gd3bj scf=xqc pop=npa geom=c
 heck
 ----------------------------------------------------------------------

 ------------------------------------
 CID_108379609_JID_9911_Energie_anion
 ------------------------------------
 Structure from the checkpoint file:  "JID_9911.chk"
 Charge = -1 Multiplicity = 2

                         Standard orientation:
 ---------------------------------------------------------------------
 Center     Atomic      Atomic             Coordinates (Angstroms)
 Number     Number       Type             X           Y           Z
 ---------------------------------------------------------------------
      1          6           0       -2.888790   -1.980335   -1.437465
      2          6           0       -2.707395   -0.468792   -1.258368
      3          6           0       -4.040937    0.266106   -1.010171
      4          6           0       -4.542758    0.074395    0.427105
      5          6           0       -3.464799    0.515298    1.426200
      6          6           0       -2.131259   -0.223223    1.193616
      7          7           0       -1.689947   -0.147863   -0.226707
      8          7           0       -1.111509    1.104778   -0.510880
      9          6           0        0.248091    1.253461   -0.287034
     10          7           0        0.664370    2.520213   -0.131122
     11          6           0        1.976357    2.728077    0.028147
     12          6           0        2.930436    1.716591    0.061427
     13          6           0        2.476259    0.397499   -0.084906
     14          6           0        1.120744    0.151541   -0.264320
     15          6           0        3.396441   -0.777810   -0.053683
     16          8           0        3.041366   -1.934538   -0.157021
     17          8           0        4.687155   -0.411211    0.105564
     18          6           0        5.625700   -1.495630    0.144955
     19          6           0       -2.150517   -1.663339    1.717090
     20          1           0       -3.479905   -2.441442   -0.642704
     21          1           0       -1.914532   -2.476205   -1.470782
     22          1           0       -3.409257   -2.171992   -2.382416
     23          1           0       -2.267248   -0.086413   -2.183018
     24          1           0       -3.895938    1.339831   -1.195329
     25          1           0       -4.790068   -0.075451   -1.734823
     26          1           0       -4.807795   -0.976566    0.598060
     27          1           0       -5.460858    0.652001    0.585935
     28          1           0       -3.796738    0.357631    2.459499
     29          1           0       -3.303897    1.597697    1.317325
     30          1           0       -1.341602    0.296192    1.746548
     31          1           0       -1.637940    1.937419   -0.247851
     32          1           0        2.276409    3.767794    0.146125
     33          1           0        3.980469    1.936326    0.203958
     34          1           0        0.745079   -0.855516   -0.380146
     35          1           0        5.400348   -2.166830    0.977854
     36          1           0        5.591404   -2.065285   -0.787401
     37          1           0        6.603125   -1.031470    0.277354
     38          1           0       -1.239212   -2.186817    1.414755
     39          1           0       -2.196965   -1.649697    2.811773
     40          1           0       -3.008881   -2.238144    1.362352
 ---------------------------------------------------------------------

 SCF Done:  E(UB3LYP) =  -861.146907639     A.U. after   33 cycles
 SCF Done:  E(UB3LYP) =  -861.146907639     a.u. after    1 cycles

 The electronic state is 2-A.
 Alpha  occ. eigenvalues --  -19.02844 -18.95068 -14.22401 -14.21672 -14.14701
 Alpha  occ. eigenvalues --  -10.13348 -10.11285 -10.10040 -10.09980 -10.09248
 Alpha  occ. eigenvalues --  -10.07663 -10.07422 -10.07299 -10.06526 -10.06263
 Alpha  occ. eigenvalues --  -10.05624 -10.02901 -10.02308 -10.01480  -0.96610
 Alpha  occ. eigenvalues --   -0.88593  -0.87071  -0.80051  -0.73884  -0.68861
 Alpha  occ. eigenvalues --   -0.67916  -0.66299  -0.62578  -0.60750  -0.58535
 Alpha  occ. eigenvalues --   -0.58413  -0.52679  -0.51285  -0.50569  -0.48161
 Alpha  occ. eigenvalues --   -0.44625  -0.43359  -0.41442  -0.40437  -0.38444
 Alpha  occ. eigenvalues --   -0.36032  -0.35773  -0.35541  -0.35050  -0.34183
 Alpha  occ. eigenvalues --   -0.33627  -0.32950  -0.31445  -0.31048  -0.30429
 Alpha  occ. eigenvalues --   -0.30100  -0.29560  -0.29167  -0.27990  -0.27632
 Alpha  occ. eigenvalues --   -0.27075  -0.26011  -0.25381  -0.24518  -0.24471
 Alpha  occ. eigenvalues --   -0.23646  -0.22559  -0.21917  -0.21870  -0.17757
 Alpha  occ. eigenvalues --   -0.17622  -0.14063  -0.13569  -0.12283  -0.12051
 Alpha  occ. eigenvalues --   -0.08330   0.04340
 Alpha virt. eigenvalues --    0.05647   0.07441   0.07688   0.07863   0.08719
 Alpha virt. eigenvalues --    0.09904   0.10132   0.10216   0.11216   0.11389
 Alpha virt. eigenvalues --    0.11430   0.12085   0.12480   0.12860   0.13309

  Beta  occ. eigenvalues --  -19.02754 -18.94770 -14.22399 -14.21679 -14.14326
  Beta  occ. eigenvalues --  -10.13112 -10.11290 -10.10040 -10.09979 -10.09270
  Beta  occ. eigenvalues --  -10.07648 -10.07419 -10.07290 -10.06522 -10.06255
  Beta  occ. eigenvalues --  -10.05599 -10.02661 -10.02269 -10.01315  -0.96317
  Beta  occ. eigenvalues --   -0.88575  -0.86603  -0.79667  -0.73792  -0.68851
  Beta  occ. eigenvalues --   -0.67859  -0.65745  -0.62496  -0.60597  -0.58480
  Beta  occ. eigenvalues --   -0.58226  -0.52637  -0.51257  -0.49980  -0.48046
  Beta  occ. eigenvalues --   -0.44434  -0.43308  -0.41380  -0.40295  -0.38419
  Beta  occ. eigenvalues --   -0.35767  -0.35650  -0.35467  -0.34936  -0.33945
  Beta  occ. eigenvalues --   -0.33616  -0.32790  -0.31432  -0.30828  -0.30385
  Beta  occ. eigenvalues --   -0.30040  -0.29441  -0.29064  -0.27870  -0.26867
  Beta  occ. eigenvalues --   -0.26682  -0.25844  -0.24776  -0.24508  -0.24358
  Beta  occ. eigenvalues --   -0.23431  -0.22516  -0.21888  -0.21744  -0.17247
  Beta  occ. eigenvalues --   -0.16694  -0.13247  -0.12277  -0.12218  -0.11642
  Beta  occ. eigenvalues --   -0.07544
  Beta virt. eigenvalues --    0.06036   0.07513   0.07772   0.07857   0.08785
  Beta virt. eigenvalues --    0.09780   0.09884   0.10158   0.10285   0.11259
  Beta virt. eigenvalues --    0.11355   0.11402   0.12074   0.12462   0.12863

 Mulliken charges and spin densities:
               1          2
     1  C   -0.304179  -0.186461
     2  C   -0.267160   0.130380
     3  C   -0.270382  -0.061794
     4  C    0.174336  -0.612314
     5  C   -0.607479   0.210480
     6  C   -0.061438  -0.042686
     7  N    0.595412   0.002612
     8  N   -0.326781   0.008004
     9  C   -0.823856  -0.123735
    10  N   -0.108575   0.172895
    11  C   -0.235855   0.002748
    12  C   -0.208183   0.133350
    13  C    0.741996   0.156822
    14  C   -0.245610   0.239708
    15  C   -0.430963   0.085903
    16  O   -0.341478   0.104909
    17  O   -0.128919   0.017468
    18  C   -0.234762  -0.003369
    19  C   -0.272113  -0.279536
    20  H    0.096673   0.032228
    21  H    0.180220  -0.019013
    22  H    0.055600   0.072366
    23  H    0.215558  -0.000285
    24  H    0.077883   0.073821
    25  H   -0.031051   0.185474
    26  H    0.050544   0.072788
    27  H   -0.274852   0.450602
    28  H    0.058335   0.087895
    29  H    0.128984   0.018659
    30  H    0.233427  -0.006668
    31  H    0.259288  -0.031192
    32  H    0.134041  -0.004281
    33  H    0.158467  -0.000238
    34  H    0.260049  -0.001631
    35  H    0.158850   0.002054
    36  H    0.157021   0.003497
    37  H    0.112703  -0.000618
    38  H    0.148706   0.018826
    39  H    0.053318   0.074571
    40  H    0.122225   0.015758
 Sum of Mulliken charges =  -1.00000   1.00000

 Dipole moment (field-independent basis, Debye):
    X=             -2.0124    Y=             -1.5457    Z=              0.7990  Tot=              2.6603
 Quadrupole moment (field-independent basis, Debye-Ang):
   XX=           -172.2841   YY=           -145.8088   ZZ=           -128.7810
   XY=              1.0255   XZ=              1.8095   YZ=              0.9647

 Summary of Natural Population Analysis:

                                       Natural Population
                Natural  -----------------------------------------------
    Atom  No    Charge         Core      Valence    Rydberg      Total
 -----------------------------------------------------------------------
      C    1   -0.28942      0.99964     2.28492    0.00486     3.28942
      C    2   -0.00821      0.99959     1.99494    0.01369     3.00821
      C    3   -0.20009      0.99961     2.19096    0.00952     3.20009
      C    4   -0.19527      0.99963     2.18666    0.00899     3.19527
      C    5   -0.20003      0.99961     2.19121    0.00922     3.20003
      C    6   -0.01245      0.99958     2.00050    0.01237     3.01245
      N    7   -0.19006      0.99969     2.67585    0.01452     3.69006
      N    8   -0.23630      0.99965     2.72164    0.01501     3.73630
      C    9    0.18672      0.99954     1.79866    0.01508     2.81328
      N   10   -0.21512      0.99967     2.70525    0.01020     3.71512
      C   11    0.02311      0.99961     1.96267    0.01461     2.97689
      C   12   -0.12530      0.99953     2.11729    0.00848     3.12530
      C   13   -0.01332      0.99946     2.00414    0.00973     3.01332
      C   14   -0.09316      0.99948     2.08680    0.00688     3.09316
      C   15    0.42714      0.99965     1.54983    0.02339     2.57286
      O   16   -0.29564      0.99987     3.28994    0.00583     4.29564
      O   17   -0.27899      0.99986     3.27051    0.00862     4.27899
      C   18   -0.10513      0.99961     2.09683    0.00869     3.10513
      C   19   -0.28940      0.99964     2.28467    0.00510     3.28940
      H   20    0.09332      0.00000     0.40561    0.00108     0.40668
      H   21    0.10746      0.00000     0.39146    0.00108     0.39254
      H   22    0.09613      0.00000     0.40307    0.00080     0.40387
      H   23    0.10557      0.00000     0.39339    0.00104     0.39443
      H   24    0.09666      0.00000     0.40213    0.00120     0.40334
      H   25    0.09871      0.00000     0.40039    0.00090     0.40129
      H   26    0.09308      0.00000     0.40583    0.00109     0.40692
      H   27    0.09911      0.00000     0.39973    0.00115     0.40089
      H   28    0.09918      0.00000     0.39999    0.00083     0.40082
      H   29    0.09496      0.00000     0.40350    0.00154     0.40504
      H   30    0.10485      0.00000     0.39355    0.00160     0.39515
      H   31    0.17309      0.00000     0.32230    0.00461     0.32691
      H   32    0.07821      0.00000     0.42044    0.00135     0.42179
      H   33    0.10215      0.00000     0.39685    0.00100     0.39785
      H   34    0.11385      0.00000     0.38493    0.00121     0.38615
      H   35    0.08697      0.00000     0.41174    0.00129     0.41303
      H   36    0.08698      0.00000     0.41174    0.00128     0.41302
      H   37    0.08159      0.00000     0.41754    0.00087     0.41841
      H   38    0.10996      0.00000     0.38880    0.00124     0.39004
      H   39    0.09679      0.00000     0.40232    0.00089     0.40321
      H   40    0.09231      0.00000     0.40665    0.00104     0.40769
 =======================================================================
   * Total *    0.00000     18.99292    51.77523    0.23186    71.00000

 Normal termination of Gaussian 16 at Sun Dec 13 14:07:51 2020.
