 Gaussian 16, Revision A.03,

 -----------------------------------------------------------
 # opt freq B3LYP/6-31G(d) empiricaldispersion=gd3bj scf=xqc
 -----------------------------------------------------------

 -------------------------------
 CID_114974975_JID_2929_neutraal
 -------------------------------
 Symbolic Z-matrix:
 Charge =  0 Multiplicity = 1

 SCF Done:  E(RB3LYP) =  -541.149902830     A.U. after   14 cycles
 SCF Done:  E(RB3LYP) =  -541.153652015     A.U. after   13 cycles
 SCF Done:  E(RB3LYP) =  -541.152956837     A.U. after   13 cycles
 SCF Done:  E(RB3LYP) =  -541.154818867     A.U. after   12 cycles
 SCF Done:  E(RB3LYP) =  -541.155184966     A.U. after   12 cycles
 SCF Done:  E(RB3LYP) =  -541.156376376     A.U. after   14 cycles
 SCF Done:  E(RB3LYP) =  -541.157272510     A.U. after   12 cycles
 SCF Done:  E(RB3LYP) =  -541.154792919     A.U. after   15 cycles
 SCF Done:  E(RB3LYP) =  -541.148003698     A.U. after   13 cycles
 SCF Done:  E(RB3LYP) =  -541.158523591     A.U. after   13 cycles
 SCF Done:  E(RB3LYP) =  -541.160000114     A.U. after    9 cycles
 SCF Done:  E(RB3LYP) =  -541.160004787     A.U. after   10 cycles
 SCF Done:  E(RB3LYP) =  -541.160006775     A.U. after   10 cycles
 SCF Done:  E(RB3LYP) =  -541.160008550     A.U. after   10 cycles
 SCF Done:  E(RB3LYP) =  -541.160008781     A.U. after    8 cycles
 SCF Done:  E(RB3LYP) =  -541.160008809     A.U. after    7 cycles
 Optimization completed.
    -- Stationary point found.
 Normal termination of Gaussian 16 at Wed Dec  9 18:22:01 2020.

 --------------------------------------------------------------------
 #N Geom=AllCheck Guess=TCheck SCRF=Check GenChk RB3LYP/6-31G(d) Freq
 --------------------------------------------------------------------

 Structure from the checkpoint file:  "JID_2929.chk"
 -------------------------------
 CID_114974975_JID_2929_neutraal
 -------------------------------
 Charge =  0 Multiplicity = 1

 SCF Done:  E(RB3LYP) =  -541.160008809     A.U. after    1 cycles

  Exact polarizability: 119.585  10.623 105.813  -3.254   0.564  92.221
 Approx polarizability: 146.545  14.939 158.282  -3.020  -3.770 143.256

                      1                      2                      3
                      A                      A                      A
 Frequencies --     11.8413                36.3598                51.1373
 Red. masses --      4.8532                 3.2252                 3.1640
 Frc consts  --      0.0004                 0.0025                 0.0049
 IR Inten    --      0.2632                 0.3702                 0.8203

                      4                      5                      6
                      A                      A                      A
 Frequencies --     76.3957               120.7635               162.7461
 Red. masses --      3.1147                 3.3252                 2.9264
 Frc consts  --      0.0107                 0.0286                 0.0457
 IR Inten    --      0.6622                 2.7027                 1.3411

                      7                      8                      9
                      A                      A                      A
 Frequencies --    187.2418               230.6973               254.7556
 Red. masses --      2.7280                 1.9024                 1.2730
 Frc consts  --      0.0564                 0.0597                 0.0487
 IR Inten    --      1.6744                 5.0099                 3.3642

                     10                     11                     12
                      A                      A                      A
 Frequencies --    278.8583               312.6019               348.8542
 Red. masses --      1.9808                 2.9722                 3.8030
 Frc consts  --      0.0908                 0.1711                 0.2727
 IR Inten    --      0.8936                 0.6675                 6.4555

                     13                     14                     15
                      A                      A                      A
 Frequencies --    363.2297               442.7131               454.6291
 Red. masses --      2.2993                 1.9532                 3.0319
 Frc consts  --      0.1787                 0.2256                 0.3692
 IR Inten    --      0.2621                 4.3025                 7.4003

                     16                     17                     18
                      A                      A                      A
 Frequencies --    563.7309               603.1815               642.0704
 Red. masses --      2.6149                 2.2394                 2.4283
 Frc consts  --      0.4896                 0.4800                 0.5898
 IR Inten    --      1.3756                 0.5713                10.8518

                     19                     20                     21
                      A                      A                      A
 Frequencies --    682.0586               710.8693               791.2581
 Red. masses --      2.7708                 2.3302                 2.1230
 Frc consts  --      0.7594                 0.6938                 0.7831
 IR Inten    --     11.1155                 3.6222                 4.2334

                     22                     23                     24
                      A                      A                      A
 Frequencies --    857.2035               872.9160               891.1721
 Red. masses --      2.6318                 2.8714                 2.1428
 Frc consts  --      1.1394                 1.2891                 1.0027
 IR Inten    --      2.9536                10.5390                15.0743

                     25                     26                     27
                      A                      A                      A
 Frequencies --    908.4522               934.1431               942.3283
 Red. masses --      1.9960                 1.9627                 1.3570
 Frc consts  --      0.9706                 1.0091                 0.7099
 IR Inten    --     18.1755                 0.6334                38.4412

                     28                     29                     30
                      A                      A                      A
 Frequencies --    954.8451              1005.8245              1016.0451
 Red. masses --      2.2404                 1.9967                 1.9958
 Frc consts  --      1.2035                 1.1902                 1.2140
 IR Inten    --      0.4648                 8.2414                 2.5774

                     31                     32                     33
                      A                      A                      A
 Frequencies --   1026.9914              1033.6844              1051.5642
 Red. masses --      1.8695                 2.1590                 1.1830
 Frc consts  --      1.1617                 1.3592                 0.7707
 IR Inten    --     11.2076                 6.8737                 7.2274

                     34                     35                     36
                      A                      A                      A
 Frequencies --   1071.4448              1103.5638              1111.8916
 Red. masses --      1.7139                 2.2522                 2.4865
 Frc consts  --      1.1592                 1.6160                 1.8112
 IR Inten    --     63.5246                36.5121                32.9406

                     37                     38                     39
                      A                      A                      A
 Frequencies --   1150.6852              1155.9695              1169.6957
 Red. masses --      2.3597                 2.4335                 2.1605
 Frc consts  --      1.8409                 1.9159                 1.7416
 IR Inten    --     21.0983                32.6427                55.7265

                     40                     41                     42
                      A                      A                      A
 Frequencies --   1209.2081              1233.6770              1254.5201
 Red. masses --      1.3222                 1.3702                 1.2147
 Frc consts  --      1.1390                 1.2287                 1.1264
 IR Inten    --      7.7197                11.1517                13.1950

                     43                     44                     45
                      A                      A                      A
 Frequencies --   1276.7837              1289.7052              1325.5920
 Red. masses --      1.3417                 1.3128                 1.3355
 Frc consts  --      1.2887                 1.2865                 1.3827
 IR Inten    --      9.5938                 5.0136                 8.5877

                     46                     47                     48
                      A                      A                      A
 Frequencies --   1330.6898              1352.9869              1371.9677
 Red. masses --      1.2307                 1.2889                 1.3646
 Frc consts  --      1.2840                 1.3901                 1.5133
 IR Inten    --      1.0553                 5.1007                 1.9314

                     49                     50                     51
                      A                      A                      A
 Frequencies --   1380.7412              1391.6476              1408.2773
 Red. masses --      1.2870                 1.3876                 1.5846
 Frc consts  --      1.4456                 1.5833                 1.8516
 IR Inten    --      2.3911                17.1162                19.3170

                     52                     53                     54
                      A                      A                      A
 Frequencies --   1415.2341              1433.3125              1474.4472
 Red. masses --      1.3934                 1.2737                 1.1746
 Frc consts  --      1.6443                 1.5417                 1.5046
 IR Inten    --     10.3977                13.8863                 1.2213

                     55                     56                     57
                      A                      A                      A
 Frequencies --   1485.9238              1509.8358              1515.8985
 Red. masses --      1.0866                 1.1227                 1.0501
 Frc consts  --      1.4136                 1.5079                 1.4218
 IR Inten    --     10.2938                14.8562                 1.6057

                     58                     59                     60
                      A                      A                      A
 Frequencies --   1523.8504              1524.7536              1552.8950
 Red. masses --      1.0873                 1.0547                 1.0958
 Frc consts  --      1.4876                 1.4447                 1.5569
 IR Inten    --      5.1004                 2.7421                 0.6243

                     61                     62                     63
                      A                      A                      A
 Frequencies --   1734.2522              1806.8415              2993.3950
 Red. masses --      4.4815                10.7295                 1.0728
 Frc consts  --      7.9415                20.6381                 5.6636
 IR Inten    --      5.6422               116.2778                78.9335

                     64                     65                     66
                      A                      A                      A
 Frequencies --   3024.6561              3049.2998              3053.7276
 Red. masses --      1.0673                 1.0383                 1.0857
 Frc consts  --      5.7531                 5.6881                 5.9650
 IR Inten    --     17.7894                 9.6009                17.4318

                     67                     68                     69
                      A                      A                      A
 Frequencies --   3058.6053              3059.9677              3082.4455
 Red. masses --      1.0594                 1.0827                 1.0941
 Frc consts  --      5.8395                 5.9730                 6.1247
 IR Inten    --     20.8082                24.2352                18.1216

                     70                     71                     72
                      A                      A                      A
 Frequencies --   3087.4657              3103.8986              3115.5844
 Red. masses --      1.0603                 1.1033                 1.1006
 Frc consts  --      5.9550                 6.2627                 6.2947
 IR Inten    --     20.7110                17.3136                52.6010

                     73                     74                     75
                      A                      A                      A
 Frequencies --   3118.9549              3135.0405              3139.3966
 Red. masses --      1.0936                 1.1025                 1.1059
 Frc consts  --      6.2679                 6.3845                 6.4217
 IR Inten    --     22.6062                17.9971                20.4214

                     76                     77                     78
                      A                      A                      A
 Frequencies --   3152.3665              3169.4770              3234.5806
 Red. masses --      1.0591                 1.0918                 1.1150
 Frc consts  --      6.2008                 6.4622                 6.8734
 IR Inten    --     14.1148                 5.4766                19.2768

 - Thermochemistry -
 -------------------
 Temperature   298.150 Kelvin.  Pressure   1.00000 Atm.
 Atom     1 has atomic number  6 and mass  12.00000

 Molecular mass:   168.11503 amu.
 Principal axes and moments of inertia in atomic units:
                           1         2         3
     Eigenvalues --  1212.328343210.554783685.91756
           X            0.99992   0.01197   0.00381
           Y           -0.01191   0.99980  -0.01590
           Z           -0.00400   0.01585   0.99987
 This molecule is an asymmetric top.
 Rotational symmetry number  1.
 Warning -- assumption of classical behavior for rotation
           may cause significant error
 Rotational temperatures (Kelvin)      0.07144     0.02698     0.02350
 Rotational constants (GHZ):           1.48866     0.56213     0.48963
 Zero-point vibrational energy     645782.0 (Joules/Mol)
                                  154.34560 (Kcal/Mol)
 Warning -- explicit consideration of  17 degrees of freedom as
           vibrations may cause significant error
 Vibrational temperatures:     17.04    52.31    73.58   109.92   173.75
          (Kelvin)            234.16   269.40   331.92   366.54   401.21
                              449.76   501.92   522.61   636.97   654.11
                              811.08   867.84   923.80   981.33  1022.78
                             1138.44  1233.32  1255.93  1282.20  1307.06
                             1344.02  1355.80  1373.81  1447.16  1461.86
                             1477.61  1487.24  1512.97  1541.57  1587.78
                             1599.76  1655.58  1663.18  1682.93  1739.78
                             1774.99  1804.97  1837.01  1855.60  1907.23
                             1914.57  1946.65  1973.96  1986.58  2002.27
                             2026.20  2036.21  2062.22  2121.40  2137.91
                             2172.32  2181.04  2192.48  2193.78  2234.27
                             2495.20  2599.64  4306.83  4351.81  4387.26
                             4393.63  4400.65  4402.61  4434.95  4442.17
                             4465.82  4482.63  4487.48  4510.62  4516.89
                             4535.55  4560.17  4653.84

 Zero-point correction=                           0.245965 (Hartree/Particle)
 Thermal correction to Energy=                    0.258811
 Thermal correction to Enthalpy=                  0.259755
 Thermal correction to Gibbs Free Energy=         0.204304
 Sum of electronic and zero-point Energies=           -540.914043
 Sum of electronic and thermal Energies=              -540.901198
 Sum of electronic and thermal Enthalpies=            -540.900253
 Sum of electronic and thermal Free Energies=         -540.955705

                     E (Thermal)             CV                S
                      KCal/Mol        Cal/Mol-Kelvin    Cal/Mol-Kelvin
 Total                  162.406             46.918            116.707
 Electronic               0.000              0.000              0.000
 Translational            0.889              2.981             41.266
 Rotational               0.889              2.981             31.040
 Vibrational            160.629             40.956             44.401
 Vibration     1          0.593              1.987              7.675
 Vibration     2          0.594              1.982              5.448
 Vibration     3          0.595              1.977              4.773
 Vibration     4          0.599              1.965              3.981
 Vibration     5          0.609              1.932              3.088
 Vibration     6          0.623              1.888              2.518
 Vibration     7          0.632              1.857              2.255
 Vibration     8          0.652              1.794              1.874
 Vibration     9          0.665              1.755              1.697
 Vibration    10          0.679              1.713              1.541
 Vibration    11          0.701              1.650              1.349
 Vibration    12          0.726              1.578              1.171
 Vibration    13          0.737              1.548              1.108
 Vibration    14          0.802              1.377              0.818
 Vibration    15          0.813              1.351              0.782
 Vibration    16          0.920              1.110              0.516
 Vibration    17          0.962              1.025              0.444

                           ! Non-Optimized Parameters !
 Normal termination of Gaussian 16 at Wed Dec  9 18:28:27 2020.

 ----------------------------------------------------------------------
 # B3LYP/6-311++G(d,p) empiricaldispersion=gd3bj scf=xqc pop=npa geom=c
 heck
 ----------------------------------------------------------------------

 ---------------------------------------
 CID_114974975_JID_2929_Energie_neutraal
 ---------------------------------------
 Structure from the checkpoint file:  "JID_2929.chk"
 Charge =  0 Multiplicity = 1

 SCF Done:  E(RB3LYP) =  -541.316537517     A.U. after   15 cycles
 Normal termination of Gaussian 16 at Wed Dec  9 18:30:51 2020.

 ----------------------------------------------------------------------
 # B3LYP/6-311++G(d,p) empiricaldispersion=gd3bj scf=xqc pop=npa geom=c
 heck
 ----------------------------------------------------------------------

 -------------------------------------
 CID_114974975_JID_2929_Energie_kation
 -------------------------------------
 Structure from the checkpoint file:  "JID_2929.chk"
 Charge =  1 Multiplicity = 2

 SCF Done:  E(UB3LYP) =  -540.994370431     A.U. after   24 cycles
 Normal termination of Gaussian 16 at Wed Dec  9 18:35:56 2020.
 Gaussian 16:  ES64L-G16RevA.03 25-Dec-2016

 ----------------------------------------------------------------------
 # B3LYP/6-311++G(d,p) empiricaldispersion=gd3bj scf=xqc pop=npa geom=c
 heck
 ----------------------------------------------------------------------

 ------------------------------------
 CID_114974975_JID_2929_Energie_anion
 ------------------------------------
 Structure from the checkpoint file:  "JID_2929.chk"
 Charge = -1 Multiplicity = 2

                         Standard orientation:
 ---------------------------------------------------------------------
 Center     Atomic      Atomic             Coordinates (Angstroms)
 Number     Number       Type             X           Y           Z
 ---------------------------------------------------------------------
      1          6           0        1.439876   -2.012625    1.041868
      2          6           0        1.157685   -0.948393   -0.015860
      3          6           0        1.062182    0.502949    0.589016
      4          6           0        2.220451    1.259224   -0.079622
      5          6           0        3.109767    0.130614   -0.604380
      6          8           0        2.199152   -0.894852   -0.988991
      7          6           0       -0.313395    1.082519    0.292456
      8          8           0       -0.508768    1.884358   -0.602339
      9          6           0       -1.455040    0.566680    1.160094
     10          6           0       -2.820604    0.612320    0.456157
     11          6           0       -2.861768   -0.298548   -0.740699
     12          6           0       -3.576127   -1.421653   -0.815916
     13          1           0        1.560941   -2.991902    0.569141
     14          1           0        0.615798   -2.075163    1.762454
     15          1           0        2.357161   -1.779944    1.594699
     16          1           0        0.243986   -1.213749   -0.561537
     17          1           0        1.186015    0.439810    1.676750
     18          1           0        2.739929    1.930278    0.610710
     19          1           0        1.820152    1.851423   -0.906768
     20          1           0        3.802762   -0.228855    0.173720
     21          1           0        3.695043    0.398827   -1.487866
     22          1           0       -1.231459   -0.451320    1.500947
     23          1           0       -1.469344    1.194605    2.064405
     24          1           0       -3.601773    0.329122    1.170741
     25          1           0       -3.010726    1.645170    0.142085
     26          1           0       -2.235906   -0.000978   -1.581112
     27          1           0       -3.558141   -2.054512   -1.699000
     28          1           0       -4.215667   -1.747377    0.002590
 ---------------------------------------------------------------------

 SCF Done:  E(UB3LYP) =  -541.304627244     A.U. after   32 cycles

 The electronic state is 2-A.
 Alpha  occ. eigenvalues --  -19.02072 -18.99511 -10.13768 -10.12280 -10.11238
 Alpha  occ. eigenvalues --  -10.07414 -10.07303 -10.06677 -10.06604 -10.06387
 Alpha  occ. eigenvalues --  -10.06105 -10.05866  -0.94116  -0.92921  -0.70615
 Alpha  occ. eigenvalues --   -0.69111  -0.66390  -0.64020  -0.59005  -0.55102
 Alpha  occ. eigenvalues --   -0.49850  -0.47546  -0.45769  -0.42572  -0.39732
 Alpha  occ. eigenvalues --   -0.38614  -0.37335  -0.35621  -0.34586  -0.32932
 Alpha  occ. eigenvalues --   -0.32244  -0.31612  -0.30753  -0.29799  -0.28984
 Alpha  occ. eigenvalues --   -0.27444  -0.26341  -0.25156  -0.24498  -0.23905
 Alpha  occ. eigenvalues --   -0.23129  -0.22809  -0.21265  -0.16517  -0.15867
 Alpha  occ. eigenvalues --   -0.13784   0.04751
 Alpha virt. eigenvalues --    0.07067   0.07575   0.08322   0.08909   0.09386
 Alpha virt. eigenvalues --    0.09609   0.09706   0.10534   0.11089   0.11490
 Alpha virt. eigenvalues --    0.12346   0.12431   0.13016   0.13264   0.14148

  Beta  occ. eigenvalues --  -19.02074 -18.99415 -10.13631 -10.12256 -10.11221
  Beta  occ. eigenvalues --  -10.07406 -10.07301 -10.06659 -10.06583 -10.06356
  Beta  occ. eigenvalues --  -10.06090 -10.05834  -0.94099  -0.92724  -0.70542
  Beta  occ. eigenvalues --   -0.69055  -0.66353  -0.63936  -0.58919  -0.55004
  Beta  occ. eigenvalues --   -0.49779  -0.47465  -0.45686  -0.42463  -0.39634
  Beta  occ. eigenvalues --   -0.38517  -0.37281  -0.35541  -0.34444  -0.32860
  Beta  occ. eigenvalues --   -0.32211  -0.31553  -0.30667  -0.29702  -0.28898
  Beta  occ. eigenvalues --   -0.27354  -0.26100  -0.25089  -0.24441  -0.23865
  Beta  occ. eigenvalues --   -0.23034  -0.22706  -0.21144  -0.16418  -0.15827
  Beta  occ. eigenvalues --   -0.13701
  Beta virt. eigenvalues --    0.07231   0.07828   0.08250   0.08687   0.09635
  Beta virt. eigenvalues --    0.09891   0.09914   0.10128   0.10810   0.11497
  Beta virt. eigenvalues --    0.11856   0.12602   0.12839   0.13348   0.13658

 Mulliken charges and spin densities:
               1          2
     1  C    0.861242  -1.365700
     2  C   -0.804009   0.429636
     3  C    0.666757  -0.373994
     4  C   -0.386022   0.061937
     5  C    0.450188  -0.746498
     6  O   -0.090167   0.014474
     7  C   -0.714765   0.533456
     8  O   -0.268150   0.038488
     9  C    0.728784  -0.828730
    10  C    0.665417  -1.212148
    11  C   -0.634843   0.928545
    12  C    0.038776  -0.639722
    13  H    0.088869   0.049874
    14  H   -0.273168   0.423868
    15  H   -0.268573   0.410651
    16  H    0.198072   0.073072
    17  H   -0.428509   0.699302
    18  H   -0.267885   0.397607
    19  H    0.205830  -0.005283
    20  H   -0.144893   0.292573
    21  H    0.044324   0.102039
    22  H    0.360396  -0.268795
    23  H   -0.797152   1.019927
    24  H   -0.458868   0.633038
    25  H    0.193020  -0.031035
    26  H    0.066743   0.120057
    27  H    0.083421   0.010758
    28  H   -0.114838   0.232602
 Sum of Mulliken charges =  -1.00000   1.00000

 Dipole moment (field-independent basis, Debye):
    X=              0.7587    Y=             -2.1354    Z=             -5.4751  Tot=              5.9256
 Quadrupole moment (field-independent basis, Debye-Ang):
   XX=           -131.9578   YY=           -106.1097   ZZ=           -117.3447
   XY=              3.9423   XZ=              0.5132   YZ=             -3.3726

 Summary of Natural Population Analysis:

                                       Natural Population
                Natural  -----------------------------------------------
    Atom  No    Charge         Core      Valence    Rydberg      Total
 -----------------------------------------------------------------------
      C    1   -0.29427      0.99963     2.28854    0.00610     3.29427
      C    2    0.07243      0.99956     1.91372    0.01429     2.92757
      C    3   -0.16690      0.99953     2.15422    0.01314     3.16690
      C    4   -0.20521      0.99962     2.19631    0.00928     3.20521
      C    5   -0.01035      0.99959     1.99823    0.01253     3.01035
      O    6   -0.30266      0.99989     3.29449    0.00828     4.30266
      C    7    0.31743      0.99964     1.66062    0.02231     2.68257
      O    8   -0.29092      0.99987     3.28509    0.00595     4.29092
      C    9   -0.23377      0.99957     2.22462    0.00958     3.23377
      C   10   -0.21014      0.99961     2.19876    0.01178     3.21014
      C   11   -0.07805      0.99956     2.06840    0.01009     3.07805
      C   12   -0.19843      0.99956     2.19181    0.00707     3.19843
      H   13    0.09893      0.00000     0.40017    0.00090     0.40107
      H   14    0.10209      0.00000     0.39671    0.00120     0.39791
      H   15    0.10091      0.00000     0.39766    0.00144     0.39909
      H   16    0.09126      0.00000     0.40716    0.00158     0.40874
      H   17    0.11476      0.00000     0.38011    0.00513     0.38524
      H   18    0.10425      0.00000     0.39463    0.00112     0.39575
      H   19    0.11040      0.00000     0.38824    0.00136     0.38960
      H   20    0.07809      0.00000     0.42034    0.00157     0.42191
      H   21    0.08732      0.00000     0.41170    0.00098     0.41268
      H   22    0.10222      0.00000     0.39611    0.00167     0.39778
      H   23    0.12344      0.00000     0.36991    0.00665     0.37656
      H   24    0.10119      0.00000     0.39711    0.00170     0.39881
      H   25    0.10931      0.00000     0.38951    0.00118     0.39069
      H   26    0.09718      0.00000     0.40163    0.00119     0.40282
      H   27    0.08991      0.00000     0.40930    0.00079     0.41009
      H   28    0.08957      0.00000     0.40937    0.00105     0.41043
 =======================================================================
   * Total *   -0.00000     11.99564    33.84444    0.15991    46.00000

 Normal termination of Gaussian 16 at Wed Dec  9 18:42:40 2020.
