 Gaussian 16, Revision A.03,

 -----------------------------------------------------------
 # opt freq B3LYP/6-31G(d) empiricaldispersion=gd3bj scf=xqc
 -----------------------------------------------------------

 -------------------------------
 CID_149918313_JID_9139_neutraal
 -------------------------------
 Symbolic Z-matrix:
 Charge =  0 Multiplicity = 1

 SCF Done:  E(RB3LYP) =  -823.737776089     A.U. after   16 cycles
 SCF Done:  E(RB3LYP) =  -823.740543986     A.U. after   15 cycles
 SCF Done:  E(RB3LYP) =  -823.742888167     A.U. after   15 cycles
 SCF Done:  E(RB3LYP) =  -823.743576787     A.U. after   14 cycles
 SCF Done:  E(RB3LYP) =  -823.744296624     A.U. after   14 cycles
 SCF Done:  E(RB3LYP) =  -823.744701851     A.U. after   13 cycles
 SCF Done:  E(RB3LYP) =  -823.744906822     A.U. after   14 cycles
 SCF Done:  E(RB3LYP) =  -823.745073592     A.U. after   13 cycles
 SCF Done:  E(RB3LYP) =  -823.745144313     A.U. after   13 cycles
 SCF Done:  E(RB3LYP) =  -823.745160498     A.U. after   12 cycles
 SCF Done:  E(RB3LYP) =  -823.745171743     A.U. after    9 cycles
 SCF Done:  E(RB3LYP) =  -823.745171924     A.U. after    9 cycles
 SCF Done:  E(RB3LYP) =  -823.745171969     A.U. after    8 cycles
 SCF Done:  E(RB3LYP) =  -823.745172029     A.U. after    7 cycles
 SCF Done:  E(RB3LYP) =  -823.745172063     A.U. after    7 cycles
 Optimization completed.
    -- Stationary point found.
 Normal termination of Gaussian 16 at Mon Dec 14 16:54:27 2020.

 --------------------------------------------------------------------
 #N Geom=AllCheck Guess=TCheck SCRF=Check GenChk RB3LYP/6-31G(d) Freq
 --------------------------------------------------------------------

 Structure from the checkpoint file:  "JID_9139.chk"
 -------------------------------
 CID_149918313_JID_9139_neutraal
 -------------------------------
 Charge =  0 Multiplicity = 1

 SCF Done:  E(RB3LYP) =  -823.745172063     A.U. after    1 cycles

  Exact polarizability: 251.672   9.615 171.259  13.066 -13.043 120.870
 Approx polarizability: 354.191  19.598 281.227  30.912 -38.764 191.717

                      1                      2                      3
                      A                      A                      A
 Frequencies --     15.2474                16.6336                27.8702
 Red. masses --      4.6061                 4.5379                 5.4141
 Frc consts  --      0.0006                 0.0007                 0.0025
 IR Inten    --      0.1911                 0.1000                 0.2072

                      4                      5                      6
                      A                      A                      A
 Frequencies --     37.7324                50.3369                73.7381
 Red. masses --      6.0034                 3.3319                 3.6439
 Frc consts  --      0.0050                 0.0050                 0.0117
 IR Inten    --      0.9534                 0.2336                 0.3998

                      7                      8                      9
                      A                      A                      A
 Frequencies --     84.9226               100.8328               127.9881
 Red. masses --      3.7564                 3.9278                 3.5842
 Frc consts  --      0.0160                 0.0235                 0.0346
 IR Inten    --      1.7610                 0.7043                 1.4552

                     10                     11                     12
                      A                      A                      A
 Frequencies --    148.9887               169.3489               193.1561
 Red. masses --      4.7521                 2.6281                 3.9272
 Frc consts  --      0.0622                 0.0444                 0.0863
 IR Inten    --      0.4341                 0.8729                 1.4847

                     13                     14                     15
                      A                      A                      A
 Frequencies --    211.6072               224.8439               237.5058
 Red. masses --      2.4325                 2.1869                 2.4806
 Frc consts  --      0.0642                 0.0651                 0.0824
 IR Inten    --      2.4036                 1.7886                 0.4477

                     16                     17                     18
                      A                      A                      A
 Frequencies --    245.9235               286.7467               301.5878
 Red. masses --      1.2745                 1.9931                 2.0859
 Frc consts  --      0.0454                 0.0966                 0.1118
 IR Inten    --      0.6478                 0.1292                 0.3587

                     19                     20                     21
                      A                      A                      A
 Frequencies --    352.8774               368.1018               392.4457
 Red. masses --      4.3293                 2.0194                 2.6020
 Frc consts  --      0.3176                 0.1612                 0.2361
 IR Inten    --      0.8915                 0.2067                 2.2668

                     22                     23                     24
                      A                      A                      A
 Frequencies --    422.1148               428.1173               441.6567
 Red. masses --      3.7597                 2.3461                 3.3476
 Frc consts  --      0.3947                 0.2533                 0.3847
 IR Inten    --      0.7886                 2.0593                 1.2098

                     25                     26                     27
                      A                      A                      A
 Frequencies --    511.4019               513.8868               517.6857
 Red. masses --      5.5272                 2.5582                 4.7076
 Frc consts  --      0.8517                 0.3980                 0.7433
 IR Inten    --      9.4058                 0.0217                 3.5080

                     28                     29                     30
                      A                      A                      A
 Frequencies --    571.0724               603.1585               608.7165
 Red. masses --     13.2304                 4.2465                 3.9929
 Frc consts  --      2.5422                 0.9102                 0.8717
 IR Inten    --      8.3420                11.2045                 7.9542

                     31                     32                     33
                      A                      A                      A
 Frequencies --    676.0710               704.6759               716.5838
 Red. masses --      6.5995                 2.4189                 1.9929
 Frc consts  --      1.7772                 0.7077                 0.6029
 IR Inten    --     34.7176                10.5185                33.3395

                     34                     35                     36
                      A                      A                      A
 Frequencies --    735.1035               752.9190               769.4511
 Red. masses --      2.0228                 2.1267                 2.2848
 Frc consts  --      0.6440                 0.7103                 0.7970
 IR Inten    --      9.6179                22.1233                 2.8580

                     37                     38                     39
                      A                      A                      A
 Frequencies --    823.2514               827.7855               845.5923
 Red. masses --      1.8358                 1.9869                 2.0926
 Frc consts  --      0.7331                 0.8022                 0.8816
 IR Inten    --      4.9661                 4.3555                 1.8566

                     40                     41                     42
                      A                      A                      A
 Frequencies --    870.0749               886.2708               921.0155
 Red. masses --      2.2253                 2.4182                 1.7039
 Frc consts  --      0.9926                 1.1191                 0.8516
 IR Inten    --      0.1637                 3.3394                 5.2673

                     43                     44                     45
                      A                      A                      A
 Frequencies --    936.6520               951.2173               963.4395
 Red. masses --      1.5022                 1.5871                 1.5012
 Frc consts  --      0.7765                 0.8461                 0.8210
 IR Inten    --      2.5040                 1.8897                 4.8893

                     46                     47                     48
                      A                      A                      A
 Frequencies --    987.6933               989.8688              1008.1645
 Red. masses --      1.8192                 1.4160                 1.9048
 Frc consts  --      1.0456                 0.8174                 1.1406
 IR Inten    --     29.5334                 9.6966                 4.3436

                     49                     50                     51
                      A                      A                      A
 Frequencies --   1023.7476              1025.5650              1053.3180
 Red. masses --      3.7602                 1.9317                 1.7472
 Frc consts  --      2.3219                 1.1970                 1.1421
 IR Inten    --      0.4738                 1.9704                 6.0988

                     52                     53                     54
                      A                      A                      A
 Frequencies --   1060.0237              1097.8534              1111.5207
 Red. masses --      2.5388                 2.0809                 1.8604
 Frc consts  --      1.6808                 1.4777                 1.3542
 IR Inten    --     30.7255                 0.0773                11.8396

                     55                     56                     57
                      A                      A                      A
 Frequencies --   1119.4450              1133.8290              1139.7459
 Red. masses --      1.6420                 1.8196                 1.9814
 Frc consts  --      1.2124                 1.3783                 1.5165
 IR Inten    --      0.5315                11.2770                 2.6009

                     58                     59                     60
                      A                      A                      A
 Frequencies --   1148.4680              1207.6256              1213.4052
 Red. masses --      1.5990                 1.4405                 1.1521
 Frc consts  --      1.2426                 1.2377                 0.9994
 IR Inten    --     14.2344                 0.7372                10.4154

                     61                     62                     63
                      A                      A                      A
 Frequencies --   1216.1373              1229.1977              1278.7407
 Red. masses --      1.4479                 1.8085                 1.3212
 Frc consts  --      1.2617                 1.6100                 1.2728
 IR Inten    --      4.0958                18.3387                 0.9253

                     64                     65                     66
                      A                      A                      A
 Frequencies --   1311.8067              1312.9587              1335.3915
 Red. masses --      4.3054                 1.2280                 3.4788
 Frc consts  --      4.3652                 1.2472                 3.6551
 IR Inten    --    232.4394                 2.5947                28.7289

                     67                     68                     69
                      A                      A                      A
 Frequencies --   1337.9921              1345.8713              1347.9635
 Red. masses --      1.8005                 1.3643                 1.1981
 Frc consts  --      1.8991                 1.4560                 1.2826
 IR Inten    --     48.7749                14.5431                 1.3989

                     70                     71                     72
                      A                      A                      A
 Frequencies --   1362.6197              1369.9064              1378.3207
 Red. masses --      1.2242                 1.8097                 2.4364
 Frc consts  --      1.3393                 2.0010                 2.7271
 IR Inten    --     95.1103                 2.7646                 1.0135

                     73                     74                     75
                      A                      A                      A
 Frequencies --   1387.6570              1398.1385              1417.9310
 Red. masses --      1.4125                 1.4663                 1.3830
 Frc consts  --      1.6026                 1.6888                 1.6383
 IR Inten    --     18.0520                 0.3527                 2.7894

                     76                     77                     78
                      A                      A                      A
 Frequencies --   1422.7283              1432.3965              1443.4852
 Red. masses --      1.4442                 1.2178                 1.2725
 Frc consts  --      1.7223                 1.4722                 1.5622
 IR Inten    --      1.4958                 9.9043                 4.2863

                     79                     80                     81
                      A                      A                      A
 Frequencies --   1484.7746              1506.9384              1516.8094
 Red. masses --      2.8600                 1.0775                 1.0914
 Frc consts  --      3.7148                 1.4416                 1.4795
 IR Inten    --     19.5250                 0.6002                 3.5883

                     82                     83                     84
                      A                      A                      A
 Frequencies --   1521.2690              1521.7714              1525.2043
 Red. masses --      1.0823                 1.0762                 1.0597
 Frc consts  --      1.4758                 1.4684                 1.4524
 IR Inten    --      6.0393                 7.2461                 6.8860

                     85                     86                     87
                      A                      A                      A
 Frequencies --   1528.6214              1530.1062              1534.8526
 Red. masses --      1.1365                 1.0709                 1.3646
 Frc consts  --      1.5646                 1.4773                 1.8941
 IR Inten    --      1.3627                 5.0769                 4.3043

                     88                     89                     90
                      A                      A                      A
 Frequencies --   1537.9324              1543.2159              1642.1185
 Red. masses --      1.4121                 1.0800                 5.2211
 Frc consts  --      1.9679                 1.5154                 8.2951
 IR Inten    --     10.3730                 4.7098                 1.9058

                     91                     92                     93
                      A                      A                      A
 Frequencies --   1660.7339              1767.6906              2262.3112
 Red. masses --      5.8974                11.4639                13.7011
 Frc consts  --      9.5831                21.1054                41.3153
 IR Inten    --     26.8925               144.9804               665.4373

                     94                     95                     96
                      A                      A                      A
 Frequencies --   3032.8498              3034.9147              3036.8133
 Red. masses --      1.0675                 1.0608                 1.0619
 Frc consts  --      5.7850                 5.7567                 5.7701
 IR Inten    --     17.6520                22.9302                21.0015

                     97                     98                     99
                      A                      A                      A
 Frequencies --   3043.3154              3045.6110              3051.5172
 Red. masses --      1.0528                 1.0491                 1.0619
 Frc consts  --      5.7448                 5.7333                 5.8262
 IR Inten    --     16.0206                34.9335                15.4779

                    100                    101                    102
                      A                      A                      A
 Frequencies --   3062.5556              3065.6957              3067.1490
 Red. masses --      1.0355                 1.0972                 1.1011
 Frc consts  --      5.7224                 6.0755                 6.1032
 IR Inten    --     11.5996                28.6186                 4.1665

                    103                    104                    105
                      A                      A                      A
 Frequencies --   3076.4697              3076.7175              3086.2238
 Red. masses --      1.0992                 1.0858                 1.1013
 Frc consts  --      6.1295                 6.0560                 6.1802
 IR Inten    --     48.3006                10.3222               126.8076

                    106                    107                    108
                      A                      A                      A
 Frequencies --   3096.5201              3109.3991              3115.9264
 Red. masses --      1.0986                 1.1017                 1.1019
 Frc consts  --      6.2066                 6.2756                 6.3033
 IR Inten    --     33.8563                48.1910                48.4494

                    109                    110                    111
                      A                      A                      A
 Frequencies --   3132.2588              3153.0266              3179.4396
 Red. masses --      1.1026                 1.1027                 1.0877
 Frc consts  --      6.3735                 6.4587                 6.4780
 IR Inten    --     16.0020                15.9256                 9.9512

                    112                    113                    114
                      A                      A                      A
 Frequencies --   3202.0223              3218.3854              3247.8155
 Red. masses --      1.0932                 1.0896                 1.0917
 Frc consts  --      6.6040                 6.6496                 6.7851
 IR Inten    --     20.9900                 5.4630                 2.1012

 - Thermochemistry -
 -------------------
 Temperature   298.150 Kelvin.  Pressure   1.00000 Atm.
 Atom     1 has atomic number  6 and mass  12.00000

 Molecular mass:   259.16846 amu.
 Principal axes and moments of inertia in atomic units:
                           1         2         3
     Eigenvalues --  2237.05305********************
           X            0.99998  -0.00507   0.00406
           Y            0.00501   0.99990   0.01355
           Z           -0.00413  -0.01353   0.99990
 This molecule is an asymmetric top.
 Rotational symmetry number  1.
 Warning -- assumption of classical behavior for rotation
           may cause significant error
 Rotational temperatures (Kelvin)      0.03872     0.00733     0.00661
 Rotational constants (GHZ):           0.80675     0.15267     0.13778
 Zero-point vibrational energy     900398.3 (Joules/Mol)
                                  215.20036 (Kcal/Mol)
 Warning -- explicit consideration of  30 degrees of freedom as
           vibrations may cause significant error
 Vibrational temperatures:     21.94    23.93    40.10    54.29    72.42
          (Kelvin)            106.09   122.18   145.08   184.15   214.36
                              243.66   277.91   304.46   323.50   341.72
                              353.83   412.56   433.92   507.71   529.62
                              564.64   607.33   615.97   635.45   735.79
                              739.37   744.83   821.65   867.81   875.81
                              972.72  1013.87  1031.00  1057.65  1083.28
                             1107.07  1184.48  1191.00  1216.62  1251.84
                             1275.15  1325.14  1347.63  1368.59  1386.17
                             1421.07  1424.20  1450.52  1472.94  1475.56
                             1515.49  1525.14  1579.57  1599.23  1610.63
                             1631.33  1639.84  1652.39  1737.50  1745.82
                             1749.75  1768.54  1839.82  1887.40  1889.05
                             1921.33  1925.07  1936.41  1939.42  1960.51
                             1970.99  1983.10  1996.53  2011.61  2040.09
                             2046.99  2060.90  2076.85  2136.26  2168.15
                             2182.35  2188.77  2189.49  2194.43  2199.35
                             2201.48  2208.31  2212.74  2220.34  2362.64
                             2389.43  2543.31  3254.96  4363.59  4366.57
                             4369.30  4378.65  4381.95  4390.45  4406.33
                             4410.85  4412.94  4426.35  4426.71  4440.39
                             4455.20  4473.73  4483.12  4506.62  4536.50
                             4574.50  4607.00  4630.54  4672.88

 Zero-point correction=                           0.342944 (Hartree/Particle)
 Thermal correction to Energy=                    0.362631
 Thermal correction to Enthalpy=                  0.363575
 Thermal correction to Gibbs Free Energy=         0.291022
 Sum of electronic and zero-point Energies=           -823.402228
 Sum of electronic and thermal Energies=              -823.382541
 Sum of electronic and thermal Enthalpies=            -823.381597
 Sum of electronic and thermal Free Energies=         -823.454150

                     E (Thermal)             CV                S
                      KCal/Mol        Cal/Mol-Kelvin    Cal/Mol-Kelvin
 Total                  227.555             72.393            152.702
 Electronic               0.000              0.000              0.000
 Translational            0.889              2.981             42.557
 Rotational               0.889              2.981             34.204
 Vibrational            225.777             66.431             75.942
 Vibration     1          0.593              1.986              7.173
 Vibration     2          0.593              1.986              7.000
 Vibration     3          0.593              1.984              5.976
 Vibration     4          0.594              1.982              5.375
 Vibration     5          0.595              1.977              4.804
 Vibration     6          0.599              1.966              4.051
 Vibration     7          0.601              1.960              3.774
 Vibration     8          0.604              1.948              3.438
 Vibration     9          0.611              1.925              2.976
 Vibration    10          0.618              1.904              2.685
 Vibration    11          0.625              1.880              2.443
 Vibration    12          0.635              1.849              2.197
 Vibration    13          0.643              1.823              2.030
 Vibration    14          0.650              1.803              1.920
 Vibration    15          0.656              1.783              1.821
 Vibration    16          0.660              1.770              1.760
 Vibration    17          0.684              1.698              1.493
 Vibration    18          0.694              1.671              1.408
 Vibration    19          0.729              1.569              1.153
 Vibration    20          0.741              1.538              1.088
 Vibration    21          0.760              1.486              0.991
 Vibration    22          0.784              1.422              0.885
 Vibration    23          0.790              1.409              0.865
 Vibration    24          0.801              1.379              0.821
 Vibration    25          0.867              1.225              0.630
 Vibration    26          0.869              1.219              0.624
 Vibration    27          0.873              1.211              0.615
 Vibration    28          0.927              1.094              0.502
 Vibration    29          0.962              1.025              0.444
 Vibration    30          0.968              1.013              0.435

 Optimization completed.
    -- Stationary point found.
 Normal termination of Gaussian 16 at Mon Dec 14 17:14:21 2020.

 ----------------------------------------------------------------------
 # B3LYP/6-311++G(d,p) empiricaldispersion=gd3bj scf=xqc pop=npa geom=c
 heck
 ----------------------------------------------------------------------

 ---------------------------------------
 CID_149918313_JID_9139_Energie_neutraal
 ---------------------------------------
 Structure from the checkpoint file:  "JID_9139.chk"
 Charge =  0 Multiplicity = 1

 SCF Done:  E(RB3LYP) =  -823.966886379     A.U. after   16 cycles
 Normal termination of Gaussian 16 at Mon Dec 14 17:24:39 2020.

 ----------------------------------------------------------------------
 # B3LYP/6-311++G(d,p) empiricaldispersion=gd3bj scf=xqc pop=npa geom=c
 heck
 ----------------------------------------------------------------------

 -------------------------------------
 CID_149918313_JID_9139_Energie_kation
 -------------------------------------
 Structure from the checkpoint file:  "JID_9139.chk"
 Charge =  1 Multiplicity = 2

 SCF Done:  E(UB3LYP) =  -823.647513665     A.U. after   33 cycles
 SCF Done:  E(UB3LYP) =  -823.647513665     a.u. after    1 cycles
 Normal termination of Gaussian 16 at Mon Dec 14 17:55:38 2020.
 Gaussian 16:  ES64L-G16RevA.03 25-Dec-2016

 ----------------------------------------------------------------------
 # B3LYP/6-311++G(d,p) empiricaldispersion=gd3bj scf=xqc pop=npa geom=c
 heck
 ----------------------------------------------------------------------

 ------------------------------------
 CID_149918313_JID_9139_Energie_anion
 ------------------------------------
 Structure from the checkpoint file:  "JID_9139.chk"
 Charge = -1 Multiplicity = 2

                         Standard orientation:
 ---------------------------------------------------------------------
 Center     Atomic      Atomic             Coordinates (Angstroms)
 Number     Number       Type             X           Y           Z
 ---------------------------------------------------------------------
      1          6           0       -6.086886    1.380933    0.409412
      2          6           0       -4.827958    1.491294   -0.455763
      3          6           0       -3.518280    1.295338    0.322439
      4          6           0       -3.374097   -0.059821    1.033648
      5          6           0       -3.527496   -1.291084    0.129791
      6          6           0       -2.515657   -1.363934   -1.032290
      7          6           0       -1.078581   -1.380795   -0.563601
      8          6           0       -0.241857   -0.283533   -0.751435
      9          6           0        1.083723   -0.278127   -0.285681
     10          6           0        1.579465   -1.407693    0.381616
     11          6           0        0.751478   -2.512873    0.574077
     12          6           0       -0.560972   -2.499545    0.108032
     13          6           0        1.871294    0.967003   -0.516942
     14          8           0        1.379671    1.931430   -1.084173
     15          6           0        3.295266    1.140081    0.035785
     16          6           0        3.266551    1.396220    1.549686
     17          7           0        4.132733   -0.038839   -0.318145
     18          7           0        5.346666    0.129733   -0.170170
     19          7           0        6.484428    0.172379   -0.077037
     20          1           0       -6.202054    0.376528    0.832045
     21          1           0       -6.988607    1.598378   -0.173772
     22          1           0       -6.051164    2.089044    1.246633
     23          1           0       -4.885907    0.764397   -1.277138
     24          1           0       -4.803487    2.479773   -0.932583
     25          1           0       -2.673479    1.441171   -0.362155
     26          1           0       -3.431205    2.090248    1.076000
     27          1           0       -2.390842   -0.094617    1.519481
     28          1           0       -4.113875   -0.130109    1.841068
     29          1           0       -3.422867   -2.193516    0.746540
     30          1           0       -4.540418   -1.325955   -0.290625
     31          1           0       -2.721212   -2.269776   -1.617261
     32          1           0       -2.666351   -0.516523   -1.709838
     33          1           0       -0.601666    0.601383   -1.265786
     34          1           0        2.605803   -1.436559    0.723301
     35          1           0        1.136508   -3.391234    1.084039
     36          1           0       -1.195382   -3.369535    0.261318
     37          1           0        3.685641    2.026760   -0.474921
     38          1           0        2.855250    0.538978    2.088747
     39          1           0        4.278120    1.592693    1.920995
     40          1           0        2.647067    2.273326    1.762114
 ---------------------------------------------------------------------

 SCF Done:  E(UB3LYP) =  -823.987384056     A.U. after   29 cycles

 The electronic state is 2-A.
 Alpha  occ. eigenvalues --  -18.92439 -14.36200 -14.25934 -14.23893 -10.09320
 Alpha  occ. eigenvalues --  -10.08277 -10.08128 -10.06867 -10.06762 -10.06586
 Alpha  occ. eigenvalues --  -10.06366 -10.05820 -10.05500 -10.04058 -10.03395
 Alpha  occ. eigenvalues --  -10.02384 -10.02347 -10.02105 -10.01938  -1.02318
 Alpha  occ. eigenvalues --   -0.87144  -0.86031  -0.72506  -0.71123  -0.67657
 Alpha  occ. eigenvalues --   -0.66567  -0.63102  -0.60729  -0.59447  -0.55677
 Alpha  occ. eigenvalues --   -0.54909  -0.51041  -0.48446  -0.46197  -0.44450
 Alpha  occ. eigenvalues --   -0.42812  -0.41170  -0.39244  -0.38743  -0.37857
 Alpha  occ. eigenvalues --   -0.37523  -0.35664  -0.34284  -0.34033  -0.33387
 Alpha  occ. eigenvalues --   -0.31981  -0.31356  -0.31098  -0.30540  -0.29605
 Alpha  occ. eigenvalues --   -0.28763  -0.28433  -0.27895  -0.26336  -0.26252
 Alpha  occ. eigenvalues --   -0.25966  -0.25435  -0.24485  -0.23967  -0.22742
 Alpha  occ. eigenvalues --   -0.22486  -0.22030  -0.20715  -0.20254  -0.19787
 Alpha  occ. eigenvalues --   -0.17937  -0.13971  -0.11537  -0.11285  -0.09058
 Alpha  occ. eigenvalues --    0.03701
 Alpha virt. eigenvalues --    0.05927   0.07533   0.08020   0.08071   0.08561
 Alpha virt. eigenvalues --    0.09074   0.09772   0.10502   0.11078   0.11330
 Alpha virt. eigenvalues --    0.11552   0.11820   0.12188   0.12337   0.12819

  Beta  occ. eigenvalues --  -18.91840 -14.36123 -14.25820 -14.23878 -10.09326
  Beta  occ. eigenvalues --  -10.08276 -10.08128 -10.06759 -10.06588 -10.06494
  Beta  occ. eigenvalues --  -10.06366 -10.05816 -10.05475 -10.04127 -10.03454
  Beta  occ. eigenvalues --  -10.02192 -10.02084 -10.02013 -10.01783  -1.02162
  Beta  occ. eigenvalues --   -0.86537  -0.85460  -0.72396  -0.70980  -0.67565
  Beta  occ. eigenvalues --   -0.66382  -0.63025  -0.60300  -0.59312  -0.55579
  Beta  occ. eigenvalues --   -0.54740  -0.50951  -0.47721  -0.46144  -0.44265
  Beta  occ. eigenvalues --   -0.42547  -0.40936  -0.39143  -0.38674  -0.37699
  Beta  occ. eigenvalues --   -0.37435  -0.35402  -0.34107  -0.33886  -0.33249
  Beta  occ. eigenvalues --   -0.31784  -0.31307  -0.30956  -0.30299  -0.29467
  Beta  occ. eigenvalues --   -0.28686  -0.28300  -0.27822  -0.26287  -0.26062
  Beta  occ. eigenvalues --   -0.25737  -0.25336  -0.24168  -0.23159  -0.22679
  Beta  occ. eigenvalues --   -0.22085  -0.21677  -0.20507  -0.19657  -0.18392
  Beta  occ. eigenvalues --   -0.17701  -0.13863  -0.10686  -0.09668  -0.08535
  Beta virt. eigenvalues --    0.05890   0.07964   0.08027   0.08151   0.08529
  Beta virt. eigenvalues --    0.08988   0.09714   0.10113   0.10565   0.11027
  Beta virt. eigenvalues --    0.11375   0.11552   0.11836   0.12267   0.12309

 Mulliken charges and spin densities:
               1          2
     1  C   -0.627852  -0.022118
     2  C   -0.214417   0.012038
     3  C   -0.142422  -0.015393
     4  C   -0.356425   0.007341
     5  C   -0.247630  -0.005313
     6  C   -0.135942   0.011500
     7  C    0.987908  -0.050049
     8  C   -0.252280   0.131897
     9  C    0.727630   0.025348
    10  C   -0.983288   0.123978
    11  C   -0.558298  -0.014241
    12  C   -0.431209   0.248902
    13  C   -0.765905   0.199670
    14  O   -0.382328   0.218217
    15  C   -0.024982  -0.003517
    16  C   -0.522132  -0.016496
    17  N    0.303186   0.030652
    18  N    0.358160  -0.001290
    19  N   -0.616027   0.062636
    20  H    0.129427   0.005485
    21  H    0.116529   0.006445
    22  H    0.128057   0.002621
    23  H    0.131433   0.002427
    24  H    0.140286   0.000568
    25  H    0.130066   0.024749
    26  H    0.130349   0.001793
    27  H    0.150157  -0.003612
    28  H    0.143712   0.002012
    29  H    0.142395  -0.000181
    30  H    0.122755  -0.005466
    31  H    0.137170   0.015471
    32  H    0.165287  -0.002975
    33  H    0.164192  -0.011337
    34  H    0.124350  -0.001056
    35  H    0.132554   0.002854
    36  H    0.081300  -0.019581
    37  H    0.194099   0.011930
    38  H    0.170862  -0.002396
    39  H    0.100711   0.028451
    40  H    0.148560  -0.001962
 Sum of Mulliken charges =  -1.00000   1.00000

 Dipole moment (field-independent basis, Debye):
    X=             -7.3893    Y=             -0.4473    Z=              2.6446  Tot=              7.8611
 Quadrupole moment (field-independent basis, Debye-Ang):
   XX=           -182.2536   YY=           -137.5770   ZZ=           -128.0469
   XY=             -2.2871   XZ=              5.5270   YZ=              3.6382

 Summary of Natural Population Analysis:

                                       Natural Population
                Natural  -----------------------------------------------
    Atom  No    Charge         Core      Valence    Rydberg      Total
 -----------------------------------------------------------------------
      C    1   -0.28812      0.99967     2.28389    0.00455     3.28812
      C    2   -0.19211      0.99965     2.18572    0.00675     3.19211
      C    3   -0.19278      0.99963     2.18553    0.00761     3.19278
      C    4   -0.19430      0.99963     2.18738    0.00729     3.19430
      C    5   -0.18583      0.99963     2.17915    0.00706     3.18583
      C    6   -0.19362      0.99960     2.18562    0.00841     3.19362
      C    7   -0.04527      0.99951     2.03633    0.00943     3.04527
      C    8   -0.05064      0.99948     2.04291    0.00825     3.05064
      C    9   -0.05133      0.99947     2.04092    0.01093     3.05133
      C   10   -0.06473      0.99954     2.05752    0.00766     3.06473
      C   11   -0.12463      0.99958     2.11569    0.00936     3.12463
      C   12   -0.04902      0.99952     2.04064    0.00886     3.04902
      C   13    0.31509      0.99960     1.66397    0.02134     2.68491
      O   14   -0.24432      0.99988     3.23819    0.00625     4.24432
      C   15   -0.04835      0.99954     2.03625    0.01256     3.04835
      C   16   -0.28714      0.99965     2.28312    0.00438     3.28714
      N   17   -0.17403      0.99969     2.65972    0.01462     3.67403
      N   18    0.11978      0.99971     2.36391    0.01661     3.38022
      N   19   -0.06527      0.99982     2.55191    0.01355     3.56527
      H   20    0.09608      0.00000     0.40296    0.00096     0.40392
      H   21    0.09410      0.00000     0.40504    0.00087     0.40590
      H   22    0.09335      0.00000     0.40564    0.00101     0.40665
      H   23    0.09330      0.00000     0.40552    0.00118     0.40670
      H   24    0.09294      0.00000     0.40592    0.00114     0.40706
      H   25    0.10693      0.00000     0.39198    0.00109     0.39307
      H   26    0.09239      0.00000     0.40656    0.00105     0.40761
      H   27    0.10900      0.00000     0.39002    0.00099     0.39100
      H   28    0.08910      0.00000     0.40982    0.00108     0.41090
      H   29    0.09636      0.00000     0.40248    0.00116     0.40364
      H   30    0.08736      0.00000     0.41139    0.00124     0.41264
      H   31    0.09606      0.00000     0.40274    0.00120     0.40394
      H   32    0.09576      0.00000     0.40291    0.00133     0.40424
      H   33    0.10326      0.00000     0.39505    0.00169     0.39674
      H   34    0.10004      0.00000     0.39855    0.00141     0.39996
      H   35    0.08921      0.00000     0.40918    0.00161     0.41079
      H   36    0.08438      0.00000     0.41412    0.00150     0.41562
      H   37    0.09671      0.00000     0.40101    0.00228     0.40329
      H   38    0.10351      0.00000     0.39553    0.00096     0.39649
      H   39    0.09202      0.00000     0.40697    0.00101     0.40798
      H   40    0.10479      0.00000     0.39432    0.00089     0.39521
 =======================================================================
   * Total *    0.00000     18.99278    50.79609    0.21113    70.00000

 Normal termination of Gaussian 16 at Mon Dec 14 18:22:14 2020.
