 Gaussian 16, Revision A.03,

 -----------------------------------------------------------
 # opt freq B3LYP/6-31G(d) empiricaldispersion=gd3bj scf=xqc
 -----------------------------------------------------------

 ------------------------------
 CID_118545059_JID_319_neutraal
 ------------------------------
 Symbolic Z-matrix:
 Charge =  0 Multiplicity = 1

 SCF Done:  E(RB3LYP) =  -445.077049520     A.U. after   13 cycles
 SCF Done:  E(RB3LYP) =  -445.080347626     A.U. after   12 cycles
 SCF Done:  E(RB3LYP) =  -445.080597963     A.U. after   12 cycles
 SCF Done:  E(RB3LYP) =  -445.081158938     A.U. after   11 cycles
 SCF Done:  E(RB3LYP) =  -445.080854635     A.U. after   12 cycles
 SCF Done:  E(RB3LYP) =  -445.081369916     A.U. after   11 cycles
 SCF Done:  E(RB3LYP) =  -445.081468459     A.U. after   11 cycles
 SCF Done:  E(RB3LYP) =  -445.081643732     A.U. after   12 cycles
 SCF Done:  E(RB3LYP) =  -445.081608115     A.U. after   12 cycles
 SCF Done:  E(RB3LYP) =  -445.082066872     A.U. after   12 cycles
 SCF Done:  E(RB3LYP) =  -445.082244635     A.U. after   11 cycles
 SCF Done:  E(RB3LYP) =  -445.082266692     A.U. after   10 cycles
 SCF Done:  E(RB3LYP) =  -445.082264496     A.U. after    9 cycles
 SCF Done:  E(RB3LYP) =  -445.082269141     A.U. after    9 cycles
 SCF Done:  E(RB3LYP) =  -445.082268423     A.U. after    8 cycles
 SCF Done:  E(RB3LYP) =  -445.082269540     A.U. after    8 cycles
 Optimization completed.
    -- Stationary point found.
 Normal termination of Gaussian 16 at Tue Dec  8 10:28:58 2020.

 --------------------------------------------------------------------
 #N Geom=AllCheck Guess=TCheck SCRF=Check GenChk RB3LYP/6-31G(d) Freq
 --------------------------------------------------------------------

 Structure from the checkpoint file:  "JID_319.chk"
 ------------------------------
 CID_118545059_JID_319_neutraal
 ------------------------------
 Charge =  0 Multiplicity = 1

 SCF Done:  E(RB3LYP) =  -445.082269540     A.U. after    1 cycles

  Exact polarizability: 114.208  -4.260  89.919   2.470   0.170  83.561
 Approx polarizability: 144.153 -11.363 130.139   2.284   2.080 118.096

                      1                      2                      3
                      A                      A                      A
 Frequencies --     32.7499                63.7396               104.4860
 Red. masses --      3.5970                 2.7026                 2.1259
 Frc consts  --      0.0023                 0.0065                 0.0137
 IR Inten    --      0.7496                 0.0992                 3.8056

                      4                      5                      6
                      A                      A                      A
 Frequencies --    133.3164               180.5549               194.2599
 Red. masses --      3.0306                 1.0412                 2.7861
 Frc consts  --      0.0317                 0.0200                 0.0619
 IR Inten    --      9.0469                 0.0638                 1.0083

                      7                      8                      9
                      A                      A                      A
 Frequencies --    214.7151               236.2590               238.0931
 Red. masses --      2.0129                 1.2163                 1.2073
 Frc consts  --      0.0547                 0.0400                 0.0403
 IR Inten    --     17.5396                 0.8692                 2.4045

                     10                     11                     12
                      A                      A                      A
 Frequencies --    259.2410               288.3305               323.3117
 Red. masses --      1.1943                 1.1302                 2.6070
 Frc consts  --      0.0473                 0.0554                 0.1606
 IR Inten    --    100.2138                 0.0918                 3.1922

                     13                     14                     15
                      A                      A                      A
 Frequencies --    339.3821               375.6750               382.1780
 Red. masses --      2.4292                 2.3867                 2.4568
 Frc consts  --      0.1649                 0.1985                 0.2114
 IR Inten    --      2.2029                 0.8050                 0.8659

                     16                     17                     18
                      A                      A                      A
 Frequencies --    416.3353               454.7418               515.6453
 Red. masses --      2.6388                 2.1138                 3.2957
 Frc consts  --      0.2695                 0.2575                 0.5163
 IR Inten    --      2.2023                 3.7101                10.3411

                     19                     20                     21
                      A                      A                      A
 Frequencies --    559.2778               622.6560               748.6702
 Red. masses --      2.7261                 2.3677                 4.4571
 Frc consts  --      0.5024                 0.5409                 1.4719
 IR Inten    --      1.4628                 5.0379                 5.3526

                     22                     23                     24
                      A                      A                      A
 Frequencies --    798.7330               873.6475               903.1160
 Red. masses --      3.0505                 2.0245                 2.0052
 Frc consts  --      1.1466                 0.9104                 0.9636
 IR Inten    --      0.3130                14.1978                 2.0849

                     25                     26                     27
                      A                      A                      A
 Frequencies --    930.5343               936.2251               959.7546
 Red. masses --      1.7180                 1.6694                 2.5419
 Frc consts  --      0.8765                 0.8621                 1.3795
 IR Inten    --      0.1803                 0.0246                 0.5842

                     28                     29                     30
                      A                      A                      A
 Frequencies --    972.4480              1009.0760              1045.3083
 Red. masses --      1.1932                 1.4173                 1.8409
 Frc consts  --      0.6648                 0.8502                 1.1851
 IR Inten    --      0.0126                 1.0728                23.0033

                     31                     32                     33
                      A                      A                      A
 Frequencies --   1064.1025              1067.4351              1104.3246
 Red. masses --      1.4062                 1.5152                 3.0194
 Frc consts  --      0.9382                 1.0172                 2.1695
 IR Inten    --      5.3020                 6.1028                46.5135

                     34                     35                     36
                      A                      A                      A
 Frequencies --   1115.5967              1188.1512              1238.8000
 Red. masses --      1.8580                 1.4599                 1.8763
 Frc consts  --      1.3625                 1.2143                 1.6965
 IR Inten    --      4.4748                21.5882                11.6397

                     37                     38                     39
                      A                      A                      A
 Frequencies --   1256.0076              1261.3981              1265.6648
 Red. masses --      2.1263                 2.0574                 1.4038
 Frc consts  --      1.9763                 1.9287                 1.3249
 IR Inten    --     39.6920                22.6832                14.2114

                     40                     41                     42
                      A                      A                      A
 Frequencies --   1279.7227              1321.6494              1382.1835
 Red. masses --      2.6398                 1.2298                 1.4949
 Frc consts  --      2.5472                 1.2656                 1.6826
 IR Inten    --     32.4979                41.2998                 4.3474

                     43                     44                     45
                      A                      A                      A
 Frequencies --   1415.5719              1423.0371              1426.2690
 Red. masses --      1.2688                 1.2266                 1.2528
 Frc consts  --      1.4980                 1.4635                 1.5015
 IR Inten    --      8.9574                 9.2604                23.5345

                     46                     47                     48
                      A                      A                      A
 Frequencies --   1453.6608              1460.7648              1496.3120
 Red. masses --      1.2208                 1.4047                 1.0982
 Frc consts  --      1.5199                 1.7660                 1.4486
 IR Inten    --      1.9176                10.0239                 4.2951

                     49                     50                     51
                      A                      A                      A
 Frequencies --   1502.3650              1511.1305              1515.5908
 Red. masses --      1.0578                 1.0635                 1.0458
 Frc consts  --      1.4067                 1.4309                 1.4154
 IR Inten    --      3.9728                 4.9008                 0.4599

                     52                     53                     54
                      A                      A                      A
 Frequencies --   1516.7876              1522.0079              1535.7611
 Red. masses --      1.0488                 1.0512                 1.0576
 Frc consts  --      1.4216                 1.4347                 1.4697
 IR Inten    --      2.0584                 2.3690                 4.5936

                     55                     56                     57
                      A                      A                      A
 Frequencies --   1538.4936              1548.4798              1551.6145
 Red. masses --      1.0594                 1.0574                 1.0863
 Frc consts  --      1.4774                 1.4938                 1.5408
 IR Inten    --      8.5640                 1.0761                 3.8708

                     58                     59                     60
                      A                      A                      A
 Frequencies --   1758.1575              2996.0179              3039.2079
 Red. masses --      9.2623                 1.0601                 1.0988
 Frc consts  --     16.8689                 5.6065                 5.9797
 IR Inten    --    131.4361                82.6810                28.7100

                     61                     62                     63
                      A                      A                      A
 Frequencies --   3047.5613              3051.2852              3053.3908
 Red. masses --      1.0353                 1.0475                 1.0373
 Frc consts  --      5.6653                 5.7461                 5.6982
 IR Inten    --     18.7985                 6.2980                29.2220

                     64                     65                     66
                      A                      A                      A
 Frequencies --   3059.7224              3066.4009              3112.6878
 Red. masses --      1.0387                 1.0644                 1.0942
 Frc consts  --      5.7291                 5.8967                 6.2463
 IR Inten    --     35.6088                45.6586                 5.5009

                     67                     68                     69
                      A                      A                      A
 Frequencies --   3114.7013              3116.1978              3121.0977
 Red. masses --      1.1020                 1.1021                 1.1024
 Frc consts  --      6.2988                 6.3054                 6.3274
 IR Inten    --      1.7773                 7.8238                17.0152

                     70                     71                     72
                      A                      A                      A
 Frequencies --   3124.6477              3128.4085              3143.2040
 Red. masses --      1.1018                 1.1027                 1.0995
 Frc consts  --      6.3382                 6.3587                 6.3999
 IR Inten    --     78.8579                34.3414                13.9291

                     73                     74                     75
                      A                      A                      A
 Frequencies --   3144.6757              3201.6589              3759.9155
 Red. masses --      1.0996                 1.0947                 1.0664
 Frc consts  --      6.4070                 6.6117                 8.8827
 IR Inten    --     49.5705                20.6409                15.1570

 - Thermochemistry -
 -------------------
 Temperature   298.150 Kelvin.  Pressure   1.00000 Atm.
 Atom     1 has atomic number  6 and mass  12.00000

 Molecular mass:   143.13101 amu.
 Principal axes and moments of inertia in atomic units:
                           1         2         3
     Eigenvalues --   826.268462514.670482627.43646
           X            0.99996   0.00238   0.00866
           Y           -0.00233   0.99998  -0.00567
           Z           -0.00867   0.00565   0.99995
 This molecule is an asymmetric top.
 Rotational symmetry number  1.
 Warning -- assumption of classical behavior for rotation
           may cause significant error
 Rotational temperatures (Kelvin)      0.10483     0.03444     0.03297
 Rotational constants (GHZ):           2.18421     0.71768     0.68688
 Zero-point vibrational energy     640685.7 (Joules/Mol)
                                  153.12755 (Kcal/Mol)
 Warning -- explicit consideration of  19 degrees of freedom as
           vibrations may cause significant error
 Vibrational temperatures:     47.12    91.71   150.33   191.81   259.78
          (Kelvin)            279.50   308.93   339.92   342.56   372.99
                              414.84   465.17   488.30   540.51   549.87
                              599.01   654.27   741.90   804.68   895.86
                             1077.17  1149.20  1256.98  1299.38  1338.83
                             1347.02  1380.87  1399.14  1451.84  1503.97
                             1531.01  1535.80  1588.88  1605.09  1709.48
                             1782.36  1807.11  1814.87  1821.01  1841.24
                             1901.56  1988.65  2036.69  2047.43  2052.08
                             2091.49  2101.71  2152.86  2161.57  2174.18
                             2180.60  2182.32  2189.83  2209.62  2213.55
                             2227.92  2232.43  2529.60  4310.60  4372.74
                             4384.76  4390.12  4393.15  4402.26  4411.87
                             4478.46  4481.36  4483.51  4490.56  4495.67
                             4501.08  4522.37  4524.49  4606.47  5409.68

 Zero-point correction=                           0.244024 (Hartree/Particle)
 Thermal correction to Energy=                    0.256892
 Thermal correction to Enthalpy=                  0.257837
 Thermal correction to Gibbs Free Energy=         0.205401
 Sum of electronic and zero-point Energies=           -444.838245
 Sum of electronic and thermal Energies=              -444.825377
 Sum of electronic and thermal Enthalpies=            -444.824433
 Sum of electronic and thermal Free Energies=         -444.876868

                     E (Thermal)             CV                S
                      KCal/Mol        Cal/Mol-Kelvin    Cal/Mol-Kelvin
 Total                  161.202             47.213            110.359
 Electronic               0.000              0.000              0.000
 Translational            0.889              2.981             40.787
 Rotational               0.889              2.981             30.080
 Vibrational            159.425             41.251             39.492
 Vibration     1          0.594              1.983              5.655
 Vibration     2          0.597              1.972              4.338
 Vibration     3          0.605              1.946              3.369
 Vibration     4          0.613              1.920              2.898
 Vibration     5          0.630              1.866              2.323
 Vibration     6          0.635              1.848              2.187
 Vibration     7          0.645              1.819              2.003
 Vibration     8          0.655              1.785              1.831
 Vibration     9          0.656              1.782              1.817
 Vibration    10          0.668              1.747              1.667
 Vibration    11          0.685              1.695              1.484
 Vibration    12          0.708              1.629              1.293
 Vibration    13          0.719              1.597              1.215
 Vibration    14          0.747              1.522              1.057
 Vibration    15          0.752              1.508              1.031
 Vibration    16          0.780              1.435              0.905
 Vibration    17          0.813              1.350              0.782
 Vibration    18          0.871              1.215              0.620
 Vibration    19          0.915              1.119              0.525

                           ! Non-Optimized Parameters !
 Normal termination of Gaussian 16 at Tue Dec  8 10:34:26 2020.

 ----------------------------------------------------------------------
 # B3LYP/6-311++G(d,p) empiricaldispersion=gd3bj scf=xqc pop=npa geom=c
 heck
 ----------------------------------------------------------------------

 --------------------------------------
 CID_118545059_JID_319_Energie_neutraal
 --------------------------------------
 Structure from the checkpoint file:  "JID_319.chk"
 Charge =  0 Multiplicity = 1

 SCF Done:  E(RB3LYP) =  -445.221200304     A.U. after   13 cycles
 Normal termination of Gaussian 16 at Tue Dec  8 10:38:29 2020.

 ----------------------------------------------------------------------
 # B3LYP/6-311++G(d,p) empiricaldispersion=gd3bj scf=xqc pop=npa geom=c
 heck
 ----------------------------------------------------------------------

 ------------------------------------
 CID_118545059_JID_319_Energie_kation
 ------------------------------------
 Structure from the checkpoint file:  "JID_319.chk"
 Charge =  1 Multiplicity = 2

 SCF Done:  E(UB3LYP) =  -444.916835937     A.U. after   21 cycles
 Normal termination of Gaussian 16 at Tue Dec  8 10:46:15 2020.
 Gaussian 16:  ES64L-G16RevA.03 25-Dec-2016

 ----------------------------------------------------------------------
 # B3LYP/6-311++G(d,p) empiricaldispersion=gd3bj scf=xqc pop=npa geom=c
 heck
 ----------------------------------------------------------------------

 -----------------------------------
 CID_118545059_JID_319_Energie_anion
 -----------------------------------
 Structure from the checkpoint file:  "JID_319.chk"
 Charge = -1 Multiplicity = 2

                         Standard orientation:
 ---------------------------------------------------------------------
 Center     Atomic      Atomic             Coordinates (Angstroms)
 Number     Number       Type             X           Y           Z
 ---------------------------------------------------------------------
      1          6           0       -0.667278    1.801558    0.123748
      2          6           0       -0.563947    0.420426   -0.490510
      3          7           0        0.404601   -0.405875   -0.526670
      4          6           0        1.740007   -0.196549    0.065377
      5          6           0        2.470099    1.000852   -0.572092
      6          6           0        1.662834   -0.069565    1.598531
      7          6           0        2.528933   -1.475680   -0.273071
      8          6           0       -1.861773   -0.068837   -1.125985
      9          6           0       -2.660939   -0.939548   -0.160180
     10          8           0       -3.064079   -0.132835    0.946233
     11          1           0        0.225971    2.129216    0.650271
     12          1           0       -1.516070    1.802682    0.816294
     13          1           0       -0.893952    2.533647   -0.662269
     14          1           0        2.012142    1.960018   -0.319443
     15          1           0        3.512828    1.028765   -0.235589
     16          1           0        2.468022    0.901305   -1.662936
     17          1           0        1.103299   -0.914542    2.014237
     18          1           0        2.670223   -0.082626    2.030208
     19          1           0        1.171114    0.850913    1.922174
     20          1           0        2.024669   -2.352212    0.146588
     21          1           0        2.583968   -1.609843   -1.358277
     22          1           0        3.548326   -1.430857    0.127719
     23          1           0       -2.487348    0.773140   -1.445832
     24          1           0       -1.615199   -0.674662   -2.003084
     25          1           0       -3.537672   -1.360537   -0.677630
     26          1           0       -2.020309   -1.771553    0.166556
     27          1           0       -3.457203   -0.714986    1.612941
 ---------------------------------------------------------------------

 SCF Done:  E(UB3LYP) =  -445.205955698     A.U. after   30 cycles

 The electronic state is 2-A.
 Alpha  occ. eigenvalues --  -19.00873 -14.18062 -10.10741 -10.10386 -10.10348
 Alpha  occ. eigenvalues --  -10.05820 -10.05802 -10.05480 -10.05426 -10.04885
 Alpha  occ. eigenvalues --   -0.90880  -0.80988  -0.70119  -0.64322  -0.61501
 Alpha  occ. eigenvalues --   -0.58650  -0.57884  -0.51990  -0.47385  -0.41337
 Alpha  occ. eigenvalues --   -0.39477  -0.36329  -0.35816  -0.34637  -0.33931
 Alpha  occ. eigenvalues --   -0.32251  -0.30145  -0.29226  -0.28846  -0.28381
 Alpha  occ. eigenvalues --   -0.28034  -0.26477  -0.26169  -0.25559  -0.24018
 Alpha  occ. eigenvalues --   -0.22933  -0.21474  -0.17206  -0.16333  -0.12618
 Alpha  occ. eigenvalues --    0.04698
 Alpha virt. eigenvalues --    0.06718   0.07761   0.08422   0.09388   0.09500
 Alpha virt. eigenvalues --    0.10157   0.10590   0.10812   0.11173   0.12174
 Alpha virt. eigenvalues --    0.12390   0.12982   0.13463   0.14277   0.14687

  Beta  occ. eigenvalues --  -19.00823 -14.18040 -10.10730 -10.10352 -10.10347
  Beta  occ. eigenvalues --  -10.05811 -10.05779 -10.05447 -10.05406 -10.04869
  Beta  occ. eigenvalues --   -0.90775  -0.80953  -0.70091  -0.64265  -0.61449
  Beta  occ. eigenvalues --   -0.58600  -0.57846  -0.51908  -0.47336  -0.41213
  Beta  occ. eigenvalues --   -0.39420  -0.36292  -0.35774  -0.34597  -0.33898
  Beta  occ. eigenvalues --   -0.32206  -0.30116  -0.29190  -0.28815  -0.28350
  Beta  occ. eigenvalues --   -0.27994  -0.26437  -0.26144  -0.25531  -0.23981
  Beta  occ. eigenvalues --   -0.22883  -0.21440  -0.17134  -0.16269  -0.12587
  Beta virt. eigenvalues --    0.06890   0.07974   0.08540   0.08862   0.09789
  Beta virt. eigenvalues --    0.09969   0.10585   0.10858   0.11137   0.11448
  Beta virt. eigenvalues --    0.12600   0.12738   0.13437   0.13648   0.14400

 Mulliken charges and spin densities:
               1          2
     1  C    1.377196  -2.153995
     2  C   -0.095892   0.440039
     3  N    0.239846  -0.016384
     4  C   -1.790995   1.533311
     5  C    1.080167  -1.521371
     6  C    0.556714  -0.968031
     7  C    0.085657  -0.449922
     8  C   -2.040145   1.783292
     9  C    1.762768  -2.197557
    10  O   -0.330368   0.040872
    11  H    0.351132  -0.250031
    12  H    0.198377   0.016690
    13  H   -0.310643   0.464183
    14  H   -0.501220   0.636505
    15  H   -0.119818   0.263471
    16  H   -0.051627   0.202493
    17  H   -0.029045   0.181696
    18  H   -0.037104   0.182227
    19  H   -0.159350   0.290731
    20  H    0.021317   0.126600
    21  H   -0.022020   0.168247
    22  H    0.002906   0.108382
    23  H    0.009179   0.163438
    24  H   -0.131580   0.296017
    25  H   -0.557425   0.708493
    26  H   -0.218056   0.385555
    27  H   -0.289972   0.565048
 Sum of Mulliken charges =  -1.00000   1.00000

 Dipole moment (field-independent basis, Debye):
    X=              3.5044    Y=              0.7992    Z=             -1.1380  Tot=              3.7702
 Quadrupole moment (field-independent basis, Debye-Ang):
   XX=           -131.4957   YY=           -101.1861   ZZ=            -96.9905
   XY=            -10.1181   XZ=              6.9148   YZ=              2.0991

 Summary of Natural Population Analysis:

                                       Natural Population
                Natural  -----------------------------------------------
    Atom  No    Charge         Core      Valence    Rydberg      Total
 -----------------------------------------------------------------------
      C    1   -0.32836      0.99960     2.32279    0.00596     3.32836
      C    2    0.16992      0.99958     1.81546    0.01504     2.83008
      N    3   -0.25488      0.99963     2.74173    0.01352     3.75488
      C    4    0.03833      0.99958     1.94796    0.01414     2.96167
      C    5   -0.28936      0.99962     2.28266    0.00709     3.28936
      C    6   -0.28717      0.99962     2.28168    0.00588     3.28717
      C    7   -0.27851      0.99963     2.27236    0.00652     3.27851
      C    8   -0.21736      0.99958     2.20797    0.00981     3.21736
      C    9   -0.00359      0.99960     1.99147    0.01252     3.00359
      O   10   -0.37714      0.99989     3.37011    0.00714     4.37714
      H   11    0.10057      0.00000     0.39841    0.00102     0.39943
      H   12    0.12191      0.00000     0.37659    0.00150     0.37809
      H   13    0.10676      0.00000     0.39200    0.00125     0.39324
      H   14    0.09987      0.00000     0.39895    0.00119     0.40013
      H   15    0.09938      0.00000     0.39951    0.00110     0.40062
      H   16    0.10178      0.00000     0.39717    0.00105     0.39822
      H   17    0.10399      0.00000     0.39482    0.00119     0.39601
      H   18    0.09777      0.00000     0.40116    0.00107     0.40223
      H   19    0.09946      0.00000     0.39940    0.00114     0.40054
      H   20    0.10142      0.00000     0.39738    0.00120     0.39858
      H   21    0.10057      0.00000     0.39830    0.00113     0.39943
      H   22    0.09249      0.00000     0.40659    0.00092     0.40751
      H   23    0.09767      0.00000     0.40083    0.00151     0.40233
      H   24    0.10993      0.00000     0.38859    0.00147     0.39007
      H   25    0.07646      0.00000     0.42119    0.00235     0.42354
      H   26    0.08157      0.00000     0.41621    0.00221     0.41843
      H   27    0.23653      0.00000     0.25088    0.01259     0.26347
 =======================================================================
   * Total *   -0.00000      9.99633    29.87216    0.13152    40.00000

 Normal termination of Gaussian 16 at Tue Dec  8 10:56:05 2020.
