 Gaussian 16, Revision A.03,

 -----------------------------------------------------------
 # opt freq B3LYP/6-31G(d) empiricaldispersion=gd3bj scf=xqc
 -----------------------------------------------------------

 ------------------------------
 CID_148502231_JID_960_neutraal
 ------------------------------
 Symbolic Z-matrix:
 Charge =  0 Multiplicity = 1

 SCF Done:  E(RB3LYP) =  -457.469365860     A.U. after   15 cycles
 SCF Done:  E(RB3LYP) =  -457.479306461     A.U. after   13 cycles
 SCF Done:  E(RB3LYP) =  -457.480436805     A.U. after   11 cycles
 SCF Done:  E(RB3LYP) =  -457.480734103     A.U. after   11 cycles
 SCF Done:  E(RB3LYP) =  -457.480845171     A.U. after   11 cycles
 SCF Done:  E(RB3LYP) =  -457.480879369     A.U. after   10 cycles
 SCF Done:  E(RB3LYP) =  -457.480893910     A.U. after    9 cycles
 SCF Done:  E(RB3LYP) =  -457.480895093     A.U. after    9 cycles
 SCF Done:  E(RB3LYP) =  -457.480895228     A.U. after    7 cycles
 SCF Done:  E(RB3LYP) =  -457.480895273     A.U. after    7 cycles
 Optimization completed.
    -- Stationary point found.
 Normal termination of Gaussian 16 at Tue Dec  8 13:30:38 2020.

 --------------------------------------------------------------------
 #N Geom=AllCheck Guess=TCheck SCRF=Check GenChk RB3LYP/6-31G(d) Freq
 --------------------------------------------------------------------

 Structure from the checkpoint file:  "JID_960.chk"
 ------------------------------
 CID_148502231_JID_960_neutraal
 ------------------------------
 Charge =  0 Multiplicity = 1

 SCF Done:  E(RB3LYP) =  -457.480895273     A.U. after    1 cycles

  Exact polarizability: 104.840  -2.666  93.686  -0.417  -0.131  55.085
 Approx polarizability: 142.079  -7.280 148.992   1.053   1.391  85.582

                      1                      2                      3
                      A                      A                      A
 Frequencies --     96.7142               176.9036               209.8306
 Red. masses --      3.0193                 3.8493                 2.7019
 Frc consts  --      0.0166                 0.0710                 0.0701
 IR Inten    --      0.2418                 0.1091                25.2715

                      4                      5                      6
                      A                      A                      A
 Frequencies --    240.1801               297.7153               324.0704
 Red. masses --      2.0873                 2.9612                 2.0324
 Frc consts  --      0.0709                 0.1546                 0.1258
 IR Inten    --      0.9593                 3.9746                 3.1552

                      7                      8                      9
                      A                      A                      A
 Frequencies --    356.2998               437.5243               472.2651
 Red. masses --      1.3579                 4.7472                 3.9310
 Frc consts  --      0.1016                 0.5354                 0.5166
 IR Inten    --     26.5352                 0.4728                 1.5496

                     10                     11                     12
                      A                      A                      A
 Frequencies --    537.9055               566.2775               630.6838
 Red. masses --      3.7945                 2.9145                 1.8235
 Frc consts  --      0.6469                 0.5506                 0.4273
 IR Inten    --      7.3720                18.1381               167.8532

                     13                     14                     15
                      A                      A                      A
 Frequencies --    672.1431               709.7427               736.2020
 Red. masses --      3.4224                 1.9107                 3.9039
 Frc consts  --      0.9110                 0.5671                 1.2466
 IR Inten    --     15.0178                62.8548                12.7782

                     16                     17                     18
                      A                      A                      A
 Frequencies --    762.2753               783.7854               905.5461
 Red. masses --      1.9063                 3.4349                 2.8846
 Frc consts  --      0.6526                 1.2433                 1.3937
 IR Inten    --    106.0723                 8.6583                 6.3981

                     19                     20                     21
                      A                      A                      A
 Frequencies --    939.1424               956.6739               983.5824
 Red. masses --      2.1922                 2.9967                 1.5543
 Frc consts  --      1.1392                 1.6160                 0.8859
 IR Inten    --     13.3488                17.1729                10.8103

                     22                     23                     24
                      A                      A                      A
 Frequencies --   1006.5954              1070.0768              1087.6102
 Red. masses --      2.3667                 2.6744                 2.9170
 Frc consts  --      1.4129                 1.8043                 2.0330
 IR Inten    --     17.1051                 3.3602                17.2503

                     25                     26                     27
                      A                      A                      A
 Frequencies --   1101.6319              1111.6721              1154.9591
 Red. masses --      2.5366                 4.2055                 1.2815
 Frc consts  --      1.8137                 3.0621                 1.0072
 IR Inten    --     10.2085                39.9990                 0.6115

                     28                     29                     30
                      A                      A                      A
 Frequencies --   1184.0638              1219.4418              1228.8595
 Red. masses --      1.3193                 1.3580                 1.8341
 Frc consts  --      1.0898                 1.1898                 1.6318
 IR Inten    --      1.8774                21.7460                 4.7061

                     31                     32                     33
                      A                      A                      A
 Frequencies --   1254.9270              1282.9976              1305.9987
 Red. masses --      1.4627                 1.6159                 1.7074
 Frc consts  --      1.3572                 1.5671                 1.7158
 IR Inten    --      7.1522                10.5984                24.5603

                     34                     35                     36
                      A                      A                      A
 Frequencies --   1335.8026              1352.0286              1377.9480
 Red. masses --      1.3008                 1.4574                 1.6281
 Frc consts  --      1.3676                 1.5697                 1.8214
 IR Inten    --      1.9287                19.2974                10.0349

                     37                     38                     39
                      A                      A                      A
 Frequencies --   1402.2375              1412.9345              1515.7755
 Red. masses --      2.2442                 1.5560                 1.0933
 Frc consts  --      2.5999                 1.8302                 1.4800
 IR Inten    --     68.5639                10.2663                 0.4768

                     40                     41                     42
                      A                      A                      A
 Frequencies --   1516.5321              1544.4311              1656.6030
 Red. masses --      1.0852                 1.0956                 1.2642
 Frc consts  --      1.4705                 1.5397                 2.0442
 IR Inten    --      2.2540                 1.9138                41.3189

                     43                     44                     45
                      A                      A                      A
 Frequencies --   1709.0063              1764.7881              2966.0676
 Red. masses --      4.4130                11.1488                 1.0736
 Frc consts  --      7.5940                20.4581                 5.5647
 IR Inten    --     98.9393               146.2305                34.0926

                     46                     47                     48
                      A                      A                      A
 Frequencies --   2986.4641              2993.0865              3016.7515
 Red. masses --      1.0720                 1.0728                 1.0807
 Frc consts  --      5.6332                 5.6625                 5.7946
 IR Inten    --     47.6891                56.8560                41.2321

                     49                     50                     51
                      A                      A                      A
 Frequencies --   3077.7352              3100.8560              3130.2564
 Red. masses --      1.0881                 1.0912                 1.0937
 Frc consts  --      6.0727                 6.1817                 6.3143
 IR Inten    --     28.6412                19.1831                36.9250

                     52                     53                     54
                      A                      A                      A
 Frequencies --   3191.1140              3543.6502              3651.0175
 Red. masses --      1.0904                 1.0473                 1.0983
 Frc consts  --      6.5424                 7.7483                 8.6255
 IR Inten    --     23.8140                11.1687                10.6139

 - Thermochemistry -
 -------------------
 Temperature   298.150 Kelvin.  Pressure   1.00000 Atm.
 Atom     1 has atomic number  6 and mass  12.00000

 Molecular mass:   138.07931 amu.
 Principal axes and moments of inertia in atomic units:
                           1         2         3
     Eigenvalues --   604.502701772.527722289.87633
           X            0.99999  -0.00408  -0.00132
           Y            0.00408   0.99999  -0.00283
           Z            0.00133   0.00283   1.00000
 This molecule is an asymmetric top.
 Rotational symmetry number  1.
 Warning -- assumption of classical behavior for rotation
           may cause significant error
 Rotational temperatures (Kelvin)      0.14328     0.04886     0.03782
 Rotational constants (GHZ):           2.98550     1.01817     0.78814
 Zero-point vibrational energy     442913.7 (Joules/Mol)
                                  105.85891 (Kcal/Mol)
 Warning -- explicit consideration of  11 degrees of freedom as
           vibrations may cause significant error
 Vibrational temperatures:    139.15   254.52   301.90   345.57   428.35
          (Kelvin)            466.27   512.64   629.50   679.48   773.93
                              814.75   907.41   967.06  1021.16  1059.23
                             1096.74  1127.69  1302.88  1351.22  1376.44
                             1415.16  1448.27  1539.60  1564.83  1585.00
                             1599.45  1661.73  1703.60  1754.50  1768.05
                             1805.56  1845.95  1879.04  1921.92  1945.27
                             1982.56  2017.51  2032.90  2180.86  2181.95
                             2222.09  2383.48  2458.88  2539.14  4267.51
                             4296.86  4306.38  4340.43  4428.17  4461.44
                             4503.74  4591.30  5098.52  5253.00

 Zero-point correction=                           0.168697 (Hartree/Particle)
 Thermal correction to Energy=                    0.177115
 Thermal correction to Enthalpy=                  0.178059
 Thermal correction to Gibbs Free Energy=         0.135687
 Sum of electronic and zero-point Energies=           -457.312198
 Sum of electronic and thermal Energies=              -457.303780
 Sum of electronic and thermal Enthalpies=            -457.302836
 Sum of electronic and thermal Free Energies=         -457.345208

                     E (Thermal)             CV                S
                      KCal/Mol        Cal/Mol-Kelvin    Cal/Mol-Kelvin
 Total                  111.141             33.517             89.179
 Electronic               0.000              0.000              0.000
 Translational            0.889              2.981             40.680
 Rotational               0.889              2.981             29.285
 Vibrational            109.364             27.556             19.214
 Vibration     1          0.603              1.952              3.519
 Vibration     2          0.628              1.871              2.361
 Vibration     3          0.642              1.826              2.045
 Vibration     4          0.657              1.779              1.802
 Vibration     5          0.691              1.678              1.430
 Vibration     6          0.709              1.627              1.289
 Vibration     7          0.732              1.562              1.138
 Vibration     8          0.798              1.388              0.834
 Vibration     9          0.829              1.312              0.731
 Vibration    10          0.893              1.166              0.570
 Vibration    11          0.922              1.104              0.511

 Optimization completed.
    -- Stationary point found.
 Normal termination of Gaussian 16 at Tue Dec  8 13:35:49 2020.

 ----------------------------------------------------------------------
 # B3LYP/6-311++G(d,p) empiricaldispersion=gd3bj scf=xqc pop=npa geom=c
 heck
 ----------------------------------------------------------------------

 --------------------------------------
 CID_148502231_JID_960_Energie_neutraal
 --------------------------------------
 Structure from the checkpoint file:  "JID_960.chk"
 Charge =  0 Multiplicity = 1

 SCF Done:  E(RB3LYP) =  -457.615577137     A.U. after   14 cycles
 Normal termination of Gaussian 16 at Tue Dec  8 13:37:17 2020.

 ----------------------------------------------------------------------
 # B3LYP/6-311++G(d,p) empiricaldispersion=gd3bj scf=xqc pop=npa geom=c
 heck
 ----------------------------------------------------------------------

 ------------------------------------
 CID_148502231_JID_960_Energie_kation
 ------------------------------------
 Structure from the checkpoint file:  "JID_960.chk"
 Charge =  1 Multiplicity = 2

 SCF Done:  E(UB3LYP) =  -457.336459742     A.U. after   21 cycles
 Normal termination of Gaussian 16 at Tue Dec  8 13:40:20 2020.
 Gaussian 16:  ES64L-G16RevA.03 25-Dec-2016

 ----------------------------------------------------------------------
 # B3LYP/6-311++G(d,p) empiricaldispersion=gd3bj scf=xqc pop=npa geom=c
 heck
 ----------------------------------------------------------------------

 -----------------------------------
 CID_148502231_JID_960_Energie_anion
 -----------------------------------
 Structure from the checkpoint file:  "JID_960.chk"
 Charge = -1 Multiplicity = 2

                         Standard orientation:
 ---------------------------------------------------------------------
 Center     Atomic      Atomic             Coordinates (Angstroms)
 Number     Number       Type             X           Y           Z
 ---------------------------------------------------------------------
      1          6           0        0.283169    1.729437    0.243848
      2          6           0        1.678576    1.168875    0.079589
      3          6           0        1.872499   -0.165294    0.002069
      4          7           0        0.816129   -1.104613    0.163399
      5          6           0       -0.361529   -0.653395   -0.014444
      6          6           0       -0.715515    0.768667   -0.401078
      7          6           0       -2.189068    0.821954    0.016479
      8          8           0       -2.682065   -0.507795   -0.181871
      9          6           0       -1.650155   -1.413082    0.200364
     10          7           0        3.089683   -0.803281   -0.230649
     11          1           0        0.032932    1.864755    1.311185
     12          1           0        0.206735    2.721184   -0.215740
     13          1           0        2.525831    1.848157    0.065896
     14          1           0       -0.637864    0.838715   -1.497278
     15          1           0       -2.806451    1.491183   -0.586723
     16          1           0       -2.276970    1.116973    1.075770
     17          1           0       -1.724928   -2.314707   -0.415909
     18          1           0       -1.744336   -1.710975    1.258155
     19          1           0        3.123131   -1.728980    0.180166
     20          1           0        3.909906   -0.251647   -0.010766
 ---------------------------------------------------------------------

 SCF Done:  E(UB3LYP) =  -457.604309153     A.U. after   32 cycles

 The electronic state is 2-A.
 Alpha  occ. eigenvalues --  -19.01038 -14.18099 -14.16186 -10.10018 -10.09965
 Alpha  occ. eigenvalues --  -10.08819 -10.06819 -10.05207 -10.04646 -10.01096
 Alpha  occ. eigenvalues --   -0.92725  -0.81751  -0.75443  -0.67031  -0.61746
 Alpha  occ. eigenvalues --   -0.60609  -0.51989  -0.48202  -0.47101  -0.40022
 Alpha  occ. eigenvalues --   -0.38332  -0.37672  -0.34772  -0.33725  -0.32739
 Alpha  occ. eigenvalues --   -0.29935  -0.28647  -0.27969  -0.25166  -0.24777
 Alpha  occ. eigenvalues --   -0.23985  -0.21957  -0.20413  -0.16150  -0.14834
 Alpha  occ. eigenvalues --   -0.12247  -0.06694   0.05315
 Alpha virt. eigenvalues --    0.07862   0.08566   0.09285   0.10052   0.10592
 Alpha virt. eigenvalues --    0.11372   0.12290   0.12684   0.13001   0.13898
 Alpha virt. eigenvalues --    0.15365   0.17411   0.17813   0.18168   0.18632

  Beta  occ. eigenvalues --  -19.01038 -14.18051 -14.16052 -10.09996 -10.09992
  Beta  occ. eigenvalues --  -10.08788 -10.06499 -10.05231 -10.04621 -10.00994
  Beta  occ. eigenvalues --   -0.92701  -0.81480  -0.75244  -0.66921  -0.61442
  Beta  occ. eigenvalues --   -0.60505  -0.51878  -0.48084  -0.46812  -0.39804
  Beta  occ. eigenvalues --   -0.38162  -0.37571  -0.34689  -0.33581  -0.32553
  Beta  occ. eigenvalues --   -0.29696  -0.28536  -0.27840  -0.24812  -0.24587
  Beta  occ. eigenvalues --   -0.23767  -0.21659  -0.20355  -0.15603  -0.14605
  Beta  occ. eigenvalues --   -0.12073  -0.06132
  Beta virt. eigenvalues --    0.08247   0.08934   0.09551   0.09875   0.10745
  Beta virt. eigenvalues --    0.11122   0.11909   0.12600   0.12741   0.13507
  Beta virt. eigenvalues --    0.14231   0.15334   0.17443   0.17884   0.18129

 Mulliken charges and spin densities:
               1          2
     1  C    1.246282  -2.044487
     2  C   -1.112924   1.529557
     3  C    0.809243  -1.248043
     4  N   -0.108166   0.053944
     5  C    0.087318  -0.257006
     6  C   -0.647938   1.324723
     7  C    0.494751  -1.056052
     8  O   -0.164190   0.016364
     9  C   -0.049225  -0.247294
    10  N   -0.368378   0.069812
    11  H   -0.194547   0.296043
    12  H   -0.065706   0.204779
    13  H   -0.547110   0.692926
    14  H   -0.169279   0.357667
    15  H   -0.377280   0.549637
    16  H    0.173439  -0.054600
    17  H    0.027530   0.156596
    18  H    0.137465   0.016770
    19  H    0.113965   0.115615
    20  H   -0.285250   0.523051
 Sum of Mulliken charges =  -1.00000   1.00000

 Dipole moment (field-independent basis, Debye):
    X=             -3.3627    Y=             -1.9378    Z=              1.7624  Tot=              4.2625
 Quadrupole moment (field-independent basis, Debye-Ang):
   XX=           -112.1590   YY=            -89.5811   ZZ=            -78.2908
   XY=             -0.4185   XZ=             -4.9443   YZ=              0.5360

 Summary of Natural Population Analysis:

                                       Natural Population
                Natural  -----------------------------------------------
    Atom  No    Charge         Core      Valence    Rydberg      Total
 -----------------------------------------------------------------------
      C    1   -0.19300      0.99962     2.18258    0.01081     3.19300
      C    2   -0.15194      0.99949     2.14243    0.01003     3.15194
      C    3    0.17116      0.99945     1.81453    0.01486     2.82884
      N    4   -0.24924      0.99961     2.73761    0.01202     3.74924
      C    5    0.20625      0.99957     1.78031    0.01387     2.79375
      C    6   -0.15383      0.99955     2.14332    0.01095     3.15383
      C    7   -0.00317      0.99958     1.98950    0.01409     3.00317
      O    8   -0.30308      0.99990     3.29486    0.00833     4.30308
      C    9   -0.03013      0.99955     2.01902    0.01157     3.03013
      N   10   -0.40395      0.99971     2.89300    0.01124     3.90395
      H   11    0.09019      0.00000     0.40816    0.00164     0.40981
      H   12    0.10222      0.00000     0.39543    0.00235     0.39778
      H   13    0.09447      0.00000     0.40438    0.00115     0.40553
      H   14    0.11246      0.00000     0.38519    0.00235     0.38754
      H   15    0.09107      0.00000     0.40701    0.00192     0.40893
      H   16    0.07271      0.00000     0.42574    0.00155     0.42729
      H   17    0.09587      0.00000     0.40202    0.00212     0.40413
      H   18    0.08416      0.00000     0.41414    0.00170     0.41584
      H   19    0.18407      0.00000     0.31338    0.00254     0.31593
      H   20    0.18371      0.00000     0.31257    0.00371     0.31629
 =======================================================================
   * Total *   -0.00000      9.99602    26.86518    0.13880    37.00000

 Normal termination of Gaussian 16 at Tue Dec  8 13:45:04 2020.
