 Gaussian 16, Revision A.03,

 -----------------------------------------------------------
 # opt freq B3LYP/6-31G(d) empiricaldispersion=gd3bj scf=xqc
 -----------------------------------------------------------

 ------------------------------
 CID_16124899_JID_6120_neutraal
 ------------------------------
 Symbolic Z-matrix:
 Charge =  0 Multiplicity = 1

 SCF Done:  E(RB3LYP) =  -1051.31602166     A.U. after   15 cycles
 SCF Done:  E(RB3LYP) =  -1051.31908137     A.U. after   13 cycles
 SCF Done:  E(RB3LYP) =  -1051.31979103     A.U. after   12 cycles
 SCF Done:  E(RB3LYP) =  -1051.31999204     A.U. after   12 cycles
 SCF Done:  E(RB3LYP) =  -1051.32005651     A.U. after   10 cycles
 SCF Done:  E(RB3LYP) =  -1051.32007538     A.U. after   10 cycles
 SCF Done:  E(RB3LYP) =  -1051.32008631     A.U. after    9 cycles
 SCF Done:  E(RB3LYP) =  -1051.32008727     A.U. after    7 cycles
 SCF Done:  E(RB3LYP) =  -1051.32008765     A.U. after    8 cycles
 SCF Done:  E(RB3LYP) =  -1051.32008779     A.U. after    7 cycles
 SCF Done:  E(RB3LYP) =  -1051.32008792     A.U. after    7 cycles
 SCF Done:  E(RB3LYP) =  -1051.32008803     A.U. after    7 cycles
 SCF Done:  E(RB3LYP) =  -1051.32008807     A.U. after    7 cycles
 Optimization completed.
    -- Stationary point found.
 Normal termination of Gaussian 16 at Thu Dec 10 21:11:26 2020.

 --------------------------------------------------------------------
 #N Geom=AllCheck Guess=TCheck SCRF=Check GenChk RB3LYP/6-31G(d) Freq
 --------------------------------------------------------------------

 Structure from the checkpoint file:  "JID_6120.chk"
 ------------------------------
 CID_16124899_JID_6120_neutraal
 ------------------------------
 Charge =  0 Multiplicity = 1

 SCF Done:  E(RB3LYP) =  -1051.32008807     A.U. after    1 cycles

  Exact polarizability: 277.398   2.624 158.462   1.925  -7.120  72.961
 Approx polarizability: 381.473  -3.995 298.209   2.753 -12.938 116.600

                      1                      2                      3
                      A                      A                      A
 Frequencies --     40.6652                43.7904                73.8086
 Red. masses --      3.8113                 5.0146                 4.9722
 Frc consts  --      0.0037                 0.0057                 0.0160
 IR Inten    --      0.0056                 2.0061                 0.2533

                      4                      5                      6
                      A                      A                      A
 Frequencies --     81.1678               114.0498               129.3790
 Red. masses --      4.9758                 2.4349                 1.0921
 Frc consts  --      0.0193                 0.0187                 0.0108
 IR Inten    --      0.4781                 0.5356                 0.1913

                      7                      8                      9
                      A                      A                      A
 Frequencies --    143.9729               157.2614               178.7016
 Red. masses --      1.3874                 3.8723                 4.5539
 Frc consts  --      0.0169                 0.0564                 0.0857
 IR Inten    --      0.0683                 0.6573                 3.9839

                     10                     11                     12
                      A                      A                      A
 Frequencies --    225.9426               241.7414               289.2005
 Red. masses --      3.9036                 6.4126                 3.7482
 Frc consts  --      0.1174                 0.2208                 0.1847
 IR Inten    --      0.1917                 0.3227                 0.8668

                     13                     14                     15
                      A                      A                      A
 Frequencies --    309.3180               323.6564               381.2467
 Red. masses --      4.4202                 5.6259                 7.5943
 Frc consts  --      0.2492                 0.3472                 0.6504
 IR Inten    --      9.0327                12.0193                 7.8045

                     16                     17                     18
                      A                      A                      A
 Frequencies --    399.5182               414.6491               474.2775
 Red. masses --      5.6576                 3.0391                 4.7465
 Frc consts  --      0.5321                 0.3079                 0.6291
 IR Inten    --      2.6066                 0.1472                 2.0179

                     19                     20                     21
                      A                      A                      A
 Frequencies --    516.4460               575.0079               588.4582
 Red. masses --      6.5460                 4.5600                 5.0704
 Frc consts  --      1.0287                 0.8883                 1.0345
 IR Inten    --      0.6083                 3.4070                 1.9998

                     22                     23                     24
                      A                      A                      A
 Frequencies --    623.8085               635.5675               666.5890
 Red. masses --      3.2712                 6.0470                 6.8578
 Frc consts  --      0.7500                 1.4392                 1.7954
 IR Inten    --      1.7816                 0.4093                 3.4933

                     25                     26                     27
                      A                      A                      A
 Frequencies --    706.7543               736.7478               757.6969
 Red. masses --      1.9234                 5.4701                 9.4473
 Frc consts  --      0.5661                 1.7494                 3.1956
 IR Inten    --     20.4618                 6.2513                 7.9766

                     28                     29                     30
                      A                      A                      A
 Frequencies --    778.0897               811.5897               853.0820
 Red. masses --      1.8796                 5.3605                 1.3134
 Frc consts  --      0.6705                 2.0803                 0.5632
 IR Inten    --     42.5954                 2.2057                 5.3830

                     31                     32                     33
                      A                      A                      A
 Frequencies --    857.0332               927.4517               935.4810
 Red. masses --      1.3178                 1.4224                 5.1743
 Frc consts  --      0.5703                 0.7209                 2.6679
 IR Inten    --      6.3674                 2.1949                 7.4290

                     34                     35                     36
                      A                      A                      A
 Frequencies --    963.0202               967.8052               996.3095
 Red. masses --      6.6863                 1.3547                 1.2596
 Frc consts  --      3.6535                 0.7476                 0.7367
 IR Inten    --     15.0449                 0.3867                 0.1268

                     37                     38                     39
                      A                      A                      A
 Frequencies --   1017.4835              1022.4523              1063.2881
 Red. masses --      3.3610                 3.3321                 2.0788
 Frc consts  --      2.0501                 2.0524                 1.3847
 IR Inten    --      1.6268                 0.2399                 2.4072

                     40                     41                     42
                      A                      A                      A
 Frequencies --   1071.4817              1076.8105              1117.1153
 Red. masses --      1.4889                 2.6133                 1.6030
 Frc consts  --      1.0071                 1.7853                 1.1787
 IR Inten    --      3.4726                10.5674                 4.6845

                     43                     44                     45
                      A                      A                      A
 Frequencies --   1132.9167              1185.5229              1195.7249
 Red. masses --      6.2794                 1.2714                 1.0949
 Frc consts  --      4.7486                 1.0528                 0.9223
 IR Inten    --    196.7665                 0.8463                 0.0690

                     46                     47                     48
                      A                      A                      A
 Frequencies --   1220.5537              1221.6686              1236.3519
 Red. masses --      1.1939                 1.4771                 1.4101
 Frc consts  --      1.0479                 1.2988                 1.2700
 IR Inten    --     17.6643                46.5768                 0.9040

                     49                     50                     51
                      A                      A                      A
 Frequencies --   1269.0599              1318.0637              1343.5522
 Red. masses --      4.5196                 6.5502                 3.5657
 Frc consts  --      4.2886                 6.7047                 3.7923
 IR Inten    --      5.6253               542.3710                55.5400

                     52                     53                     54
                      A                      A                      A
 Frequencies --   1373.0007              1420.1589              1442.9952
 Red. masses --      1.7509                 3.9274                 1.2407
 Frc consts  --      1.9447                 4.6669                 1.5221
 IR Inten    --      1.1822               100.2966                 6.4222

                     55                     56                     57
                      A                      A                      A
 Frequencies --   1481.8045              1495.6898              1503.1406
 Red. masses --      2.1665                 1.6290                 2.4307
 Frc consts  --      2.8028                 2.1471                 3.2358
 IR Inten    --     75.2715                84.4013                96.3991

                     58                     59                     60
                      A                      A                      A
 Frequencies --   1510.2022              1511.3692              1523.8924
 Red. masses --      1.0451                 1.0483                 1.1868
 Frc consts  --      1.4044                 1.4109                 1.6238
 IR Inten    --      6.8055                 4.9676                 6.7419

                     61                     62                     63
                      A                      A                      A
 Frequencies --   1526.5935              1549.4293              1597.9897
 Red. masses --      1.0551                 2.5120                 5.9898
 Frc consts  --      1.4488                 3.5532                 9.0118
 IR Inten    --      6.1821                 1.4669                 6.6088

                     64                     65                     66
                      A                      A                      A
 Frequencies --   1636.6091              1663.5108              1780.1384
 Red. masses --      5.3835                 5.4962                11.7037
 Frc consts  --      8.4957                 8.9612                21.8515
 IR Inten    --      1.5581                 5.1430               316.7371

                     67                     68                     69
                      A                      A                      A
 Frequencies --   3064.8836              3075.4069              3128.0017
 Red. masses --      1.0352                 1.0293                 1.1006
 Frc consts  --      5.7291                 5.7358                 6.3448
 IR Inten    --     22.6426                47.4505                 9.7134

                     70                     71                     72
                      A                      A                      A
 Frequencies --   3138.4489              3149.9237              3180.8080
 Red. masses --      1.1039                 1.1075                 1.1072
 Frc consts  --      6.4064                 6.4741                 6.6004
 IR Inten    --     17.9852                20.4575                18.3517

                     73                     74                     75
                      A                      A                      A
 Frequencies --   3186.2223              3192.6327              3201.7644
 Red. masses --      1.0850                 1.0876                 1.0912
 Frc consts  --      6.4896                 6.5317                 6.5907
 IR Inten    --      4.0915                 2.8567                17.5039

                     76                     77                     78
                      A                      A                      A
 Frequencies --   3208.5254              3215.4163              3218.4117
 Red. masses --      1.0941                 1.0967                 1.0934
 Frc consts  --      6.6361                 6.6806                 6.6729
 IR Inten    --     21.9566                12.2200                18.4228

 - Thermochemistry -
 -------------------
 Temperature   298.150 Kelvin.  Pressure   1.00000 Atm.
 Atom     1 has atomic number  6 and mass  12.00000

 Molecular mass:   232.05580 amu.
 Principal axes and moments of inertia in atomic units:
                           1         2         3
     Eigenvalues --  1240.637278049.846629171.44125
           X            0.99998   0.00678   0.00086
           Y           -0.00678   0.99995  -0.00733
           Z           -0.00091   0.00733   0.99997
 This molecule is an asymmetric top.
 Rotational symmetry number  1.
 Warning -- assumption of classical behavior for rotation
           may cause significant error
 Rotational temperatures (Kelvin)      0.06981     0.01076     0.00944
 Rotational constants (GHZ):           1.45469     0.22420     0.19678
 Zero-point vibrational energy     576530.1 (Joules/Mol)
                                  137.79399 (Kcal/Mol)
 Warning -- explicit consideration of  21 degrees of freedom as
           vibrations may cause significant error
 Vibrational temperatures:     58.51    63.00   106.19   116.78   164.09
          (Kelvin)            186.15   207.14   226.26   257.11   325.08
                              347.81   416.10   445.04   465.67   548.53
                              574.82   596.59   682.38   743.05   827.31
                              846.66   897.52   914.44   959.07  1016.86
                             1060.02  1090.16  1119.50  1167.70  1227.39
                             1233.08  1334.40  1345.95  1385.57  1392.46
                             1433.47  1463.93  1471.08  1529.83  1541.62
                             1549.29  1607.28  1630.01  1705.70  1720.38
                             1756.10  1757.71  1778.83  1825.89  1896.40
                             1933.07  1975.44  2043.29  2076.15  2131.99
                             2151.96  2162.68  2172.84  2174.52  2192.54
                             2196.43  2229.28  2299.15  2354.72  2393.42
                             2561.22  4409.68  4424.82  4500.50  4515.53
                             4532.04  4576.47  4584.26  4593.49  4606.62
                             4616.35  4626.27  4630.58

 Zero-point correction=                           0.219589 (Hartree/Particle)
 Thermal correction to Energy=                    0.234532
 Thermal correction to Enthalpy=                  0.235476
 Thermal correction to Gibbs Free Energy=         0.176359
 Sum of electronic and zero-point Energies=          -1051.100499
 Sum of electronic and thermal Energies=             -1051.085556
 Sum of electronic and thermal Enthalpies=           -1051.084612
 Sum of electronic and thermal Free Energies=        -1051.143729

                     E (Thermal)             CV                S
                      KCal/Mol        Cal/Mol-Kelvin    Cal/Mol-Kelvin
 Total                  147.171             55.353            124.422
 Electronic               0.000              0.000              0.000
 Translational            0.889              2.981             42.227
 Rotational               0.889              2.981             32.882
 Vibrational            145.393             49.391             49.312
 Vibration     1          0.594              1.981              5.226
 Vibration     2          0.595              1.980              5.080
 Vibration     3          0.599              1.966              4.049
 Vibration     4          0.600              1.962              3.862
 Vibration     5          0.607              1.938              3.199
 Vibration     6          0.612              1.924              2.955
 Vibration     7          0.616              1.909              2.750
 Vibration     8          0.621              1.895              2.582
 Vibration     9          0.629              1.869              2.342
 Vibration    10          0.650              1.802              1.911
 Vibration    11          0.658              1.776              1.790
 Vibration    12          0.686              1.694              1.479
 Vibration    13          0.699              1.656              1.366
 Vibration    14          0.708              1.628              1.292
 Vibration    15          0.751              1.510              1.034
 Vibration    16          0.766              1.471              0.964
 Vibration    17          0.778              1.438              0.910
 Vibration    18          0.831              1.307              0.726
 Vibration    19          0.871              1.214              0.618
 Vibration    20          0.931              1.085              0.495
 Vibration    21          0.946              1.056              0.470

 Optimization completed.
    -- Stationary point found.
 Normal termination of Gaussian 16 at Thu Dec 10 21:19:21 2020.

 ----------------------------------------------------------------------
 # B3LYP/6-311++G(d,p) empiricaldispersion=gd3bj scf=xqc pop=npa geom=c
 heck
 ----------------------------------------------------------------------

 --------------------------------------
 CID_16124899_JID_6120_Energie_neutraal
 --------------------------------------
 Structure from the checkpoint file:  "JID_6120.chk"
 Charge =  0 Multiplicity = 1

 SCF Done:  E(RB3LYP) =  -1051.52099724     A.U. after   16 cycles
 Normal termination of Gaussian 16 at Thu Dec 10 21:22:44 2020.

 ----------------------------------------------------------------------
 # B3LYP/6-311++G(d,p) empiricaldispersion=gd3bj scf=xqc pop=npa geom=c
 heck
 ----------------------------------------------------------------------

 ------------------------------------
 CID_16124899_JID_6120_Energie_kation
 ------------------------------------
 Structure from the checkpoint file:  "JID_6120.chk"
 Charge =  1 Multiplicity = 2

 SCF Done:  E(UB3LYP) =  -1051.23469033     A.U. after   26 cycles
 Normal termination of Gaussian 16 at Thu Dec 10 21:30:05 2020.
 Gaussian 16:  ES64L-G16RevA.03 25-Dec-2016

 ----------------------------------------------------------------------
 # B3LYP/6-311++G(d,p) empiricaldispersion=gd3bj scf=xqc pop=npa geom=c
 heck
 ----------------------------------------------------------------------

 -----------------------------------
 CID_16124899_JID_6120_Energie_anion
 -----------------------------------
 Structure from the checkpoint file:  "JID_6120.chk"
 Charge = -1 Multiplicity = 2

                         Standard orientation:
 ---------------------------------------------------------------------
 Center     Atomic      Atomic             Coordinates (Angstroms)
 Number     Number       Type             X           Y           Z
 ---------------------------------------------------------------------
      1          6           0        2.168723    2.457773    0.296017
      2          6           0        1.231832    1.290103    0.149233
      3          6           0        1.601076   -0.037351   -0.007532
      4         16           0        0.217018   -1.092831   -0.137674
      5          6           0       -0.878537    0.249378    0.031221
      6          6           0       -0.181648    1.433148    0.168092
      7          6           0       -2.331297    0.059811    0.012942
      8          6           0       -3.174652    1.105405   -0.401944
      9          6           0       -4.556746    0.941905   -0.411931
     10          6           0       -5.125312   -0.271288   -0.018743
     11          6           0       -4.298065   -1.319642    0.387249
     12          6           0       -2.915713   -1.155926    0.406892
     13          6           0        2.915261   -0.673883   -0.083955
     14          8           0        3.090735   -1.871704   -0.221497
     15          8           0        3.931951    0.218598    0.014208
     16          6           0        5.244584   -0.356719   -0.056345
     17          1           0        2.817429    2.558753   -0.579470
     18          1           0        1.602701    3.385652    0.419423
     19          1           0        2.828073    2.333006    1.160158
     20          1           0       -0.670572    2.390418    0.312861
     21          1           0       -2.738437    2.040341   -0.739343
     22          1           0       -5.191530    1.760668   -0.738688
     23          1           0       -6.203747   -0.399095   -0.031296
     24          1           0       -4.730248   -2.266330    0.698383
     25          1           0       -2.281900   -1.968849    0.749221
     26          1           0        5.394353   -1.073032    0.755651
     27          1           0        5.388344   -0.869794   -1.010786
     28          1           0        5.934718    0.482119    0.037808
 ---------------------------------------------------------------------

 SCF Done:  E(UB3LYP) =  -1051.54079799     A.U. after   25 cycles

 The electronic state is 2-A.
 Alpha  occ. eigenvalues --  -88.71478 -19.03201 -18.95383 -10.14442 -10.11532
 Alpha  occ. eigenvalues --  -10.05170 -10.05123 -10.05003 -10.04689 -10.04617
 Alpha  occ. eigenvalues --  -10.04358 -10.04235 -10.04220 -10.04119 -10.04108
 Alpha  occ. eigenvalues --  -10.02556  -7.80148  -5.76450  -5.76084  -5.75754
 Alpha  occ. eigenvalues --   -0.96896  -0.87376  -0.74394  -0.72382  -0.65018
 Alpha  occ. eigenvalues --   -0.62473  -0.62060  -0.61731  -0.57537  -0.54170
 Alpha  occ. eigenvalues --   -0.49477  -0.48082  -0.45637  -0.41892  -0.41520
 Alpha  occ. eigenvalues --   -0.38646  -0.36317  -0.35462  -0.34506  -0.32989
 Alpha  occ. eigenvalues --   -0.31983  -0.31761  -0.30054  -0.29891  -0.29129
 Alpha  occ. eigenvalues --   -0.27909  -0.27280  -0.25798  -0.25343  -0.23944
 Alpha  occ. eigenvalues --   -0.22610  -0.22198  -0.21972  -0.21683  -0.19095
 Alpha  occ. eigenvalues --   -0.17912  -0.14607  -0.13858  -0.13509  -0.10818
 Alpha  occ. eigenvalues --   -0.08269   0.03437
 Alpha virt. eigenvalues --    0.07608   0.08058   0.09022   0.09688   0.10527
 Alpha virt. eigenvalues --    0.10579   0.10981   0.11451   0.11707   0.12141
 Alpha virt. eigenvalues --    0.13095   0.13391   0.13679   0.14335   0.15471

  Beta  occ. eigenvalues --  -88.71408 -19.03119 -18.95166 -10.14279 -10.11536
  Beta  occ. eigenvalues --  -10.05210 -10.05174 -10.04928 -10.04629 -10.04369
  Beta  occ. eigenvalues --  -10.04255 -10.04111 -10.04020 -10.03987 -10.03944
  Beta  occ. eigenvalues --  -10.02566  -7.80086  -5.76417  -5.76053  -5.75526
  Beta  occ. eigenvalues --   -0.96665  -0.87026  -0.74055  -0.72152  -0.64626
  Beta  occ. eigenvalues --   -0.62256  -0.61857  -0.61531  -0.57284  -0.53887
  Beta  occ. eigenvalues --   -0.48977  -0.47983  -0.45413  -0.41724  -0.41312
  Beta  occ. eigenvalues --   -0.38426  -0.36012  -0.35310  -0.34303  -0.32784
  Beta  occ. eigenvalues --   -0.31894  -0.31600  -0.29964  -0.29643  -0.29010
  Beta  occ. eigenvalues --   -0.27778  -0.26507  -0.25431  -0.24961  -0.23716
  Beta  occ. eigenvalues --   -0.22454  -0.21936  -0.21699  -0.21129  -0.18820
  Beta  occ. eigenvalues --   -0.17074  -0.13630  -0.13446  -0.13009  -0.09832
  Beta  occ. eigenvalues --   -0.06783
  Beta virt. eigenvalues --    0.07595   0.08020   0.08393   0.08988   0.09639
  Beta virt. eigenvalues --    0.10554   0.10794   0.11282   0.11424   0.12116
  Beta virt. eigenvalues --    0.12609   0.13202   0.13485   0.13742   0.14350

 Mulliken charges and spin densities:
               1          2
     1  C   -0.577347  -0.013750
     2  C    0.494068   0.102194
     3  C   -0.158073   0.125209
     4  S   -0.721926   0.131763
     5  C   -0.203464   0.156017
     6  C    0.418598   0.016718
     7  C    1.478995   0.023617
     8  C   -1.063450   0.078689
     9  C   -0.298448  -0.026565
    10  C   -0.349853   0.164567
    11  C   -0.338293  -0.028644
    12  C   -0.186457   0.110615
    13  C   -0.244946   0.065672
    14  O   -0.351422   0.074972
    15  O   -0.149481   0.012655
    16  C   -0.231757  -0.000658
    17  H    0.161271   0.006355
    18  H    0.124141   0.000030
    19  H    0.149929   0.007669
    20  H    0.076510   0.000921
    21  H    0.070362  -0.000278
    22  H    0.132837   0.001230
    23  H    0.098745  -0.013369
    24  H    0.135254   0.002368
    25  H    0.091303  -0.001991
    26  H    0.163797   0.001908
    27  H    0.162828   0.002379
    28  H    0.116277  -0.000294
 Sum of Mulliken charges =  -1.00000   1.00000

 Dipole moment (field-independent basis, Debye):
    X=              1.4213    Y=              2.9179    Z=              0.3619  Tot=              3.2657
 Quadrupole moment (field-independent basis, Debye-Ang):
   XX=           -142.1060   YY=           -116.8978   ZZ=           -111.4939
   XY=              6.6095   XZ=              0.9352   YZ=             -2.7207

 Summary of Natural Population Analysis:

                                       Natural Population
                Natural  -----------------------------------------------
    Atom  No    Charge         Core      Valence    Rydberg      Total
 -----------------------------------------------------------------------
      C    1   -0.28527      0.99958     2.28077    0.00492     3.28527
      C    2   -0.00371      0.99947     1.99553    0.00872     3.00371
      C    3   -0.12900      0.99938     2.11784    0.01177     3.12900
      S    4    0.24363      4.99942     2.73622    0.02073     7.75637
      C    5   -0.03734      0.99947     2.02565    0.01222     3.03734
      C    6   -0.13568      0.99945     2.12752    0.00871     3.13568
      C    7   -0.01774      0.99938     2.00837    0.00999     3.01774
      C    8   -0.07561      0.99955     2.06750    0.00856     3.07561
      C    9   -0.11855      0.99958     2.10980    0.00917     3.11855
      C   10   -0.07649      0.99957     2.06699    0.00993     3.07649
      C   11   -0.11897      0.99958     2.11013    0.00926     3.11897
      C   12   -0.07369      0.99955     2.06538    0.00876     3.07369
      C   13    0.40313      0.99958     1.57367    0.02362     2.59687
      O   14   -0.30775      0.99988     3.30188    0.00600     4.30775
      O   15   -0.27998      0.99986     3.27132    0.00879     4.27998
      C   16   -0.10560      0.99961     2.09730    0.00868     3.10560
      H   17    0.10308      0.00000     0.39554    0.00138     0.39692
      H   18    0.09165      0.00000     0.40706    0.00129     0.40835
      H   19    0.10329      0.00000     0.39533    0.00138     0.39671
      H   20    0.09572      0.00000     0.40285    0.00143     0.40428
      H   21    0.09540      0.00000     0.40312    0.00149     0.40460
      H   22    0.09157      0.00000     0.40735    0.00108     0.40843
      H   23    0.08873      0.00000     0.41023    0.00104     0.41127
      H   24    0.09245      0.00000     0.40650    0.00104     0.40755
      H   25    0.09991      0.00000     0.39894    0.00115     0.40009
      H   26    0.08741      0.00000     0.41131    0.00128     0.41259
      H   27    0.08740      0.00000     0.41132    0.00128     0.41260
      H   28    0.08203      0.00000     0.41711    0.00087     0.41797
 =======================================================================
   * Total *    0.00001     19.99292    40.82255    0.18451    60.99999

 Normal termination of Gaussian 16 at Thu Dec 10 21:37:07 2020.
