 Gaussian 16, Revision A.03,

 -----------------------------------------------------------
 # opt freq B3LYP/6-31G(d) empiricaldispersion=gd3bj scf=xqc
 -----------------------------------------------------------

 ------------------------------
 CID_96625672_JID_4226_neutraal
 ------------------------------
 Symbolic Z-matrix:
 Charge =  0 Multiplicity = 1

 SCF Done:  E(RB3LYP) =  -642.019995495     A.U. after   15 cycles
 SCF Done:  E(RB3LYP) =  -642.023083874     A.U. after   13 cycles
 SCF Done:  E(RB3LYP) =  -642.023727435     A.U. after   13 cycles
 SCF Done:  E(RB3LYP) =  -642.023875504     A.U. after   15 cycles
 SCF Done:  E(RB3LYP) =  -642.025458740     A.U. after   13 cycles
 SCF Done:  E(RB3LYP) =  -642.026528807     A.U. after   15 cycles
 SCF Done:  E(RB3LYP) =  -642.026697812     A.U. after   12 cycles
 SCF Done:  E(RB3LYP) =  -642.026718360     A.U. after   11 cycles
 SCF Done:  E(RB3LYP) =  -642.026721555     A.U. after   10 cycles
 SCF Done:  E(RB3LYP) =  -642.026722757     A.U. after    8 cycles
 SCF Done:  E(RB3LYP) =  -642.026723110     A.U. after    8 cycles
 Optimization completed.
    -- Stationary point found.
 Normal termination of Gaussian 16 at Thu Dec 10 09:17:28 2020.

 --------------------------------------------------------------------
 #N Geom=AllCheck Guess=TCheck SCRF=Check GenChk RB3LYP/6-31G(d) Freq
 --------------------------------------------------------------------

 Structure from the checkpoint file:  "JID_4226.chk"
 ------------------------------
 CID_96625672_JID_4226_neutraal
 ------------------------------
 Charge =  0 Multiplicity = 1

 SCF Done:  E(RB3LYP) =  -642.026723110     A.U. after    1 cycles

  Exact polarizability: 202.708   4.821 129.539  -0.814  -3.622  52.435
 Approx polarizability: 285.250  -7.401 244.129  -1.009  -8.528  83.332

                      1                      2                      3
                      A                      A                      A
 Frequencies --     32.5823                74.5614                83.1738
 Red. masses --      5.7584                 5.0688                 1.0863
 Frc consts  --      0.0036                 0.0166                 0.0044
 IR Inten    --      2.9269                 1.1785                 0.3670

                      4                      5                      6
                      A                      A                      A
 Frequencies --     98.5140               139.1134               183.4781
 Red. masses --      5.9480                 4.1075                 5.2823
 Frc consts  --      0.0340                 0.0468                 0.1048
 IR Inten    --      3.7662                 0.4820                 1.4677

                      7                      8                      9
                      A                      A                      A
 Frequencies --    211.4286               221.6966               290.6392
 Red. masses --      3.7194                 2.8713                 3.7167
 Frc consts  --      0.0980                 0.0831                 0.1850
 IR Inten    --      0.5240                 4.7520                 1.5167

                     10                     11                     12
                      A                      A                      A
 Frequencies --    338.5080               349.2867               417.5263
 Red. masses --      7.0677                 3.5046                 4.8965
 Frc consts  --      0.4772                 0.2519                 0.5029
 IR Inten    --      0.9148                 1.6850                12.5078

                     13                     14                     15
                      A                      A                      A
 Frequencies --    460.2530               523.1986               547.7545
 Red. masses --      7.3418                 4.8179                 1.6401
 Frc consts  --      0.9163                 0.7770                 0.2899
 IR Inten    --      1.6565                18.1239                55.3323

                     16                     17                     18
                      A                      A                      A
 Frequencies --    563.1243               630.5775               650.1560
 Red. masses --      2.5996                 9.4385                 4.4053
 Frc consts  --      0.4857                 2.2112                 1.0971
 IR Inten    --     17.1814                 1.0125                20.1738

                     19                     20                     21
                      A                      A                      A
 Frequencies --    680.7387               730.8541               760.7066
 Red. masses --      4.5767                 6.6216                 6.9017
 Frc consts  --      1.2496                 2.0839                 2.3531
 IR Inten    --      5.4111                 0.0251                 3.3824

                     22                     23                     24
                      A                      A                      A
 Frequencies --    777.2713               863.0938               866.9743
 Red. masses --      2.6499                 2.4441                 2.6270
 Frc consts  --      0.9432                 1.0727                 1.1634
 IR Inten    --      2.7785                27.0930                40.8569

                     25                     26                     27
                      A                      A                      A
 Frequencies --    942.2434               986.5292               986.7520
 Red. masses --      1.3749                 5.9815                 1.5826
 Frc consts  --      0.7192                 3.4299                 0.9079
 IR Inten    --      0.0898                 9.3526                 0.6405

                     28                     29                     30
                      A                      A                      A
 Frequencies --   1010.9834              1019.4409              1031.5711
 Red. masses --      1.7780                 1.5035                 5.2967
 Frc consts  --      1.0707                 0.9206                 3.3209
 IR Inten    --      0.6046                 0.9883                19.6545

                     31                     32                     33
                      A                      A                      A
 Frequencies --   1072.6910              1081.9456              1137.2548
 Red. masses --      1.4660                 2.9925                 2.4168
 Frc consts  --      0.9938                 2.0640                 1.8417
 IR Inten    --      1.6734                15.6159                12.5567

                     34                     35                     36
                      A                      A                      A
 Frequencies --   1166.2969              1209.6016              1257.6659
 Red. masses --      4.0165                 2.1464                 9.0503
 Frc consts  --      3.2190                 1.8503                 8.4342
 IR Inten    --     13.9844                25.1308                 7.5266

                     37                     38                     39
                      A                      A                      A
 Frequencies --   1284.3448              1331.4923              1347.9893
 Red. masses --      2.2281                 1.5800                 5.6705
 Frc consts  --      2.1654                 1.6504                 6.0707
 IR Inten    --     72.4160                 0.6915                29.2385

                     40                     41                     42
                      A                      A                      A
 Frequencies --   1408.6665              1427.3085              1437.5876
 Red. masses --      2.6296                 1.8380                 1.7847
 Frc consts  --      3.0744                 2.2061                 2.1731
 IR Inten    --     16.2197                48.9849                22.8776

                     43                     44                     45
                      A                      A                      A
 Frequencies --   1451.7444              1472.0104              1511.0472
 Red. masses --      1.5666                 1.7491                 1.0424
 Frc consts  --      1.9453                 2.2330                 1.4023
 IR Inten    --     13.2125                73.1137                 7.8243

                     46                     47                     48
                      A                      A                      A
 Frequencies --   1514.4901              1526.5699              1573.4437
 Red. masses --      1.5153                 1.9179                 5.4561
 Frc consts  --      2.0478                 2.6334                 7.9586
 IR Inten    --      7.1689                20.9659                38.4180

                     49                     50                     51
                      A                      A                      A
 Frequencies --   1595.7833              1612.7994              1635.2948
 Red. masses --      6.8541                 4.8696                 4.8835
 Frc consts  --     10.2837                 7.4629                 7.6944
 IR Inten    --      5.7686                25.6157                 7.5384

                     52                     53                     54
                      A                      A                      A
 Frequencies --   1805.8746              2888.4151              3045.4886
 Red. masses --      9.8611                 1.0811                 1.0408
 Frc consts  --     18.9475                 5.3143                 5.6877
 IR Inten    --    305.2875               165.7530                31.3137

                     55                     56                     57
                      A                      A                      A
 Frequencies --   3094.4768              3158.7768              3161.0058
 Red. masses --      1.1017                 1.0964                 1.0900
 Frc consts  --      6.2155                 6.4456                 6.4168
 IR Inten    --     13.3806                 6.4316                33.6684

                     58                     59                     60
                      A                      A                      A
 Frequencies --   3181.2070              3200.5660              3633.5280
 Red. masses --      1.0881                 1.0967                 1.0801
 Frc consts  --      6.4881                 6.6190                 8.4021
 IR Inten    --      5.9016                36.8634                36.4838

 - Thermochemistry -
 -------------------
 Temperature   298.150 Kelvin.  Pressure   1.00000 Atm.
 Atom     1 has atomic number  6 and mass  12.00000

 Molecular mass:   188.06981 amu.
 Principal axes and moments of inertia in atomic units:
                           1         2         3
     Eigenvalues --  1123.599554722.547085784.22579
           X            0.99961   0.02796   0.00080
           Y           -0.02796   0.99961  -0.00067
           Z           -0.00082   0.00065   1.00000
 This molecule is an asymmetric top.
 Rotational symmetry number  1.
 Warning -- assumption of classical behavior for rotation
           may cause significant error
 Rotational temperatures (Kelvin)      0.07709     0.01834     0.01497
 Rotational constants (GHZ):           1.60621     0.38215     0.31201
 Zero-point vibrational energy     434831.2 (Joules/Mol)
                                  103.92715 (Kcal/Mol)
 Warning -- explicit consideration of  16 degrees of freedom as
           vibrations may cause significant error
 Vibrational temperatures:     46.88   107.28   119.67   141.74   200.15
          (Kelvin)            263.98   304.20   318.97   418.16   487.04
                              502.55   600.73   662.20   752.77   788.10
                              810.21   907.26   935.43   979.43  1051.54
                             1094.49  1118.32  1241.80  1247.38  1355.68
                             1419.40  1419.72  1454.58  1466.75  1484.20
                             1543.36  1556.68  1636.26  1678.04  1740.35
                             1809.50  1847.89  1915.72  1939.46  2026.76
                             2053.58  2068.37  2088.74  2117.89  2174.06
                             2179.01  2196.39  2263.83  2295.98  2320.46
                             2352.82  2598.25  4155.79  4381.78  4452.26
                             4544.78  4547.98  4577.05  4604.90  5227.84

 Zero-point correction=                           0.165618 (Hartree/Particle)
 Thermal correction to Energy=                    0.177468
 Thermal correction to Enthalpy=                  0.178412
 Thermal correction to Gibbs Free Energy=         0.126180
 Sum of electronic and zero-point Energies=           -641.861105
 Sum of electronic and thermal Energies=              -641.849255
 Sum of electronic and thermal Enthalpies=            -641.848311
 Sum of electronic and thermal Free Energies=         -641.900543

                     E (Thermal)             CV                S
                      KCal/Mol        Cal/Mol-Kelvin    Cal/Mol-Kelvin
 Total                  111.363             43.424            109.932
 Electronic               0.000              0.000              0.000
 Translational            0.889              2.981             41.601
 Rotational               0.889              2.981             31.796
 Vibrational            109.585             37.463             36.535
 Vibration     1          0.594              1.983              5.666
 Vibration     2          0.599              1.966              4.029
 Vibration     3          0.600              1.961              3.815
 Vibration     4          0.604              1.950              3.484
 Vibration     5          0.615              1.914              2.816
 Vibration     6          0.631              1.862              2.293
 Vibration     7          0.643              1.823              2.031
 Vibration     8          0.648              1.808              1.945
 Vibration     9          0.687              1.691              1.470
 Vibration    10          0.719              1.599              1.219
 Vibration    11          0.727              1.577              1.169
 Vibration    12          0.781              1.432              0.900
 Vibration    13          0.818              1.338              0.765
 Vibration    14          0.878              1.199              0.603
 Vibration    15          0.903              1.145              0.549
 Vibration    16          0.919              1.111              0.518

                           ! Non-Optimized Parameters !
 Normal termination of Gaussian 16 at Thu Dec 10 09:22:14 2020.

 ----------------------------------------------------------------------
 # B3LYP/6-311++G(d,p) empiricaldispersion=gd3bj scf=xqc pop=npa geom=c
 heck
 ----------------------------------------------------------------------

 --------------------------------------
 CID_96625672_JID_4226_Energie_neutraal
 --------------------------------------
 Structure from the checkpoint file:  "JID_4226.chk"
 Charge =  0 Multiplicity = 1

 SCF Done:  E(RB3LYP) =  -642.199230964     A.U. after   16 cycles
 Normal termination of Gaussian 16 at Thu Dec 10 09:24:18 2020.

 ----------------------------------------------------------------------
 # B3LYP/6-311++G(d,p) empiricaldispersion=gd3bj scf=xqc pop=npa geom=c
 heck
 ----------------------------------------------------------------------

 ------------------------------------
 CID_96625672_JID_4226_Energie_kation
 ------------------------------------
 Structure from the checkpoint file:  "JID_4226.chk"
 Charge =  1 Multiplicity = 2

 SCF Done:  E(UB3LYP) =  -641.888775343     A.U. after   32 cycles
 Normal termination of Gaussian 16 at Thu Dec 10 09:29:57 2020.
 Gaussian 16:  ES64L-G16RevA.03 25-Dec-2016

 ----------------------------------------------------------------------
 # B3LYP/6-311++G(d,p) empiricaldispersion=gd3bj scf=xqc pop=npa geom=c
 heck
 ----------------------------------------------------------------------

 -----------------------------------
 CID_96625672_JID_4226_Energie_anion
 -----------------------------------
 Structure from the checkpoint file:  "JID_4226.chk"
 Charge = -1 Multiplicity = 2

                         Standard orientation:
 ---------------------------------------------------------------------
 Center     Atomic      Atomic             Coordinates (Angstroms)
 Number     Number       Type             X           Y           Z
 ---------------------------------------------------------------------
      1          6           0        3.025933    2.163759    0.189575
      2          6           0        2.022702    1.063708    0.090937
      3          6           0        2.132945   -0.320091   -0.027253
      4          7           0        0.884814   -0.907419   -0.067876
      5          6           0        0.020531    0.077094    0.019355
      6          7           0        0.673555    1.298982    0.110874
      7          6           0       -1.440929   -0.032086    0.002316
      8          7           0       -1.979157   -1.228877    0.293584
      9          6           0       -3.308735   -1.301808    0.277121
     10          6           0       -4.116273   -0.196555   -0.008358
     11          7           0       -3.590597    0.995343   -0.309695
     12          6           0       -2.259082    1.066509   -0.312453
     13          6           0        3.380122   -1.082971   -0.105791
     14          8           0        3.461949   -2.290534   -0.211232
     15          1           0        2.920591    2.877754   -0.636681
     16          1           0        2.919066    2.721496    1.128449
     17          1           0        4.040552    1.762729    0.155727
     18          1           0        0.243011    2.202290    0.252238
     19          1           0       -3.748583   -2.270381    0.505437
     20          1           0       -5.200893   -0.272706    0.001479
     21          1           0       -1.832324    2.027156   -0.597341
     22          1           0        4.299381   -0.455620   -0.060365
 ---------------------------------------------------------------------

 SCF Done:  E(UB3LYP) =  -642.222029252     A.U. after   33 cycles
 SCF Done:  E(UB3LYP) =  -642.222029252     a.u. after    1 cycles

 The electronic state is 2-A.
 Alpha  occ. eigenvalues --  -18.96952 -14.25290 -14.16050 -14.15127 -14.14502
 Alpha  occ. eigenvalues --  -10.11255 -10.10830 -10.09886 -10.09598 -10.07129
 Alpha  occ. eigenvalues --  -10.06686 -10.06131 -10.06084 -10.04746  -0.90509
 Alpha  occ. eigenvalues --   -0.89589  -0.82432  -0.75791  -0.74773  -0.68536
 Alpha  occ. eigenvalues --   -0.63625  -0.59492  -0.54012  -0.51559  -0.50606
 Alpha  occ. eigenvalues --   -0.47583  -0.43091  -0.40229  -0.37081  -0.36297
 Alpha  occ. eigenvalues --   -0.36137  -0.35423  -0.32748  -0.31447  -0.31084
 Alpha  occ. eigenvalues --   -0.30259  -0.29148  -0.28314  -0.27515  -0.25628
 Alpha  occ. eigenvalues --   -0.24579  -0.18837  -0.16591  -0.15424  -0.14835
 Alpha  occ. eigenvalues --   -0.13763  -0.12117  -0.09828  -0.09530   0.03602
 Alpha virt. eigenvalues --    0.06282   0.07207   0.08729   0.09524   0.09699
 Alpha virt. eigenvalues --    0.10517   0.10878   0.12124   0.12751   0.13560
 Alpha virt. eigenvalues --    0.14375   0.14915   0.15434   0.16489   0.16995

  Beta  occ. eigenvalues --  -18.96733 -14.25284 -14.15678 -14.14826 -14.13890
  Beta  occ. eigenvalues --  -10.11128 -10.10891 -10.09851 -10.09594 -10.07221
  Beta  occ. eigenvalues --  -10.06689 -10.06186 -10.05937 -10.04464  -0.90251
  Beta  occ. eigenvalues --   -0.89349  -0.81768  -0.75316  -0.73985  -0.68475
  Beta  occ. eigenvalues --   -0.63316  -0.59270  -0.53462  -0.51353  -0.50402
  Beta  occ. eigenvalues --   -0.47217  -0.42951  -0.40068  -0.36954  -0.36084
  Beta  occ. eigenvalues --   -0.35888  -0.35376  -0.32653  -0.31404  -0.30722
  Beta  occ. eigenvalues --   -0.30058  -0.28936  -0.28164  -0.26157  -0.24597
  Beta  occ. eigenvalues --   -0.24350  -0.16709  -0.15397  -0.14807  -0.13917
  Beta  occ. eigenvalues --   -0.13341  -0.11925  -0.09017  -0.08893
  Beta virt. eigenvalues --    0.06234   0.08029   0.08699   0.09550   0.09646
  Beta virt. eigenvalues --    0.10471   0.10660   0.10930   0.12069   0.12705
  Beta virt. eigenvalues --    0.13553   0.14338   0.15106   0.15515   0.16510

 Mulliken charges and spin densities:
               1          2
     1  C   -0.586532   0.001254
     2  C    0.004358   0.005552
     3  C    0.766480  -0.018242
     4  N   -0.097483   0.146568
     5  C   -0.358328   0.029377
     6  N   -0.132949   0.004136
     7  C   -0.285388   0.096369
     8  N   -0.070107   0.287378
     9  C    0.220446  -0.047611
    10  C   -0.357093   0.238241
    11  N   -0.121994   0.149957
    12  C   -0.317190  -0.039036
    13  C   -0.425078   0.097481
    14  O   -0.310584   0.071411
    15  H    0.138780   0.001468
    16  H    0.147408  -0.010751
    17  H    0.152114   0.003287
    18  H    0.260445   0.000007
    19  H    0.134312   0.003724
    20  H    0.118278  -0.019401
    21  H    0.098166   0.008504
    22  H    0.021939  -0.009673
 Sum of Mulliken charges =  -1.00000   1.00000

 Dipole moment (field-independent basis, Debye):
    X=              2.8858    Y=              7.7433    Z=              0.7612  Tot=              8.2985
 Quadrupole moment (field-independent basis, Debye-Ang):
   XX=           -130.8918   YY=           -100.3802   ZZ=            -88.1171
   XY=             23.1081   XZ=             -0.0460   YZ=              0.5466

 Summary of Natural Population Analysis:

                                       Natural Population
                Natural  -----------------------------------------------
    Atom  No    Charge         Core      Valence    Rydberg      Total
 -----------------------------------------------------------------------
      C    1   -0.30133      0.99964     2.29730    0.00439     3.30133
      C    2    0.06092      0.99952     1.92854    0.01101     2.93908
      C    3   -0.00292      0.99945     1.99054    0.01293     3.00292
      N    4   -0.17661      0.99967     2.66723    0.00970     3.67661
      C    5    0.18954      0.99961     1.79386    0.01699     2.81046
      N    6   -0.27786      0.99963     2.76876    0.00947     3.77786
      C    7    0.08296      0.99940     1.90516    0.01248     2.91704
      N    8   -0.11857      0.99969     2.60717    0.01171     3.61857
      C    9   -0.01930      0.99961     2.00492    0.01477     3.01930
      C   10    0.04298      0.99961     1.94175    0.01566     2.95702
      N   11   -0.18684      0.99971     2.67293    0.01420     3.68684
      C   12   -0.01506      0.99959     2.00111    0.01436     3.01506
      C   13    0.21110      0.99967     1.76845    0.02077     2.78890
      O   14   -0.25898      0.99988     3.25033    0.00877     4.25898
      H   15    0.09893      0.00000     0.39969    0.00139     0.40107
      H   16    0.09864      0.00000     0.39997    0.00139     0.40136
      H   17    0.10899      0.00000     0.38982    0.00119     0.39101
      H   18    0.19727      0.00000     0.30094    0.00179     0.30273
      H   19    0.08109      0.00000     0.41742    0.00149     0.41891
      H   20    0.07733      0.00000     0.42119    0.00148     0.42267
      H   21    0.07524      0.00000     0.42283    0.00193     0.42476
      H   22    0.03248      0.00000     0.46505    0.00247     0.46752
 =======================================================================
   * Total *    0.00000     13.99469    34.81495    0.19036    49.00000

 Normal termination of Gaussian 16 at Thu Dec 10 09:35:50 2020.
