 Gaussian 16, Revision A.03,

 -----------------------------------------------------------
 # opt freq B3LYP/6-31G(d) empiricaldispersion=gd3bj scf=xqc
 -----------------------------------------------------------

 -------------------------------
 CID_124896306_JID_3920_neutraal
 -------------------------------
 Symbolic Z-matrix:
 Charge =  0 Multiplicity = 1

 SCF Done:  E(RB3LYP) =  -967.793379557     A.U. after   15 cycles
 SCF Done:  E(RB3LYP) =  -967.804148683     A.U. after   13 cycles
 SCF Done:  E(RB3LYP) =  -967.804744506     A.U. after   12 cycles
 SCF Done:  E(RB3LYP) =  -967.804803055     A.U. after   10 cycles
 SCF Done:  E(RB3LYP) =  -967.804811729     A.U. after    9 cycles
 SCF Done:  E(RB3LYP) =  -967.804812607     A.U. after    8 cycles
 Optimization completed.
    -- Stationary point found.
 Normal termination of Gaussian 16 at Sun Dec 13 12:16:55 2020.

 --------------------------------------------------------------------
 #N Geom=AllCheck Guess=TCheck SCRF=Check GenChk RB3LYP/6-31G(d) Freq
 --------------------------------------------------------------------

 Structure from the checkpoint file:  "JID_3920.chk"
 -------------------------------
 CID_124896306_JID_3920_neutraal
 -------------------------------
 Charge =  0 Multiplicity = 1

 SCF Done:  E(RB3LYP) =  -967.804812607     A.U. after    1 cycles

  Exact polarizability: 153.413   2.979 143.354   0.001   0.001  56.425
 Approx polarizability: 249.241  12.973 244.730   0.004   0.002  87.091

                      1                      2                      3
                      A                      A                      A
 Frequencies --     84.2509                96.0118               130.8942
 Red. masses --      3.6502                 3.5656                 3.0332
 Frc consts  --      0.0153                 0.0194                 0.0306
 IR Inten    --      7.9224                 0.4256                 0.2377

                      4                      5                      6
                      A                      A                      A
 Frequencies --    164.1812               169.6074               184.6826
 Red. masses --      3.2686                 3.8985                 4.3659
 Frc consts  --      0.0519                 0.0661                 0.0877
 IR Inten    --      0.2865                 2.3609                 5.1662

                      7                      8                      9
                      A                      A                      A
 Frequencies --    191.6941               204.3573               244.6011
 Red. masses --      1.2168                 1.4078                 4.7838
 Frc consts  --      0.0263                 0.0346                 0.1686
 IR Inten    --      0.0252                 0.0245                 5.6265

                     10                     11                     12
                      A                      A                      A
 Frequencies --    334.7114               374.2945               436.6252
 Red. masses --      3.8382                 5.3465                12.2416
 Frc consts  --      0.2533                 0.4413                 1.3750
 IR Inten    --     12.3854                 1.8120                 1.0146

                     13                     14                     15
                      A                      A                      A
 Frequencies --    445.9131               471.0057               497.6674
 Red. masses --      9.6832                 6.3167                 6.7353
 Frc consts  --      1.1344                 0.8256                 0.9829
 IR Inten    --      0.0002                 0.0166                 3.7137

                     16                     17                     18
                      A                      A                      A
 Frequencies --    584.0099               641.4165               671.8371
 Red. masses --      5.6532                 7.0633                10.2040
 Frc consts  --      1.1360                 1.7121                 2.7136
 IR Inten    --      0.0106                 0.0320                16.9565

                     19                     20                     21
                      A                      A                      A
 Frequencies --    680.9482               704.1334               714.3476
 Red. masses --      6.7804                 9.0968                 1.7596
 Frc consts  --      1.8524                 2.6574                 0.5290
 IR Inten    --      0.1266                 0.2128                33.0668

                     22                     23                     24
                      A                      A                      A
 Frequencies --    770.4705               780.2813               814.1603
 Red. masses --      7.6290                 2.9295                 5.5437
 Frc consts  --      2.6683                 1.0508                 2.1651
 IR Inten    --     36.9614                16.3997                 1.9761

                     25                     26                     27
                      A                      A                      A
 Frequencies --    907.5720               927.8802              1012.1051
 Red. masses --      1.2967                 5.2265                 7.2711
 Frc consts  --      0.6293                 2.6512                 4.3884
 IR Inten    --      0.5995                12.5309                31.1857

                     28                     29                     30
                      A                      A                      A
 Frequencies --   1068.6444              1114.9529              1136.4292
 Red. masses --      6.1211                 1.7173                 2.5335
 Frc consts  --      4.1186                 1.2578                 1.9277
 IR Inten    --    147.0285                67.4007                43.3039

                     31                     32                     33
                      A                      A                      A
 Frequencies --   1184.0032              1185.6280              1186.1421
 Red. masses --      2.0884                 1.2664                 1.2661
 Frc consts  --      1.7249                 1.0489                 1.0496
 IR Inten    --     10.0932                 0.2923                 1.1846

                     34                     35                     36
                      A                      A                      A
 Frequencies --   1213.1322              1239.7150              1256.2731
 Red. masses --      1.6198                 2.2890                 2.9322
 Frc consts  --      1.4046                 2.0727                 2.7266
 IR Inten    --      1.5483                38.8174                 6.4402

                     37                     38                     39
                      A                      A                      A
 Frequencies --   1365.7799              1408.6245              1426.4964
 Red. masses --      2.7624                 6.7186                 2.7959
 Frc consts  --      3.0360                 7.8546                 3.3521
 IR Inten    --     48.8890                14.0227               606.4546

                     40                     41                     42
                      A                      A                      A
 Frequencies --   1439.7138              1489.4624              1507.0045
 Red. masses --      6.1279                 1.5462                 1.0486
 Frc consts  --      7.4837                 2.0210                 1.4032
 IR Inten    --     24.4554                10.1067                 3.1075

                     43                     44                     45
                      A                      A                      A
 Frequencies --   1507.4644              1519.2995              1525.8807
 Red. masses --      1.0484                 1.8511                 1.0907
 Frc consts  --      1.4037                 2.5175                 1.4962
 IR Inten    --      7.6840               136.4378                31.6536

                     46                     47                     48
                      A                      A                      A
 Frequencies --   1527.4367              1538.6496              1600.1413
 Red. masses --      1.0784                 2.8064                 9.8531
 Frc consts  --      1.4824                 3.9145                14.8642
 IR Inten    --      1.4505               138.5858                 1.1661

                     49                     50                     51
                      A                      A                      A
 Frequencies --   1610.4518              3068.5137              3069.9429
 Red. masses --      7.7851                 1.0291                 1.0293
 Frc consts  --     11.8962                 5.7091                 5.7154
 IR Inten    --     46.2066                50.9746                43.8593

                     52                     53                     54
                      A                      A                      A
 Frequencies --   3140.7479              3142.2760              3173.2720
 Red. masses --      1.1071                 1.1072                 1.1072
 Frc consts  --      6.4344                 6.4414                 6.5690
 IR Inten    --     22.3466                22.8303                25.8463

                     55                     56                     57
                      A                      A                      A
 Frequencies --   3176.2816              3249.6939              3271.5073
 Red. masses --      1.1071                 1.0891                 1.0998
 Frc consts  --      6.5809                 6.7762                 6.9350
 IR Inten    --     20.7345                 0.7886                 0.5736

 - Thermochemistry -
 -------------------
 Temperature   298.150 Kelvin.  Pressure   1.00000 Atm.
 Atom     1 has atomic number  6 and mass  12.00000

 Molecular mass:   196.03065 amu.
 Principal axes and moments of inertia in atomic units:
                           1         2         3
     Eigenvalues --  1972.435882650.685464600.40130
           X            0.99813  -0.06109  -0.00000
           Y            0.06109   0.99813  -0.00000
           Z            0.00000   0.00000   1.00000
 This molecule is an asymmetric top.
 Rotational symmetry number  1.
 Warning -- assumption of classical behavior for rotation
           may cause significant error
 Rotational temperatures (Kelvin)      0.04391     0.03268     0.01883
 Rotational constants (GHZ):           0.91498     0.68086     0.39230
 Zero-point vibrational energy     410218.8 (Joules/Mol)
                                   98.04464 (Kcal/Mol)
 Warning -- explicit consideration of  16 degrees of freedom as
           vibrations may cause significant error
 Vibrational temperatures:    121.22   138.14   188.33   236.22   244.03
          (Kelvin)            265.72   275.81   294.02   351.93   481.58
                              538.53   628.21   641.57   677.67   716.03
                              840.26   922.86   966.62   979.73  1013.09
                             1027.79  1108.54  1122.65  1171.40  1305.79
                             1335.01  1456.19  1537.54  1604.17  1635.07
                             1703.52  1705.85  1706.59  1745.43  1783.67
                             1807.50  1965.05  2026.70  2052.41  2071.43
                             2143.00  2168.24  2168.91  2185.93  2195.40
                             2197.64  2213.77  2302.25  2317.08  4414.91
                             4416.96  4518.84  4521.03  4565.63  4569.96
                             4675.58  4706.97

 Zero-point correction=                           0.156244 (Hartree/Particle)
 Thermal correction to Energy=                    0.167816
 Thermal correction to Enthalpy=                  0.168761
 Thermal correction to Gibbs Free Energy=         0.118453
 Sum of electronic and zero-point Energies=           -967.648569
 Sum of electronic and thermal Energies=              -967.636996
 Sum of electronic and thermal Enthalpies=            -967.636052
 Sum of electronic and thermal Free Energies=         -967.686360

                     E (Thermal)             CV                S
                      KCal/Mol        Cal/Mol-Kelvin    Cal/Mol-Kelvin
 Total                  105.306             43.082            105.882
 Electronic               0.000              0.000              0.000
 Translational            0.889              2.981             41.724
 Rotational               0.889              2.981             31.553
 Vibrational            103.529             37.121             32.604
 Vibration     1          0.601              1.960              3.789
 Vibration     2          0.603              1.952              3.534
 Vibration     3          0.612              1.922              2.933
 Vibration     4          0.623              1.886              2.501
 Vibration     5          0.625              1.880              2.440
 Vibration     6          0.631              1.861              2.281
 Vibration     7          0.634              1.851              2.211
 Vibration     8          0.640              1.834              2.094
 Vibration     9          0.660              1.772              1.769
 Vibration    10          0.716              1.606              1.237
 Vibration    11          0.745              1.525              1.062
 Vibration    12          0.797              1.390              0.837
 Vibration    13          0.805              1.370              0.808
 Vibration    14          0.828              1.314              0.735
 Vibration    15          0.853              1.255              0.664
 Vibration    16          0.941              1.066              0.478

                           ! Non-Optimized Parameters !
 Normal termination of Gaussian 16 at Sun Dec 13 12:21:18 2020.

 ----------------------------------------------------------------------
 # B3LYP/6-311++G(d,p) empiricaldispersion=gd3bj scf=xqc pop=npa geom=c
 heck
 ----------------------------------------------------------------------

 ---------------------------------------
 CID_124896306_JID_3920_Energie_neutraal
 ---------------------------------------
 Structure from the checkpoint file:  "JID_3920.chk"
 Charge =  0 Multiplicity = 1

 SCF Done:  E(RB3LYP) =  -967.984350090     A.U. after   17 cycles
 Normal termination of Gaussian 16 at Sun Dec 13 12:23:04 2020.

 ----------------------------------------------------------------------
 # B3LYP/6-311++G(d,p) empiricaldispersion=gd3bj scf=xqc pop=npa geom=c
 heck
 ----------------------------------------------------------------------

 -------------------------------------
 CID_124896306_JID_3920_Energie_kation
 -------------------------------------
 Structure from the checkpoint file:  "JID_3920.chk"
 Charge =  1 Multiplicity = 2

 SCF Done:  E(UB3LYP) =  -967.684827257     A.U. after   23 cycles
 Normal termination of Gaussian 16 at Sun Dec 13 12:26:30 2020.
 Gaussian 16:  ES64L-G16RevA.03 25-Dec-2016

 ----------------------------------------------------------------------
 # B3LYP/6-311++G(d,p) empiricaldispersion=gd3bj scf=xqc pop=npa geom=c
 heck
 ----------------------------------------------------------------------

 ------------------------------------
 CID_124896306_JID_3920_Energie_anion
 ------------------------------------
 Structure from the checkpoint file:  "JID_3920.chk"
 Charge = -1 Multiplicity = 2

                         Standard orientation:
 ---------------------------------------------------------------------
 Center     Atomic      Atomic             Coordinates (Angstroms)
 Number     Number       Type             X           Y           Z
 ---------------------------------------------------------------------
      1          6           0       -3.771303   -1.092249    0.000162
      2          8           0       -2.862433    0.014743   -0.000110
      3          6           0       -1.547497   -0.288459   -0.000075
      4          7           0       -1.159799   -1.543800   -0.000081
      5          7           0        0.163782   -1.851447   -0.000022
      6          6           0        1.068012   -0.897261   -0.000002
      7          6           0        0.713345    0.471399   -0.000015
      8          6           0       -0.639328    0.807691   -0.000050
      9          6           0       -0.856340    2.223525   -0.000024
     10          6           0        0.319031    2.913342    0.000015
     11         16           0        1.732452    1.881107    0.000040
     12          8           0        2.382907   -1.195484    0.000030
     13          6           0        2.720790   -2.587754    0.000006
     14          1           0       -4.766228   -0.644926    0.000849
     15          1           0       -3.625315   -1.714017    0.888004
     16          1           0       -3.626395   -1.713539   -0.888211
     17          1           0       -1.836714    2.682359   -0.000046
     18          1           0        0.452771    3.986978    0.000029
     19          1           0        2.319963   -3.083464    0.888605
     20          1           0        2.319704   -3.083504   -0.888449
     21          1           0        3.811047   -2.616340   -0.000143
 ---------------------------------------------------------------------

 SCF Done:  E(UB3LYP) =  -967.980995412     A.U. after   23 cycles

 The electronic state is 2-A.
 Alpha  occ. eigenvalues --  -88.70655 -19.02193 -19.01564 -14.16266 -14.14757
 Alpha  occ. eigenvalues --  -10.10327 -10.10041 -10.09578 -10.09511 -10.02841
 Alpha  occ. eigenvalues --  -10.02597 -10.01785 -10.01469  -7.79307  -5.75626
 Alpha  occ. eigenvalues --   -5.75262  -5.74889  -0.94392  -0.93741  -0.82851
 Alpha  occ. eigenvalues --   -0.72067  -0.66081  -0.61915  -0.59228  -0.57470
 Alpha  occ. eigenvalues --   -0.56703  -0.47182  -0.45927  -0.41969  -0.40059
 Alpha  occ. eigenvalues --   -0.38570  -0.36605  -0.34620  -0.33898  -0.31778
 Alpha  occ. eigenvalues --   -0.31485  -0.27500  -0.26734  -0.26453  -0.23513
 Alpha  occ. eigenvalues --   -0.22598  -0.22528  -0.22102  -0.21306  -0.19070
 Alpha  occ. eigenvalues --   -0.17832  -0.16471  -0.11120  -0.10191  -0.07860
 Alpha  occ. eigenvalues --   -0.07365   0.06649
 Alpha virt. eigenvalues --    0.08689   0.09074   0.10043   0.11737   0.12331
 Alpha virt. eigenvalues --    0.12770   0.13086   0.13721   0.14048   0.14376
 Alpha virt. eigenvalues --    0.15345   0.16351   0.16370   0.17263   0.18033

  Beta  occ. eigenvalues --  -88.70581 -19.02210 -19.01560 -14.16119 -14.14246
  Beta  occ. eigenvalues --  -10.10391 -10.10040 -10.09579 -10.09519 -10.02512
  Beta  occ. eigenvalues --  -10.02105 -10.01861 -10.01231  -7.79241  -5.75600
  Beta  occ. eigenvalues --   -5.75236  -5.74635  -0.94398  -0.93707  -0.82322
  Beta  occ. eigenvalues --   -0.71546  -0.65730  -0.61587  -0.58897  -0.57138
  Beta  occ. eigenvalues --   -0.56443  -0.46859  -0.45558  -0.41563  -0.39879
  Beta  occ. eigenvalues --   -0.38450  -0.36427  -0.34542  -0.33816  -0.31663
  Beta  occ. eigenvalues --   -0.31407  -0.26662  -0.26518  -0.26173  -0.23444
  Beta  occ. eigenvalues --   -0.22417  -0.22292  -0.22051  -0.19905  -0.18641
  Beta  occ. eigenvalues --   -0.17220  -0.16121  -0.09995  -0.07950  -0.07374
  Beta  occ. eigenvalues --   -0.06033
  Beta virt. eigenvalues --    0.08671   0.09064   0.10019   0.11708   0.12306
  Beta virt. eigenvalues --    0.12726   0.13063   0.13216   0.13715   0.14056
  Beta virt. eigenvalues --    0.15026   0.15339   0.16356   0.16587   0.17237

 Mulliken charges and spin densities:
               1          2
     1  C   -0.282178   0.002048
     2  O   -0.175467   0.000929
     3  C   -0.335400  -0.075867
     4  N   -0.130939   0.035710
     5  N   -0.200028   0.253852
     6  C   -0.272732  -0.044973
     7  C    0.340892   0.234682
     8  C    0.296939   0.249568
     9  C   -0.292911  -0.101718
    10  C   -0.064842   0.348258
    11  S   -0.659704   0.124648
    12  O   -0.185221  -0.000041
    13  C   -0.239800  -0.001924
    14  H    0.124421  -0.000138
    15  H    0.164548  -0.000119
    16  H    0.164486  -0.000121
    17  H    0.111231   0.001407
    18  H    0.186032  -0.024433
    19  H    0.163580  -0.000838
    20  H    0.163600  -0.000838
    21  H    0.123492  -0.000091
 Sum of Mulliken charges =  -1.00000   1.00000

 Dipole moment (field-independent basis, Debye):
    X=             -1.0108    Y=             -1.0512    Z=              0.0004  Tot=              1.4583
 Quadrupole moment (field-independent basis, Debye-Ang):
   XX=            -96.1175   YY=           -104.9095   ZZ=            -90.6440
   XY=             -5.1497   XZ=             -0.0018   YZ=             -0.0006

 Summary of Natural Population Analysis:

                                       Natural Population
                Natural  -----------------------------------------------
    Atom  No    Charge         Core      Valence    Rydberg      Total
 -----------------------------------------------------------------------
      C    1   -0.10201      0.99961     2.09360    0.00880     3.10201
      O    2   -0.28115      0.99985     3.27189    0.00940     4.28115
      C    3    0.24479      0.99942     1.73680    0.01899     2.75521
      N    4   -0.16935      0.99965     2.65528    0.01442     3.66935
      N    5   -0.11704      0.99964     2.60237    0.01503     3.61704
      C    6    0.23614      0.99938     1.74445    0.02002     2.76386
      C    7   -0.06023      0.99937     2.04990    0.01096     3.06023
      C    8   -0.02752      0.99942     2.01915    0.00895     3.02752
      C    9   -0.16066      0.99954     2.14902    0.01210     3.16066
      C   10   -0.08300      0.99943     2.07084    0.01273     3.08300
      S   11    0.20425      4.99945     2.77433    0.02197     7.79575
      O   12   -0.27921      0.99985     3.26964    0.00972     4.27921
      C   13   -0.10251      0.99961     2.09395    0.00895     3.10251
      H   14    0.07900      0.00000     0.42014    0.00087     0.42100
      H   15    0.08739      0.00000     0.41110    0.00151     0.41261
      H   16    0.08736      0.00000     0.41113    0.00151     0.41264
      H   17    0.10154      0.00000     0.39732    0.00114     0.39846
      H   18    0.08963      0.00000     0.40903    0.00134     0.41037
      H   19    0.08689      0.00000     0.41153    0.00158     0.41311
      H   20    0.08690      0.00000     0.41152    0.00158     0.41310
      H   21    0.07886      0.00000     0.42025    0.00088     0.42114
 =======================================================================
   * Total *    0.00007     16.99424    33.82323    0.18246    50.99993

 Normal termination of Gaussian 16 at Sun Dec 13 12:29:48 2020.
