 Gaussian 16, Revision A.03,

 -----------------------------------------------------------
 # opt freq B3LYP/6-31G(d) empiricaldispersion=gd3bj scf=xqc
 -----------------------------------------------------------

 -------------------------------
 CID_120038725_JID_8426_neutraal
 -------------------------------
 Symbolic Z-matrix:
 Charge =  0 Multiplicity = 1

 SCF Done:  E(RB3LYP) =  -800.511639199     A.U. after   15 cycles
 SCF Done:  E(RB3LYP) =  -800.516269620     A.U. after   13 cycles
 SCF Done:  E(RB3LYP) =  -800.517167125     A.U. after   13 cycles
 SCF Done:  E(RB3LYP) =  -800.518213297     A.U. after   12 cycles
 SCF Done:  E(RB3LYP) =  -800.518570129     A.U. after   12 cycles
 SCF Done:  E(RB3LYP) =  -800.518826741     A.U. after   12 cycles
 SCF Done:  E(RB3LYP) =  -800.518923266     A.U. after   12 cycles
 SCF Done:  E(RB3LYP) =  -800.519033299     A.U. after   11 cycles
 SCF Done:  E(RB3LYP) =  -800.519085385     A.U. after   11 cycles
 SCF Done:  E(RB3LYP) =  -800.519113582     A.U. after   11 cycles
 SCF Done:  E(RB3LYP) =  -800.519438826     A.U. after   10 cycles
 SCF Done:  E(RB3LYP) =  -800.519438486     A.U. after    8 cycles
 SCF Done:  E(RB3LYP) =  -800.519439455     A.U. after   10 cycles
 SCF Done:  E(RB3LYP) =  -800.519439630     A.U. after    8 cycles
 SCF Done:  E(RB3LYP) =  -800.519439773     A.U. after    8 cycles
 SCF Done:  E(RB3LYP) =  -800.519439807     A.U. after    7 cycles
 Optimization completed.
    -- Stationary point found.
 Normal termination of Gaussian 16 at Fri Dec 11 20:59:52 2020.

 --------------------------------------------------------------------
 #N Geom=AllCheck Guess=TCheck SCRF=Check GenChk RB3LYP/6-31G(d) Freq
 --------------------------------------------------------------------

 Structure from the checkpoint file:  "JID_8426.chk"
 -------------------------------
 CID_120038725_JID_8426_neutraal
 -------------------------------
 Charge =  0 Multiplicity = 1

 SCF Done:  E(RB3LYP) =  -800.519439807     A.U. after    1 cycles

  Exact polarizability: 202.781   1.206 177.860  24.474  -3.595 104.308
 Approx polarizability: 281.376   7.269 320.013  51.102  -9.376 164.725

                      1                      2                      3
                      A                      A                      A
 Frequencies --     17.3729                34.6070                49.8908
 Red. masses --      4.8819                 4.0083                 3.9636
 Frc consts  --      0.0009                 0.0028                 0.0058
 IR Inten    --      0.1241                 0.0268                 1.0946

                      4                      5                      6
                      A                      A                      A
 Frequencies --     53.0370                90.5675               110.8341
 Red. masses --      3.7843                 3.2287                 5.5595
 Frc consts  --      0.0063                 0.0156                 0.0402
 IR Inten    --      0.5940                 1.1583                 3.8217

                      7                      8                      9
                      A                      A                      A
 Frequencies --    143.9882               151.5522               181.6066
 Red. masses --      2.4838                 3.3442                 4.5049
 Frc consts  --      0.0303                 0.0453                 0.0875
 IR Inten    --      1.2412                 0.4218                 1.8475

                     10                     11                     12
                      A                      A                      A
 Frequencies --    220.7714               221.6450               252.0097
 Red. masses --      1.6125                 4.8247                 3.0597
 Frc consts  --      0.0463                 0.1396                 0.1145
 IR Inten    --      1.7871                 0.7720                 1.1306

                     13                     14                     15
                      A                      A                      A
 Frequencies --    282.6603               300.5505               327.9197
 Red. masses --      3.0964                 2.1086                 2.8328
 Frc consts  --      0.1458                 0.1122                 0.1795
 IR Inten    --      6.0299                 1.7739                 1.3728

                     16                     17                     18
                      A                      A                      A
 Frequencies --    352.5351               379.8325               408.2200
 Red. masses --      2.4247                 3.7150                 4.4924
 Frc consts  --      0.1776                 0.3158                 0.4411
 IR Inten    --      1.1715                 3.9776                 2.2507

                     19                     20                     21
                      A                      A                      A
 Frequencies --    459.9547               481.6868               516.8817
 Red. masses --      2.6366                 3.3868                 4.0647
 Frc consts  --      0.3286                 0.4630                 0.6398
 IR Inten    --      3.5516                 6.4159                 3.9872

                     22                     23                     24
                      A                      A                      A
 Frequencies --    541.7101               571.8504               585.0283
 Red. masses --      2.0344                 4.7424                 3.1617
 Frc consts  --      0.3517                 0.9137                 0.6376
 IR Inten    --     30.4398                 8.8255                11.9201

                     25                     26                     27
                      A                      A                      A
 Frequencies --    607.7813               653.9818               662.6485
 Red. masses --      3.1732                 4.5202                 4.3749
 Frc consts  --      0.6906                 1.1390                 1.1318
 IR Inten    --      8.2325                 5.7216                25.0353

                     28                     29                     30
                      A                      A                      A
 Frequencies --    696.4300               731.9654               748.3853
 Red. masses --      2.1156                 1.4563                 3.2933
 Frc consts  --      0.6046                 0.4597                 1.0867
 IR Inten    --     42.1810               106.7998                20.8286

                     31                     32                     33
                      A                      A                      A
 Frequencies --    768.5402               775.1366               809.8003
 Red. masses --      1.6880                 1.2832                 1.6948
 Frc consts  --      0.5874                 0.4542                 0.6548
 IR Inten    --     18.4751                22.6974                46.4058

                     34                     35                     36
                      A                      A                      A
 Frequencies --    829.4187               832.6796               861.5810
 Red. masses --      2.0923                 2.2670                 1.5376
 Frc consts  --      0.8480                 0.9261                 0.6725
 IR Inten    --     15.3803                55.3039                26.1557

                     37                     38                     39
                      A                      A                      A
 Frequencies --    871.8207               883.9197               908.5310
 Red. masses --      3.9154                 2.5924                 2.2817
 Frc consts  --      1.7534                 1.1934                 1.1096
 IR Inten    --      6.1237                 5.1472                 0.3882

                     40                     41                     42
                      A                      A                      A
 Frequencies --    928.9778               939.8902               955.0231
 Red. masses --      1.3229                 1.3786                 4.5800
 Frc consts  --      0.6726                 0.7176                 2.4612
 IR Inten    --      2.5769                 1.3574                26.2353

                     43                     44                     45
                      A                      A                      A
 Frequencies --    973.5427               987.4329              1011.2905
 Red. masses --      1.3072                 2.1884                 1.9811
 Frc consts  --      0.7300                 1.2571                 1.1937
 IR Inten    --      1.9749                10.7490                13.5804

                     46                     47                     48
                      A                      A                      A
 Frequencies --   1072.7102              1082.4813              1090.9821
 Red. masses --      2.6407                 1.7017                 2.0414
 Frc consts  --      1.7903                 1.1748                 1.4316
 IR Inten    --      1.2298                 8.8601                11.5405

                     49                     50                     51
                      A                      A                      A
 Frequencies --   1106.2537              1128.4934              1166.2254
 Red. masses --      3.2954                 2.5760                 1.9970
 Frc consts  --      2.3762                 1.9329                 1.6003
 IR Inten    --     13.6613                10.4272                 2.9660

                     52                     53                     54
                      A                      A                      A
 Frequencies --   1174.8025              1179.6529              1192.3465
 Red. masses --      2.2503                 2.3171                 1.7472
 Frc consts  --      1.8299                 1.8998                 1.4636
 IR Inten    --      4.6666                98.2764                12.5484

                     55                     56                     57
                      A                      A                      A
 Frequencies --   1236.3216              1247.5431              1260.0350
 Red. masses --      1.5017                 1.6466                 1.3098
 Frc consts  --      1.3524                 1.5099                 1.2253
 IR Inten    --      7.5000                40.9245                 9.2659

                     58                     59                     60
                      A                      A                      A
 Frequencies --   1276.7276              1297.1035              1309.4816
 Red. masses --      1.2977                 1.2113                 2.4816
 Frc consts  --      1.2462                 1.2007                 2.5072
 IR Inten    --     32.4419                 9.5824                 5.7931

                     61                     62                     63
                      A                      A                      A
 Frequencies --   1343.6775              1345.2700              1359.9992
 Red. masses --      1.5118                 1.8811                 2.3394
 Frc consts  --      1.6081                 2.0057                 2.5493
 IR Inten    --      5.3258                 6.1045               270.8314

                     64                     65                     66
                      A                      A                      A
 Frequencies --   1381.9053              1388.3849              1408.4362
 Red. masses --      1.7692                 1.4378                 1.2616
 Frc consts  --      1.9906                 1.6329                 1.4745
 IR Inten    --     13.9806                 5.5089                10.5144

                     67                     68                     69
                      A                      A                      A
 Frequencies --   1417.3918              1419.6963              1433.2636
 Red. masses --      1.6973                 3.4278                 2.0052
 Frc consts  --      2.0090                 4.0705                 2.4269
 IR Inten    --     20.1144                 9.9406                89.2820

                     70                     71                     72
                      A                      A                      A
 Frequencies --   1452.6841              1469.0494              1486.9629
 Red. masses --      1.2393                 3.4022                 1.3956
 Frc consts  --      1.5409                 4.3259                 1.8180
 IR Inten    --      6.1656                30.2633                 8.1901

                     73                     74                     75
                      A                      A                      A
 Frequencies --   1506.4989              1512.8623              1514.4588
 Red. masses --      1.0905                 1.0808                 3.2368
 Frc consts  --      1.4582                 1.4575                 4.3740
 IR Inten    --      6.4912                 1.3303                 2.5780

                     76                     77                     78
                      A                      A                      A
 Frequencies --   1525.4097              1530.6922              1538.3845
 Red. masses --      1.1126                 1.1383                 1.0676
 Frc consts  --      1.5254                 1.5713                 1.4886
 IR Inten    --      6.5353                23.2959                22.0515

                     79                     80                     81
                      A                      A                      A
 Frequencies --   1553.6775              1554.5593              1556.6064
 Red. masses --      1.1629                 1.1223                 2.8775
 Frc consts  --      1.6539                 1.5979                 4.1080
 IR Inten    --     44.8016                 3.9693                34.9273

                     82                     83                     84
                      A                      A                      A
 Frequencies --   1645.5650              1662.7801              1723.9666
 Red. masses --      6.0754                 6.5336                 6.5570
 Frc consts  --      9.6930                10.6431                11.4819
 IR Inten    --     45.0076                23.1820               216.6553

                     85                     86                     87
                      A                      A                      A
 Frequencies --   2911.5902              3039.9554              3041.2133
 Red. masses --      1.0737                 1.0706                 1.0449
 Frc consts  --      5.3626                 5.8290                 5.6940
 IR Inten    --     71.2930                12.7694                16.3903

                     88                     89                     90
                      A                      A                      A
 Frequencies --   3043.4347              3055.1226              3083.0403
 Red. masses --      1.0626                 1.0691                 1.1011
 Frc consts  --      5.7992                 5.8792                 6.1664
 IR Inten    --     40.8899                76.1055                 9.7810

                     91                     92                     93
                      A                      A                      A
 Frequencies --   3086.3639              3102.7721              3107.9631
 Red. masses --      1.0944                 1.0712                 1.1003
 Frc consts  --      6.1421                 6.0763                 6.2621
 IR Inten    --      9.1244                49.0908                51.0653

                     94                     95                     96
                      A                      A                      A
 Frequencies --   3120.4095              3145.2806              3195.7847
 Red. masses --      1.1020                 1.1037                 1.0868
 Frc consts  --      6.3223                 6.4333                 6.5397
 IR Inten    --     41.5758                30.3178                 1.6584

                     97                     98                     99
                      A                      A                      A
 Frequencies --   3210.2445              3224.5268              3263.2789
 Red. masses --      1.0926                 1.0933                 1.0961
 Frc consts  --      6.6342                 6.6979                 6.8770
 IR Inten    --     19.1496                10.5721                 7.3078

                    100                    101                    102
                      A                      A                      A
 Frequencies --   3522.7200              3547.4257              3663.7323
 Red. masses --      1.0737                 1.0745                 1.0816
 Frc consts  --      7.8504                 7.9664                 8.5535
 IR Inten    --      1.0081                20.7979               106.5940

 - Thermochemistry -
 -------------------
 Temperature   298.150 Kelvin.  Pressure   1.00000 Atm.
 Atom     1 has atomic number  6 and mass  12.00000

 Molecular mass:   246.14806 amu.
 Principal axes and moments of inertia in atomic units:
                           1         2         3
     Eigenvalues --  2375.004247216.821598337.93857
           X            0.99989   0.01481   0.00186
           Y           -0.01483   0.99978   0.01456
           Z           -0.00164  -0.01459   0.99989
 This molecule is an asymmetric top.
 Rotational symmetry number  1.
 Warning -- assumption of classical behavior for rotation
           may cause significant error
 Rotational temperatures (Kelvin)      0.03647     0.01200     0.01039
 Rotational constants (GHZ):           0.75989     0.25007     0.21645
 Zero-point vibrational energy     808039.7 (Joules/Mol)
                                  193.12613 (Kcal/Mol)
 Warning -- explicit consideration of  25 degrees of freedom as
           vibrations may cause significant error
 Vibrational temperatures:     25.00    49.79    71.78    76.31   130.31
          (Kelvin)            159.47   207.17   218.05   261.29   317.64
                              318.90   362.59   406.69   432.43   471.80
                              507.22   546.49   587.34   661.77   693.04
                              743.68   779.40   822.77   841.73   874.46
                              940.93   953.40  1002.01  1053.14  1076.76
                             1105.76  1115.25  1165.12  1193.35  1198.04
                             1239.62  1254.36  1271.76  1307.17  1336.59
                             1352.29  1374.07  1400.71  1420.70  1455.02
                             1543.39  1557.45  1569.68  1591.65  1623.65
                             1677.94  1690.28  1697.26  1715.52  1778.79
                             1794.94  1812.91  1836.93  1866.24  1884.05
                             1933.25  1935.54  1956.74  1988.25  1997.58
                             2026.43  2039.31  2042.63  2062.15  2090.09
                             2113.63  2139.41  2167.52  2176.67  2178.97
                             2194.72  2202.32  2213.39  2235.40  2236.66
                             2239.61  2367.60  2392.37  2480.40  4189.13
                             4373.82  4375.63  4378.82  4395.64  4435.81
                             4440.59  4464.20  4471.67  4489.57  4525.36
                             4598.02  4618.83  4639.37  4695.13  5068.41
                             5103.95  5271.29

 Zero-point correction=                           0.307766 (Hartree/Particle)
 Thermal correction to Energy=                    0.324419
 Thermal correction to Enthalpy=                  0.325363
 Thermal correction to Gibbs Free Energy=         0.261614
 Sum of electronic and zero-point Energies=           -800.211674
 Sum of electronic and thermal Energies=              -800.195021
 Sum of electronic and thermal Enthalpies=            -800.194076
 Sum of electronic and thermal Free Energies=         -800.257826

                     E (Thermal)             CV                S
                      KCal/Mol        Cal/Mol-Kelvin    Cal/Mol-Kelvin
 Total                  203.576             63.791            134.172
 Electronic               0.000              0.000              0.000
 Translational            0.889              2.981             42.403
 Rotational               0.889              2.981             33.324
 Vibrational            201.799             57.829             58.445
 Vibration     1          0.593              1.986              6.914
 Vibration     2          0.594              1.983              5.546
 Vibration     3          0.595              1.978              4.822
 Vibration     4          0.596              1.976              4.701
 Vibration     5          0.602              1.956              3.648
 Vibration     6          0.607              1.941              3.254
 Vibration     7          0.616              1.909              2.750
 Vibration     8          0.619              1.901              2.653
 Vibration     9          0.630              1.865              2.312
 Vibration    10          0.647              1.809              1.953
 Vibration    11          0.648              1.808              1.946
 Vibration    12          0.664              1.759              1.716
 Vibration    13          0.682              1.706              1.518
 Vibration    14          0.693              1.673              1.414
 Vibration    15          0.711              1.620              1.270
 Vibration    16          0.729              1.570              1.155
 Vibration    17          0.750              1.513              1.040
 Vibration    18          0.773              1.452              0.933
 Vibration    19          0.818              1.339              0.766
 Vibration    20          0.838              1.291              0.706
 Vibration    21          0.872              1.213              0.617
 Vibration    22          0.897              1.158              0.562
 Vibration    23          0.928              1.092              0.501
 Vibration    24          0.942              1.064              0.476
 Vibration    25          0.967              1.015              0.436

 Optimization completed.
    -- Stationary point found.
 Normal termination of Gaussian 16 at Fri Dec 11 21:15:46 2020.

 ----------------------------------------------------------------------
 # B3LYP/6-311++G(d,p) empiricaldispersion=gd3bj scf=xqc pop=npa geom=c
 heck
 ----------------------------------------------------------------------

 ---------------------------------------
 CID_120038725_JID_8426_Energie_neutraal
 ---------------------------------------
 Structure from the checkpoint file:  "JID_8426.chk"
 Charge =  0 Multiplicity = 1

 SCF Done:  E(RB3LYP) =  -800.742212473     A.U. after   16 cycles
 Normal termination of Gaussian 16 at Fri Dec 11 21:23:31 2020.

 ----------------------------------------------------------------------
 # B3LYP/6-311++G(d,p) empiricaldispersion=gd3bj scf=xqc pop=npa geom=c
 heck
 ----------------------------------------------------------------------

 -------------------------------------
 CID_120038725_JID_8426_Energie_kation
 -------------------------------------
 Structure from the checkpoint file:  "JID_8426.chk"
 Charge =  1 Multiplicity = 2

 SCF Done:  E(UB3LYP) =  -800.450574451     A.U. after   26 cycles
 Normal termination of Gaussian 16 at Fri Dec 11 21:41:12 2020.
 Gaussian 16:  ES64L-G16RevA.03 25-Dec-2016

 ----------------------------------------------------------------------
 # B3LYP/6-311++G(d,p) empiricaldispersion=gd3bj scf=xqc pop=npa geom=c
 heck
 ----------------------------------------------------------------------

 ------------------------------------
 CID_120038725_JID_8426_Energie_anion
 ------------------------------------
 Structure from the checkpoint file:  "JID_8426.chk"
 Charge = -1 Multiplicity = 2

                         Standard orientation:
 ---------------------------------------------------------------------
 Center     Atomic      Atomic             Coordinates (Angstroms)
 Number     Number       Type             X           Y           Z
 ---------------------------------------------------------------------
      1          6           0        4.057356    1.612843    0.804734
      2          6           0        4.526260    0.981774   -0.512710
      3          6           0        3.829506   -0.344307   -0.827799
      4          7           0        2.453521   -0.119956   -1.260656
      5          6           0        1.605388   -1.299657   -1.312314
      6          6           0        1.408587   -2.050862    0.027641
      7          7           0        1.133525   -1.134659    1.148163
      8          6           0        0.164580   -0.151689    1.098367
      9          8           0        0.417829    1.001618    1.469787
     10          6           0       -1.189472   -0.502102    0.607594
     11          6           0       -1.745519   -1.780669    0.616031
     12          6           0       -3.041630   -2.032390    0.124049
     13          6           0       -3.827042   -1.009976   -0.393193
     14          6           0       -3.317607    0.297953   -0.388593
     15          6           0       -2.018014    0.535858    0.129997
     16          7           0       -1.814583    1.875403    0.030544
     17          7           0       -2.883732    2.529028   -0.499034
     18          6           0       -3.783330    1.597727   -0.764851
     19          1           0        2.976044    1.790140    0.832753
     20          1           0        4.550926    2.574988    0.978705
     21          1           0        4.301222    0.959869    1.652982
     22          1           0        4.351972    1.669859   -1.349287
     23          1           0        5.608254    0.808383   -0.463125
     24          1           0        4.355717   -0.866780   -1.638093
     25          1           0        3.913849   -0.997836    0.064128
     26          1           0        2.014464    0.586446   -0.675921
     27          1           0        0.622100   -0.983115   -1.679349
     28          1           0        2.011391   -2.002924   -2.051832
     29          1           0        0.607905   -2.785005   -0.077295
     30          1           0        2.309002   -2.604708    0.306218
     31          1           0        1.982765   -0.725597    1.527331
     32          1           0       -1.175363   -2.599604    1.040420
     33          1           0       -3.428042   -3.046276    0.155667
     34          1           0       -4.821247   -1.217121   -0.778485
     35          1           0       -1.027385    2.376763    0.415825
     36          1           0       -4.731695    1.873843   -1.205786
 ---------------------------------------------------------------------

 SCF Done:  E(UB3LYP) =  -800.759776931     A.U. after   26 cycles

 The electronic state is 2-A.
 Alpha  occ. eigenvalues --  -18.93792 -14.23034 -14.19328 -14.19297 -14.18750
 Alpha  occ. eigenvalues --  -10.10912 -10.10068 -10.08956 -10.08516 -10.08171
 Alpha  occ. eigenvalues --  -10.06895 -10.06185 -10.04879 -10.02672 -10.02527
 Alpha  occ. eigenvalues --  -10.02154 -10.01947 -10.01800  -0.89889  -0.88859
 Alpha  occ. eigenvalues --   -0.81227  -0.77657  -0.70775  -0.68687  -0.67978
 Alpha  occ. eigenvalues --   -0.62037  -0.61314  -0.60261  -0.57878  -0.52008
 Alpha  occ. eigenvalues --   -0.50085  -0.49090  -0.47007  -0.46081  -0.44943
 Alpha  occ. eigenvalues --   -0.39529  -0.38671  -0.37692  -0.37111  -0.35901
 Alpha  occ. eigenvalues --   -0.34153  -0.33373  -0.32345  -0.31676  -0.31240
 Alpha  occ. eigenvalues --   -0.30793  -0.30328  -0.30064  -0.28365  -0.27412
 Alpha  occ. eigenvalues --   -0.26808  -0.26146  -0.25582  -0.25220  -0.24421
 Alpha  occ. eigenvalues --   -0.23579  -0.22534  -0.20878  -0.20161  -0.15536
 Alpha  occ. eigenvalues --   -0.15010  -0.14353  -0.12464  -0.11134  -0.10381
 Alpha  occ. eigenvalues --   -0.08550   0.04005
 Alpha virt. eigenvalues --    0.06508   0.08023   0.08703   0.09129   0.09764
 Alpha virt. eigenvalues --    0.10315   0.10810   0.11285   0.11816   0.12252
 Alpha virt. eigenvalues --    0.12708   0.13520   0.13695   0.14091   0.14319

  Beta  occ. eigenvalues --  -18.93476 -14.23067 -14.19305 -14.19297 -14.18528
  Beta  occ. eigenvalues --  -10.10633 -10.10068 -10.08935 -10.08512 -10.08171
  Beta  occ. eigenvalues --  -10.06893 -10.06161 -10.04829 -10.02795 -10.02538
  Beta  occ. eigenvalues --  -10.02001 -10.01645 -10.01367  -0.89662  -0.88353
  Beta  occ. eigenvalues --   -0.81177  -0.77482  -0.70399  -0.68679  -0.67802
  Beta  occ. eigenvalues --   -0.61922  -0.60932  -0.59798  -0.57845  -0.51761
  Beta  occ. eigenvalues --   -0.49590  -0.49021  -0.46809  -0.45916  -0.44763
  Beta  occ. eigenvalues --   -0.39489  -0.38552  -0.37490  -0.36916  -0.35757
  Beta  occ. eigenvalues --   -0.34074  -0.33302  -0.32090  -0.31516  -0.31120
  Beta  occ. eigenvalues --   -0.30677  -0.30215  -0.29666  -0.28222  -0.27171
  Beta  occ. eigenvalues --   -0.26648  -0.25927  -0.25451  -0.24830  -0.23796
  Beta  occ. eigenvalues --   -0.23488  -0.22387  -0.20495  -0.19157  -0.15248
  Beta  occ. eigenvalues --   -0.14280  -0.13755  -0.12293  -0.10576  -0.09345
  Beta  occ. eigenvalues --   -0.07290
  Beta virt. eigenvalues --    0.06452   0.07954   0.08598   0.09068   0.09697
  Beta virt. eigenvalues --    0.10015   0.10273   0.10824   0.11238   0.11799
  Beta virt. eigenvalues --    0.12220   0.12697   0.13482   0.14059   0.14249

 Mulliken charges and spin densities:
               1          2
     1  C   -0.494550  -0.002644
     2  C   -0.324301  -0.002403
     3  C   -0.258069  -0.007294
     4  N   -0.026105   0.004485
     5  C   -0.594918   0.008503
     6  C    0.015536  -0.035927
     7  N   -0.147958   0.009214
     8  C   -1.019854   0.066227
     9  O   -0.388287   0.112205
    10  C    1.057362   0.113923
    11  C   -0.322207   0.319681
    12  C   -0.583511  -0.108569
    13  C   -0.768754   0.327569
    14  C    0.689604  -0.019312
    15  C   -0.128513   0.014791
    16  N   -0.085393  -0.022779
    17  N   -0.152759   0.101141
    18  C   -0.189928   0.048646
    19  H    0.196848  -0.001009
    20  H    0.127618   0.000303
    21  H    0.108711   0.004182
    22  H    0.146866   0.001226
    23  H    0.113705   0.001623
    24  H    0.133285   0.000827
    25  H    0.069483   0.001972
    26  H    0.252000  -0.003083
    27  H    0.206066  -0.002821
    28  H    0.133613  -0.000595
    29  H    0.115067  -0.002419
    30  H    0.095207   0.057268
    31  H    0.288245   0.032532
    32  H    0.097802   0.004397
    33  H    0.105236   0.005602
    34  H    0.090177  -0.026667
    35  H    0.321889   0.002170
    36  H    0.120789  -0.002966
 Sum of Mulliken charges =  -1.00000   1.00000

 Dipole moment (field-independent basis, Debye):
    X=              7.0500    Y=             -2.7093    Z=             -1.3141  Tot=              7.6661
 Quadrupole moment (field-independent basis, Debye-Ang):
   XX=           -145.0972   YY=           -131.0697   ZZ=           -128.4708
   XY=              3.8304   XZ=              1.0317   YZ=              2.1727

 Summary of Natural Population Analysis:

                                       Natural Population
                Natural  -----------------------------------------------
    Atom  No    Charge         Core      Valence    Rydberg      Total
 -----------------------------------------------------------------------
      C    1   -0.29392      0.99967     2.28922    0.00503     3.29392
      C    2   -0.19396      0.99964     2.18803    0.00629     3.19396
      C    3   -0.08487      0.99964     2.07581    0.00942     3.08487
      N    4   -0.34983      0.99975     2.83520    0.01488     3.84983
      C    5   -0.09455      0.99963     2.08595    0.00896     3.09455
      C    6   -0.09660      0.99962     2.08562    0.01135     3.09660
      N    7   -0.33171      0.99968     2.82064    0.01139     3.83171
      C    8    0.37201      0.99962     1.60542    0.02295     2.62799
      O    9   -0.32190      0.99988     3.31627    0.00576     4.32190
      C   10   -0.07255      0.99943     2.06168    0.01144     3.07255
      C   11   -0.02948      0.99956     2.02181    0.00811     3.02948
      C   12   -0.15153      0.99959     2.14238    0.00957     3.15153
      C   13   -0.00412      0.99954     1.99599    0.00859     3.00412
      C   14   -0.07861      0.99950     2.07116    0.00795     3.07861
      C   15    0.10007      0.99947     1.89018    0.01029     2.89993
      N   16   -0.18565      0.99964     2.67406    0.01195     3.68565
      N   17   -0.12440      0.99973     2.61033    0.01434     3.62440
      C   18   -0.00928      0.99961     1.99421    0.01546     3.00928
      H   19    0.11264      0.00000     0.38618    0.00118     0.38736
      H   20    0.09449      0.00000     0.40469    0.00082     0.40551
      H   21    0.09317      0.00000     0.40592    0.00091     0.40683
      H   22    0.09691      0.00000     0.40173    0.00136     0.40309
      H   23    0.09032      0.00000     0.40852    0.00115     0.40968
      H   24    0.08636      0.00000     0.41234    0.00130     0.41364
      H   25    0.07220      0.00000     0.42527    0.00253     0.42780
      H   26    0.18361      0.00000     0.31405    0.00234     0.31639
      H   27    0.10546      0.00000     0.39361    0.00093     0.39454
      H   28    0.08485      0.00000     0.41413    0.00103     0.41515
      H   29    0.10156      0.00000     0.39742    0.00102     0.39844
      H   30    0.08564      0.00000     0.41279    0.00157     0.41436
      H   31    0.18066      0.00000     0.31606    0.00328     0.31934
      H   32    0.09055      0.00000     0.40821    0.00124     0.40945
      H   33    0.08985      0.00000     0.40909    0.00106     0.41015
      H   34    0.08482      0.00000     0.41366    0.00151     0.41518
      H   35    0.20994      0.00000     0.28826    0.00180     0.29006
      H   36    0.08783      0.00000     0.41109    0.00108     0.41217
 =======================================================================
   * Total *   -0.00000     17.99320    47.78696    0.21983    66.00000

 Normal termination of Gaussian 16 at Fri Dec 11 21:59:03 2020.
