 Gaussian 16, Revision A.03,

 -----------------------------------------------------------
 # opt freq B3LYP/6-31G(d) empiricaldispersion=gd3bj scf=xqc
 -----------------------------------------------------------

 ------------------------------
 CID_10845996_JID_5137_neutraal
 ------------------------------
 Symbolic Z-matrix:
 Charge =  0 Multiplicity = 1

 SCF Done:  E(RB3LYP) =  -699.707856062     A.U. after   15 cycles
 SCF Done:  E(RB3LYP) =  -699.719555355     A.U. after   14 cycles
 SCF Done:  E(RB3LYP) =  -699.727273820     A.U. after   15 cycles
 SCF Done:  E(RB3LYP) =  -699.734099058     A.U. after   15 cycles
 SCF Done:  E(RB3LYP) =  -699.737773343     A.U. after   15 cycles
 SCF Done:  E(RB3LYP) =  -699.739339613     A.U. after   12 cycles
 SCF Done:  E(RB3LYP) =  -699.740515956     A.U. after   14 cycles
 SCF Done:  E(RB3LYP) =  -699.740891464     A.U. after   12 cycles
 SCF Done:  E(RB3LYP) =  -699.741107155     A.U. after   12 cycles
 SCF Done:  E(RB3LYP) =  -699.741158252     A.U. after   11 cycles
 SCF Done:  E(RB3LYP) =  -699.741196407     A.U. after   10 cycles
 SCF Done:  E(RB3LYP) =  -699.741199652     A.U. after    9 cycles
 SCF Done:  E(RB3LYP) =  -699.741200690     A.U. after    9 cycles
 SCF Done:  E(RB3LYP) =  -699.741200842     A.U. after    8 cycles
 SCF Done:  E(RB3LYP) =  -699.741200884     A.U. after    7 cycles
 Optimization completed.
    -- Stationary point found.
 Normal termination of Gaussian 16 at Thu Dec 10 14:47:19 2020.

 --------------------------------------------------------------------
 #N Geom=AllCheck Guess=TCheck SCRF=Check GenChk RB3LYP/6-31G(d) Freq
 --------------------------------------------------------------------

 Structure from the checkpoint file:  "JID_5137.chk"
 ------------------------------
 CID_10845996_JID_5137_neutraal
 ------------------------------
 Charge =  0 Multiplicity = 1

 SCF Done:  E(RB3LYP) =  -699.741200884     A.U. after    1 cycles

  Exact polarizability: 219.580  14.632 131.953  -7.980   3.697  75.408
 Approx polarizability: 294.663  46.907 224.434 -20.045   6.945 112.202

                      1                      2                      3
                      A                      A                      A
 Frequencies --     29.8266                39.3143                64.2541
 Red. masses --      4.7534                 3.5095                 3.2377
 Frc consts  --      0.0025                 0.0032                 0.0079
 IR Inten    --      0.7342                 1.4800                 0.3174

                      4                      5                      6
                      A                      A                      A
 Frequencies --     77.4224                95.9623               114.5822
 Red. masses --      3.3963                 3.4231                 5.7032
 Frc consts  --      0.0120                 0.0186                 0.0441
 IR Inten    --      0.1334                 2.2158                 1.5221

                      7                      8                      9
                      A                      A                      A
 Frequencies --    124.0829               151.4411               169.3411
 Red. masses --      3.5623                 3.1086                 5.5687
 Frc consts  --      0.0323                 0.0420                 0.0941
 IR Inten    --      3.9283                 2.3497                 3.0561

                     10                     11                     12
                      A                      A                      A
 Frequencies --    203.2624               245.5818               255.7524
 Red. masses --      1.7852                 3.3474                 1.2683
 Frc consts  --      0.0435                 0.1189                 0.0489
 IR Inten    --      2.4715                 0.4332                 4.5616

                     13                     14                     15
                      A                      A                      A
 Frequencies --    270.5668               341.4311               373.5914
 Red. masses --      1.7458                 3.7195                 4.3056
 Frc consts  --      0.0753                 0.2555                 0.3541
 IR Inten    --      3.5835                 1.1402                 3.5331

                     16                     17                     18
                      A                      A                      A
 Frequencies --    400.3279               402.6363               492.4771
 Red. masses --      3.7844                 3.9597                 5.2723
 Frc consts  --      0.3573                 0.3782                 0.7534
 IR Inten    --      1.6355                17.1356                 9.0061

                     19                     20                     21
                      A                      A                      A
 Frequencies --    507.3520               537.7582               556.7634
 Red. masses --      3.7236                 5.0648                 5.2615
 Frc consts  --      0.5647                 0.8630                 0.9609
 IR Inten    --      9.0073                10.5195                 7.1585

                     22                     23                     24
                      A                      A                      A
 Frequencies --    583.9843               648.6522               650.8455
 Red. masses --      5.3213                 5.1925                 3.5601
 Frc consts  --      1.0692                 1.2872                 0.8885
 IR Inten    --      3.2774                 5.4259                 6.8847

                     25                     26                     27
                      A                      A                      A
 Frequencies --    700.4164               763.3086               770.7522
 Red. masses --      1.5809                 9.0430                 3.8210
 Frc consts  --      0.4569                 3.1043                 1.3374
 IR Inten    --    273.2669                25.4817                 8.6056

                     28                     29                     30
                      A                      A                      A
 Frequencies --    782.3812               814.8194               817.2813
 Red. masses --      4.0358                 1.3511                 1.3672
 Frc consts  --      1.4555                 0.5285                 0.5380
 IR Inten    --     24.7314                 3.4549                 8.7050

                     31                     32                     33
                      A                      A                      A
 Frequencies --    819.6149               885.5508               970.6620
 Red. masses --      1.2563                 2.5658                 1.3699
 Frc consts  --      0.4972                 1.1855                 0.7604
 IR Inten    --      2.4297                 8.2823                 5.9538

                     34                     35                     36
                      A                      A                      A
 Frequencies --    976.8872              1027.4308              1068.0735
 Red. masses --      2.4243                 2.8605                 4.5252
 Frc consts  --      1.3631                 1.7791                 3.0415
 IR Inten    --      6.9300                23.1932                 4.8035

                     37                     38                     39
                      A                      A                      A
 Frequencies --   1102.4637              1116.9600              1125.5799
 Red. masses --      4.2241                 2.1136                 2.2034
 Frc consts  --      3.0249                 1.5537                 1.6448
 IR Inten    --     58.6113                 5.4799                84.2842

                     40                     41                     42
                      A                      A                      A
 Frequencies --   1139.1972              1190.9439              1206.3970
 Red. masses --      1.6906                 3.5858                 1.8004
 Frc consts  --      1.2927                 2.9965                 1.5438
 IR Inten    --      4.6171                12.1287                 3.7010

                     43                     44                     45
                      A                      A                      A
 Frequencies --   1259.2303              1281.4109              1303.3474
 Red. masses --      1.6801                 3.5675                 2.0409
 Frc consts  --      1.5696                 3.4513                 2.0427
 IR Inten    --     26.7581               141.7052                24.6651

                     46                     47                     48
                      A                      A                      A
 Frequencies --   1333.7936              1340.7266              1390.7721
 Red. masses --      1.3040                 1.4822                 1.3766
 Frc consts  --      1.3668                 1.5698                 1.5688
 IR Inten    --     15.6678                29.1229                22.0985

                     49                     50                     51
                      A                      A                      A
 Frequencies --   1402.8857              1410.6790              1414.8707
 Red. masses --      1.6624                 1.7278                 2.1382
 Frc consts  --      1.9276                 2.0258                 2.5220
 IR Inten    --     63.2120                10.9546                16.7535

                     52                     53                     54
                      A                      A                      A
 Frequencies --   1437.7789              1444.3061              1447.7891
 Red. masses --      1.4150                 1.3402                 1.6947
 Frc consts  --      1.7234                 1.6472                 2.0929
 IR Inten    --     30.2854                 1.7498                22.3152

                     55                     56                     57
                      A                      A                      A
 Frequencies --   1485.1302              1510.1449              1513.4503
 Red. masses --      2.4205                 1.2776                 1.0787
 Frc consts  --      3.1454                 1.7166                 1.4557
 IR Inten    --      7.4973                 7.6253                 1.5924

                     58                     59                     60
                      A                      A                      A
 Frequencies --   1518.0209              1522.1748              1534.1733
 Red. masses --      1.0562                 1.0647                 1.2316
 Frc consts  --      1.4340                 1.4534                 1.7080
 IR Inten    --      2.2413                11.7684                 4.7022

                     61                     62                     63
                      A                      A                      A
 Frequencies --   1537.8446              1544.6584              1592.3527
 Red. masses --      1.0612                 1.9172                 7.5259
 Frc consts  --      1.4786                 2.6952                11.2432
 IR Inten    --      2.4340                14.0804               172.8012

                     64                     65                     66
                      A                      A                      A
 Frequencies --   1704.0395              2334.0410              3046.1640
 Red. masses --      5.1654                12.6475                 1.0655
 Frc consts  --      8.8371                40.5950                 5.8253
 IR Inten    --    854.9303               121.3938                46.1398

                     67                     68                     69
                      A                      A                      A
 Frequencies --   3059.3286              3065.7020              3081.7563
 Red. masses --      1.0359                 1.0357                 1.0597
 Frc consts  --      5.7124                 5.7350                 5.9297
 IR Inten    --     13.5668                17.2897                22.2046

                     70                     71                     72
                      A                      A                      A
 Frequencies --   3112.5648              3123.1317              3127.3011
 Red. masses --      1.0999                 1.1061                 1.1018
 Frc consts  --      6.2782                 6.3564                 6.3488
 IR Inten    --     16.8126                 3.7604                30.8064

                     73                     74                     75
                      A                      A                      A
 Frequencies --   3138.3664              3144.1634              3154.4509
 Red. masses --      1.1032                 1.1036                 1.1043
 Frc consts  --      6.4018                 6.4282                 6.4742
 IR Inten    --     26.2923                38.5052                14.9650

                     76                     77                     78
                      A                      A                      A
 Frequencies --   3185.2564              3261.6638              3463.4833
 Red. masses --      1.0901                 1.0968                 1.0792
 Frc consts  --      6.5163                 6.8750                 7.6271
 IR Inten    --     10.7859                 2.7156                77.8566

 - Thermochemistry -
 -------------------
 Temperature   298.150 Kelvin.  Pressure   1.00000 Atm.
 Atom     1 has atomic number  6 and mass  12.00000

 Molecular mass:   207.11201 amu.
 Principal axes and moments of inertia in atomic units:
                           1         2         3
     Eigenvalues --  1221.354017016.979327831.83738
           X            0.99982  -0.01579   0.01006
           Y            0.01579   0.99988   0.00037
           Z           -0.01006  -0.00021   0.99995
 This molecule is an asymmetric top.
 Rotational symmetry number  1.
 Warning -- assumption of classical behavior for rotation
           may cause significant error
 Rotational temperatures (Kelvin)      0.07092     0.01234     0.01106
 Rotational constants (GHZ):           1.47766     0.25720     0.23044
 Zero-point vibrational energy     597193.1 (Joules/Mol)
                                  142.73257 (Kcal/Mol)
 Warning -- explicit consideration of  22 degrees of freedom as
           vibrations may cause significant error
 Vibrational temperatures:     42.91    56.56    92.45   111.39   138.07
          (Kelvin)            164.86   178.53   217.89   243.64   292.45
                              353.34   367.97   389.29   491.24   537.51
                              575.98   579.30   708.56   729.97   773.71
                              801.06   840.22   933.27   936.42  1007.74
                             1098.23  1108.94  1125.67  1172.34  1175.89
                             1179.24  1274.11  1396.57  1405.52  1478.24
                             1536.72  1586.20  1607.06  1619.46  1639.05
                             1713.50  1735.74  1811.75  1843.66  1875.23
                             1919.03  1929.01  2001.01  2018.44  2029.65
                             2035.68  2068.64  2078.03  2083.05  2136.77
                             2172.76  2177.52  2184.09  2190.07  2207.33
                             2212.62  2222.42  2291.04  2451.73  3358.16
                             4382.75  4401.69  4410.86  4433.96  4478.29
                             4493.49  4499.49  4515.41  4523.75  4538.55
                             4582.87  4692.81  4983.18

 Zero-point correction=                           0.227459 (Hartree/Particle)
 Thermal correction to Energy=                    0.242643
 Thermal correction to Enthalpy=                  0.243587
 Thermal correction to Gibbs Free Energy=         0.183503
 Sum of electronic and zero-point Energies=           -699.513742
 Sum of electronic and thermal Energies=              -699.498558
 Sum of electronic and thermal Enthalpies=            -699.497614
 Sum of electronic and thermal Free Energies=         -699.557698

                     E (Thermal)             CV                S
                      KCal/Mol        Cal/Mol-Kelvin    Cal/Mol-Kelvin
 Total                  152.261             54.636            126.457
 Electronic               0.000              0.000              0.000
 Translational            0.889              2.981             41.888
 Rotational               0.889              2.981             32.573
 Vibrational            150.483             48.674             51.995
 Vibration     1          0.594              1.984              5.841
 Vibration     2          0.594              1.981              5.293
 Vibration     3          0.597              1.971              4.322
 Vibration     4          0.599              1.964              3.955
 Vibration     5          0.603              1.952              3.535
 Vibration     6          0.608              1.937              3.190
 Vibration     7          0.610              1.929              3.036
 Vibration     8          0.619              1.901              2.654
 Vibration     9          0.625              1.880              2.443
 Vibration    10          0.639              1.835              2.103
 Vibration    11          0.660              1.770              1.762
 Vibration    12          0.666              1.753              1.691
 Vibration    13          0.674              1.727              1.593
 Vibration    14          0.721              1.593              1.205
 Vibration    15          0.745              1.526              1.065
 Vibration    16          0.766              1.469              0.961
 Vibration    17          0.768              1.464              0.953
 Vibration    18          0.848              1.267              0.677
 Vibration    19          0.863              1.234              0.640
 Vibration    20          0.893              1.167              0.570
 Vibration    21          0.912              1.125              0.530
 Vibration    22          0.941              1.066              0.478

 Optimization completed.
    -- Stationary point found.
 Normal termination of Gaussian 16 at Thu Dec 10 14:53:36 2020.

 ----------------------------------------------------------------------
 # B3LYP/6-311++G(d,p) empiricaldispersion=gd3bj scf=xqc pop=npa geom=c
 heck
 ----------------------------------------------------------------------

 --------------------------------------
 CID_10845996_JID_5137_Energie_neutraal
 --------------------------------------
 Structure from the checkpoint file:  "JID_5137.chk"
 Charge =  0 Multiplicity = 1

 SCF Done:  E(RB3LYP) =  -699.935162639     A.U. after   14 cycles
 Normal termination of Gaussian 16 at Thu Dec 10 14:56:03 2020.

 ----------------------------------------------------------------------
 # B3LYP/6-311++G(d,p) empiricaldispersion=gd3bj scf=xqc pop=npa geom=c
 heck
 ----------------------------------------------------------------------

 ------------------------------------
 CID_10845996_JID_5137_Energie_kation
 ------------------------------------
 Structure from the checkpoint file:  "JID_5137.chk"
 Charge =  1 Multiplicity = 2

 SCF Done:  E(UB3LYP) =  -699.651462442     A.U. after   21 cycles
 Normal termination of Gaussian 16 at Thu Dec 10 15:00:54 2020.
 Gaussian 16:  ES64L-G16RevA.03 25-Dec-2016

 ----------------------------------------------------------------------
 # B3LYP/6-311++G(d,p) empiricaldispersion=gd3bj scf=xqc pop=npa geom=c
 heck
 ----------------------------------------------------------------------

 -----------------------------------
 CID_10845996_JID_5137_Energie_anion
 -----------------------------------
 Structure from the checkpoint file:  "JID_5137.chk"
 Charge = -1 Multiplicity = 2

                         Standard orientation:
 ---------------------------------------------------------------------
 Center     Atomic      Atomic             Coordinates (Angstroms)
 Number     Number       Type             X           Y           Z
 ---------------------------------------------------------------------
      1          6           0        4.556023   -0.844654    0.715028
      2          6           0        3.751649   -0.988621   -0.576303
      3          7           0        2.326344   -0.735164   -0.376525
      4          6           0        1.331973   -1.651723   -0.306694
      5          7           0        0.151120   -1.105847   -0.068051
      6          6           0        0.373692    0.256974    0.038911
      7          6           0        1.735976    0.507153   -0.151770
      8          6           0        2.475838    1.703639   -0.144433
      9          7           0        3.129950    2.668925   -0.142956
     10          7           0       -0.557840    1.227116    0.307195
     11          6           0       -1.806399    0.929990    0.471852
     12          7           0       -2.410949   -0.279539    0.307239
     13          8           0       -3.656603   -0.427129    0.937262
     14          6           0       -4.675680   -0.712270   -0.039861
     15          6           0       -4.994095    0.476368   -0.931971
     16          1           0        4.490424    0.175927    1.101764
     17          1           0        5.609890   -1.069684    0.521428
     18          1           0        4.186929   -1.534391    1.480670
     19          1           0        4.113475   -0.290829   -1.337644
     20          1           0        3.837539   -1.999716   -0.984667
     21          1           0        1.520159   -2.707970   -0.446870
     22          1           0       -2.503850    1.725790    0.728532
     23          1           0       -1.822704   -1.113951    0.340823
     24          1           0       -4.372397   -1.584811   -0.633247
     25          1           0       -5.536677   -0.994242    0.574022
     26          1           0       -4.118885    0.765648   -1.521305
     27          1           0       -5.802446    0.220426   -1.626231
     28          1           0       -5.312872    1.335260   -0.332233
 ---------------------------------------------------------------------

 SCF Done:  E(UB3LYP) =  -699.933768513     A.U. after   33 cycles
 SCF Done:  E(UB3LYP) =  -699.933768513     a.u. after    1 cycles

 The electronic state is 2-A.
 Alpha  occ. eigenvalues --  -19.07177 -14.25870 -14.25391 -14.18629 -14.17253
 Alpha  occ. eigenvalues --  -14.17004 -10.14157 -10.11409 -10.11082 -10.11070
 Alpha  occ. eigenvalues --  -10.09757 -10.08751 -10.08702 -10.07364 -10.06310
 Alpha  occ. eigenvalues --   -0.99411  -0.91097  -0.82684  -0.77701  -0.76698
 Alpha  occ. eigenvalues --   -0.73719  -0.66832  -0.66213  -0.63486  -0.55385
 Alpha  occ. eigenvalues --   -0.54503  -0.53088  -0.50543  -0.47996  -0.43741
 Alpha  occ. eigenvalues --   -0.42334  -0.39782  -0.39696  -0.36780  -0.35834
 Alpha  occ. eigenvalues --   -0.35202  -0.33859  -0.33312  -0.31746  -0.31406
 Alpha  occ. eigenvalues --   -0.30345  -0.29216  -0.27975  -0.27606  -0.25941
 Alpha  occ. eigenvalues --   -0.24646  -0.23555  -0.22821  -0.21239  -0.20428
 Alpha  occ. eigenvalues --   -0.17554  -0.17004  -0.14938  -0.14677  -0.09120
 Alpha  occ. eigenvalues --    0.04428
 Alpha virt. eigenvalues --    0.05975   0.06658   0.08158   0.08518   0.08921
 Alpha virt. eigenvalues --    0.09485   0.10181   0.11100   0.11564   0.11936
 Alpha virt. eigenvalues --    0.12423   0.12727   0.12749   0.13997   0.14346

  Beta  occ. eigenvalues --  -19.07153 -14.25799 -14.25219 -14.18687 -14.17318
  Beta  occ. eigenvalues --  -14.16775 -10.14155 -10.11351 -10.11049 -10.10797
  Beta  occ. eigenvalues --  -10.09588 -10.08751 -10.08557 -10.07353 -10.06279
  Beta  occ. eigenvalues --   -0.99317  -0.90898  -0.82469  -0.77526  -0.76383
  Beta  occ. eigenvalues --   -0.73651  -0.66729  -0.66119  -0.63232  -0.55107
  Beta  occ. eigenvalues --   -0.54462  -0.52863  -0.50233  -0.47860  -0.43653
  Beta  occ. eigenvalues --   -0.42211  -0.39666  -0.39577  -0.36545  -0.35780
  Beta  occ. eigenvalues --   -0.35006  -0.33587  -0.33220  -0.31665  -0.31245
  Beta  occ. eigenvalues --   -0.30273  -0.28984  -0.27847  -0.27490  -0.25848
  Beta  occ. eigenvalues --   -0.24113  -0.23173  -0.22007  -0.21157  -0.20333
  Beta  occ. eigenvalues --   -0.17229  -0.16664  -0.14805  -0.14382  -0.08111
  Beta virt. eigenvalues --    0.05930   0.07539   0.07960   0.08622   0.09025
  Beta virt. eigenvalues --    0.09339   0.09899   0.10293   0.11548   0.11746
  Beta virt. eigenvalues --    0.12125   0.12471   0.12743   0.12900   0.14215

 Mulliken charges and spin densities:
               1          2
     1  C    0.242462  -0.679358
     2  C    0.199185  -0.474337
     3  N   -0.006941   0.136852
     4  C    0.343372  -0.193036
     5  N   -0.226143  -0.034746
     6  C   -0.410547   0.138301
     7  C    0.702385   0.472056
     8  C   -0.658488  -0.659709
     9  N   -0.349201   0.138656
    10  N   -0.089900  -0.045195
    11  C   -0.005504   0.216064
    12  N   -0.399312   0.010297
    13  O    0.046263   0.008801
    14  C   -0.132428  -0.020211
    15  C   -0.428465  -0.005592
    16  H    0.078663   0.090413
    17  H   -0.305152   0.433303
    18  H    0.081514   0.058786
    19  H    0.039735   0.141857
    20  H   -0.702010   0.855396
    21  H   -0.214825   0.379155
    22  H    0.166768  -0.017850
    23  H    0.379891   0.003945
    24  H    0.125555  -0.000184
    25  H    0.097201   0.044133
    26  H    0.182738  -0.000351
    27  H    0.111446  -0.001439
    28  H    0.131739   0.003993
 Sum of Mulliken charges =  -1.00000   1.00000

 Dipole moment (field-independent basis, Debye):
    X=            -10.2063    Y=             -2.3375    Z=              0.2614  Tot=             10.4738
 Quadrupole moment (field-independent basis, Debye-Ang):
   XX=           -153.8255   YY=           -130.7777   ZZ=           -105.7765
   XY=              1.2433   XZ=             10.2750   YZ=             -3.9007

 Summary of Natural Population Analysis:

                                       Natural Population
                Natural  -----------------------------------------------
    Atom  No    Charge         Core      Valence    Rydberg      Total
 -----------------------------------------------------------------------
      C    1   -0.29020      0.99966     2.28518    0.00537     3.29020
      C    2   -0.08473      0.99963     2.07373    0.01138     3.08473
      N    3   -0.17055      0.99963     2.66045    0.01047     3.67055
      C    4    0.12678      0.99964     1.85619    0.01739     2.87322
      N    5   -0.30949      0.99969     2.79920    0.01060     3.80949
      C    6    0.18685      0.99950     1.79527    0.01838     2.81315
      C    7    0.00307      0.99939     1.98563    0.01192     2.99693
      C    8    0.13650      0.99964     1.84629    0.01757     2.86350
      N    9   -0.16247      0.99979     2.65446    0.00822     3.66247
      N   10   -0.28707      0.99966     2.77871    0.00869     3.78707
      C   11    0.19657      0.99966     1.78699    0.01677     2.80343
      N   12   -0.16717      0.99964     2.65404    0.01349     3.66717
      O   13   -0.22214      0.99989     3.21060    0.01165     4.22214
      C   14   -0.00807      0.99961     1.99652    0.01194     3.00807
      C   15   -0.30445      0.99967     2.30041    0.00437     3.30445
      H   16    0.10724      0.00000     0.39180    0.00097     0.39276
      H   17    0.10150      0.00000     0.39707    0.00143     0.39850
      H   18    0.09723      0.00000     0.40188    0.00089     0.40277
      H   19    0.10283      0.00000     0.39575    0.00142     0.39717
      H   20    0.10183      0.00000     0.39406    0.00411     0.39817
      H   21    0.09168      0.00000     0.40676    0.00156     0.40832
      H   22    0.07750      0.00000     0.42131    0.00119     0.42250
      H   23    0.20733      0.00000     0.29124    0.00143     0.29267
      H   24    0.08157      0.00000     0.41737    0.00106     0.41843
      H   25    0.08394      0.00000     0.41442    0.00164     0.41606
      H   26    0.10890      0.00000     0.39010    0.00100     0.39110
      H   27    0.09627      0.00000     0.40288    0.00085     0.40373
      H   28    0.09877      0.00000     0.40026    0.00096     0.40123
 =======================================================================
   * Total *    0.00000     14.99469    39.80857    0.19674    55.00000

 Normal termination of Gaussian 16 at Thu Dec 10 15:08:52 2020.
