 Gaussian 16, Revision A.03,

 -----------------------------------------------------------
 # opt freq B3LYP/6-31G(d) empiricaldispersion=gd3bj scf=xqc
 -----------------------------------------------------------

 ------------------------------
 CID_62427387_JID_5060_neutraal
 ------------------------------
 Symbolic Z-matrix:
 Charge =  0 Multiplicity = 1

 SCF Done:  E(RB3LYP) =  -658.888539872     A.U. after   12 cycles
 SCF Done:  E(RB3LYP) =  -658.892391807     A.U. after   11 cycles
 SCF Done:  E(RB3LYP) =  -658.892242475     A.U. after   11 cycles
 SCF Done:  E(RB3LYP) =  -658.892930330     A.U. after   11 cycles
 SCF Done:  E(RB3LYP) =  -658.893045072     A.U. after   10 cycles
 SCF Done:  E(RB3LYP) =  -658.893315692     A.U. after   10 cycles
 SCF Done:  E(RB3LYP) =  -658.893335968     A.U. after   10 cycles
 SCF Done:  E(RB3LYP) =  -658.893383788     A.U. after    9 cycles
 SCF Done:  E(RB3LYP) =  -658.893395070     A.U. after    9 cycles
 SCF Done:  E(RB3LYP) =  -658.893398925     A.U. after    8 cycles
 SCF Done:  E(RB3LYP) =  -658.893400290     A.U. after    8 cycles
 SCF Done:  E(RB3LYP) =  -658.893401285     A.U. after    8 cycles
 SCF Done:  E(RB3LYP) =  -658.893401756     A.U. after    7 cycles
 SCF Done:  E(RB3LYP) =  -658.893401991     A.U. after    7 cycles
 SCF Done:  E(RB3LYP) =  -658.893402050     A.U. after    6 cycles
 SCF Done:  E(RB3LYP) =  -658.893402075     A.U. after    6 cycles
 Optimization completed.
    -- Stationary point found.
 Normal termination of Gaussian 16 at Thu Dec 10 14:51:27 2020.

 --------------------------------------------------------------------
 #N Geom=AllCheck Guess=TCheck SCRF=Check GenChk RB3LYP/6-31G(d) Freq
 --------------------------------------------------------------------

 Structure from the checkpoint file:  "JID_5060.chk"
 ------------------------------
 CID_62427387_JID_5060_neutraal
 ------------------------------
 Charge =  0 Multiplicity = 1

 SCF Done:  E(RB3LYP) =  -658.893402075     A.U. after    1 cycles

  Exact polarizability: 163.713   3.121 140.948  -1.708   0.923 133.240
 Approx polarizability: 198.603  -3.125 197.306   0.009  -0.073 193.311

                      1                      2                      3
                      A                      A                      A
 Frequencies --     18.0440                36.0136                53.3600
 Red. masses --      3.0998                 3.5064                 2.9823
 Frc consts  --      0.0006                 0.0027                 0.0050
 IR Inten    --      0.0835                 0.1274                 0.1182

                      4                      5                      6
                      A                      A                      A
 Frequencies --     71.8951                76.8260                81.3938
 Red. masses --      2.6182                 2.5582                 2.4041
 Frc consts  --      0.0080                 0.0089                 0.0094
 IR Inten    --      0.7193                 0.7013                 1.9875

                      7                      8                      9
                      A                      A                      A
 Frequencies --     95.6602               107.9903               110.8673
 Red. masses --      2.8084                 2.5124                 2.5212
 Frc consts  --      0.0151                 0.0173                 0.0183
 IR Inten    --      0.4939                 0.0863                 0.5703

                     10                     11                     12
                      A                      A                      A
 Frequencies --    157.1828               186.8291               208.8146
 Red. masses --      2.0247                 1.5576                 2.2857
 Frc consts  --      0.0295                 0.0320                 0.0587
 IR Inten    --      1.4514                 1.7616                 0.2531

                     13                     14                     15
                      A                      A                      A
 Frequencies --    222.2839               227.6357               241.7025
 Red. masses --      1.7185                 1.5636                 1.2475
 Frc consts  --      0.0500                 0.0477                 0.0429
 IR Inten    --      4.1395                 0.9844                 0.2936

                     16                     17                     18
                      A                      A                      A
 Frequencies --    245.6166               257.4763               270.4643
 Red. masses --      1.6717                 1.1543                 1.6452
 Frc consts  --      0.0594                 0.0451                 0.0709
 IR Inten    --      0.4941                 0.0987                 1.2680

                     19                     20                     21
                      A                      A                      A
 Frequencies --    299.2932               314.1271               338.0975
 Red. masses --      2.2113                 1.9756                 2.3492
 Frc consts  --      0.1167                 0.1149                 0.1582
 IR Inten    --      1.1654                 3.4242                 1.3800

                     22                     23                     24
                      A                      A                      A
 Frequencies --    349.6970               388.0900               396.7392
 Red. masses --      2.4712                 2.8564                 1.9495
 Frc consts  --      0.1781                 0.2535                 0.1808
 IR Inten    --      0.4327                 0.8974                 1.6979

                     25                     26                     27
                      A                      A                      A
 Frequencies --    452.0881               461.1726               470.3704
 Red. masses --      2.2031                 2.4057                 2.1134
 Frc consts  --      0.2653                 0.3015                 0.2755
 IR Inten    --      3.9748                 3.9764                 0.9633

                     28                     29                     30
                      A                      A                      A
 Frequencies --    538.0612               553.1077               602.4029
 Red. masses --      2.9866                 2.9842                 2.9443
 Frc consts  --      0.5094                 0.5379                 0.6295
 IR Inten    --      5.9087                11.5220                 5.9101

                     31                     32                     33
                      A                      A                      A
 Frequencies --    743.2353               754.2658               803.5771
 Red. masses --      1.4115                 2.6918                 1.1504
 Frc consts  --      0.4594                 0.9023                 0.4377
 IR Inten    --    100.5511                15.3005                 4.1720

                     34                     35                     36
                      A                      A                      A
 Frequencies --    825.5754               849.8997               867.0545
 Red. masses --      1.1412                 2.0687                 1.8055
 Frc consts  --      0.4583                 0.8804                 0.7997
 IR Inten    --      2.3640                 9.5056                27.1585

                     37                     38                     39
                      A                      A                      A
 Frequencies --    888.5275               915.6799               921.8592
 Red. masses --      1.7670                 1.9812                 1.9593
 Frc consts  --      0.8219                 0.9787                 0.9810
 IR Inten    --      5.7900                 4.7289                 9.1230

                     40                     41                     42
                      A                      A                      A
 Frequencies --    935.2371               944.7933               968.8572
 Red. masses --      1.7607                 1.3822                 2.0120
 Frc consts  --      0.9073                 0.7269                 1.1127
 IR Inten    --      4.6252                 6.0441                11.3397

                     43                     44                     45
                      A                      A                      A
 Frequencies --    974.3420              1033.0006              1049.6741
 Red. masses --      2.6269                 2.4821                 2.8911
 Frc consts  --      1.4693                 1.5605                 1.8768
 IR Inten    --     15.3415                18.1903                 3.7993

                     46                     47                     48
                      A                      A                      A
 Frequencies --   1085.4254              1092.9782              1099.8390
 Red. masses --      2.1645                 1.9718                 2.0611
 Frc consts  --      1.5025                 1.3878                 1.4689
 IR Inten    --     16.1164                 7.7028                15.1284

                     49                     50                     51
                      A                      A                      A
 Frequencies --   1117.3143              1124.0252              1138.5947
 Red. masses --      2.3676                 1.8816                 2.0448
 Frc consts  --      1.7414                 1.4006                 1.5619
 IR Inten    --     15.1975                25.7514                37.4847

                     52                     53                     54
                      A                      A                      A
 Frequencies --   1148.5549              1161.4715              1173.1846
 Red. masses --      1.8295                 2.7130                 2.8677
 Frc consts  --      1.4220                 2.1564                 2.3255
 IR Inten    --      5.5979                38.9386                74.2207

                     55                     56                     57
                      A                      A                      A
 Frequencies --   1185.1708              1189.2328              1211.4187
 Red. masses --      2.1731                 1.3170                 2.1644
 Frc consts  --      1.7984                 1.0974                 1.8714
 IR Inten    --     10.2464                 3.9811                41.1646

                     58                     59                     60
                      A                      A                      A
 Frequencies --   1216.2106              1229.9320              1252.8633
 Red. masses --      2.1143                 1.8272                 2.2074
 Frc consts  --      1.8427                 1.6285                 2.0414
 IR Inten    --     25.1418                19.3724                13.1687

                     61                     62                     63
                      A                      A                      A
 Frequencies --   1287.4696              1307.5256              1321.6361
 Red. masses --      1.3637                 1.2242                 1.3058
 Frc consts  --      1.3318                 1.2331                 1.3438
 IR Inten    --      0.6518                 1.1411                 9.9392

                     64                     65                     66
                      A                      A                      A
 Frequencies --   1334.1243              1345.8912              1359.0827
 Red. masses --      1.1706                 1.2229                 1.2046
 Frc consts  --      1.2276                 1.3051                 1.3110
 IR Inten    --      1.5922                 3.3944                 6.5653

                     67                     68                     69
                      A                      A                      A
 Frequencies --   1377.7551              1384.1340              1402.6118
 Red. masses --      1.2971                 1.2995                 1.2722
 Frc consts  --      1.4507                 1.4669                 1.4747
 IR Inten    --      2.6819                17.6940                42.5324

                     70                     71                     72
                      A                      A                      A
 Frequencies --   1407.5045              1412.5218              1422.9394
 Red. masses --      1.2915                 1.2931                 1.3103
 Frc consts  --      1.5074                 1.5201                 1.5631
 IR Inten    --      2.2069                 3.0064                 5.9141

                     73                     74                     75
                      A                      A                      A
 Frequencies --   1427.3250              1432.9689              1437.6070
 Red. masses --      1.2268                 1.2529                 1.2540
 Frc consts  --      1.4725                 1.5158                 1.5270
 IR Inten    --      5.4922                13.5719                11.6044

                     76                     77                     78
                      A                      A                      A
 Frequencies --   1442.0178              1445.2786              1460.7357
 Red. masses --      1.3061                 1.2284                 1.2685
 Frc consts  --      1.6001                 1.5118                 1.5947
 IR Inten    --      9.2271                 8.8999                10.9169

                     79                     80                     81
                      A                      A                      A
 Frequencies --   1493.3442              1505.2339              1507.4267
 Red. masses --      1.1436                 1.1036                 1.0530
 Frc consts  --      1.5026                 1.4732                 1.4098
 IR Inten    --      0.9684                 6.1573                 1.2042

                     82                     83                     84
                      A                      A                      A
 Frequencies --   1510.5584              1512.3407              1519.5174
 Red. masses --      1.1029                 1.0861                 1.0814
 Frc consts  --      1.4828                 1.4635                 1.4711
 IR Inten    --      3.2129                 5.4213                 0.9138

                     85                     86                     87
                      A                      A                      A
 Frequencies --   1521.2891              1524.1232              1525.5467
 Red. masses --      1.0674                 1.0473                 1.0617
 Frc consts  --      1.4554                 1.4333                 1.4559
 IR Inten    --      2.0803                 3.4300                15.7891

                     88                     89                     90
                      A                      A                      A
 Frequencies --   1528.1712              1529.4852              1531.9669
 Red. masses --      1.0588                 1.0481                 1.0798
 Frc consts  --      1.4568                 1.4445                 1.4931
 IR Inten    --      3.3059                 1.4242                 2.1098

                     91                     92                     93
                      A                      A                      A
 Frequencies --   1536.9830              1538.5248              1549.3803
 Red. masses --      1.0574                 1.0603                 1.0927
 Frc consts  --      1.4718                 1.4788                 1.5455
 IR Inten    --      6.3131                 1.6409                 9.8603

                     94                     95                     96
                      A                      A                      A
 Frequencies --   1551.1352              1553.5222              2945.6565
 Red. masses --      1.0673                 1.0777                 1.0733
 Frc consts  --      1.5129                 1.5325                 5.4871
 IR Inten    --      9.5611                 1.8268                71.0312

                     97                     98                     99
                      A                      A                      A
 Frequencies --   2982.8777              2991.9223              3028.4753
 Red. masses --      1.0712                 1.0499                 1.0622
 Frc consts  --      5.6158                 5.5371                 5.7401
 IR Inten    --     37.9462                58.1549                45.7458

                    100                    101                    102
                      A                      A                      A
 Frequencies --   3032.0636              3035.7291              3039.9391
 Red. masses --      1.0587                 1.0412                 1.0619
 Frc consts  --      5.7346                 5.6535                 5.7820
 IR Inten    --     41.6932                31.4678                22.7843

                    103                    104                    105
                      A                      A                      A
 Frequencies --   3044.4014              3046.0660              3050.9346
 Red. masses --      1.0502                 1.0355                 1.0733
 Frc consts  --      5.7352                 5.6606                 5.8861
 IR Inten    --     14.5222                19.7195                43.9813

                    106                    107                    108
                      A                      A                      A
 Frequencies --   3055.4981              3060.8255              3074.5114
 Red. masses --      1.0864                 1.0392                 1.0987
 Frc consts  --      5.9760                 5.7364                 6.1193
 IR Inten    --     12.3612                21.6790                18.6573

                    109                    110                    111
                      A                      A                      A
 Frequencies --   3079.4734              3081.1555              3082.1992
 Red. masses --      1.0980                 1.0893                 1.0926
 Frc consts  --      6.1349                 6.0928                 6.1156
 IR Inten    --     56.4232                17.7321                26.3777

                    112                    113                    114
                      A                      A                      A
 Frequencies --   3085.2583              3091.6631              3105.1011
 Red. masses --      1.0816                 1.0964                 1.0958
 Frc consts  --      6.0658                 6.1747                 6.2250
 IR Inten    --     40.7190                22.2056                56.1663

                    115                    116                    117
                      A                      A                      A
 Frequencies --   3109.7531              3111.4715              3111.5272
 Red. masses --      1.0989                 1.1012                 1.1015
 Frc consts  --      6.2610                 6.2815                 6.2830
 IR Inten    --     41.2793                22.9671                68.3621

                    118                    119                    120
                      A                      A                      A
 Frequencies --   3121.2210              3126.3471              3128.8764
 Red. masses --      1.1031                 1.1006                 1.1053
 Frc consts  --      6.3316                 6.3379                 6.3754
 IR Inten    --     57.7632                19.7921                50.3711

                    121                    122                    123
                      A                      A                      A
 Frequencies --   3133.8360              3136.7222              3494.5336
 Red. masses --      1.1031                 1.1014                 1.0734
 Frc consts  --      6.3830                 6.3849                 7.7227
 IR Inten    --     28.6364                25.2528                 2.0275

 - Thermochemistry -
 -------------------
 Temperature   298.150 Kelvin.  Pressure   1.00000 Atm.
 Atom     1 has atomic number  6 and mass  12.00000

 Molecular mass:   216.22016 amu.
 Principal axes and moments of inertia in atomic units:
                           1         2         3
     Eigenvalues --  2486.730495198.397766117.86494
           X            0.99977   0.01971  -0.00851
           Y           -0.01963   0.99977   0.00917
           Z            0.00869  -0.00900   0.99992
 This molecule is an asymmetric top.
 Rotational symmetry number  1.
 Warning -- assumption of classical behavior for rotation
           may cause significant error
 Rotational temperatures (Kelvin)      0.03483     0.01666     0.01416
 Rotational constants (GHZ):           0.72575     0.34717     0.29500
 Zero-point vibrational energy    1053137.3 (Joules/Mol)
                                  251.70587 (Kcal/Mol)
 Warning -- explicit consideration of  30 degrees of freedom as
           vibrations may cause significant error
 Vibrational temperatures:     25.96    51.82    76.77   103.44   110.54
          (Kelvin)            117.11   137.63   155.37   159.51   226.15
                              268.81   300.44   319.82   327.52   347.76
                              353.39   370.45   389.14   430.62   451.96
                              486.45   503.14   558.37   570.82   650.45
                              663.52   676.76   774.15   795.80   866.72
                             1069.35  1085.22  1156.17  1187.82  1222.82
                             1247.50  1278.39  1317.46  1326.35  1345.60
                             1359.35  1393.97  1401.86  1486.26  1510.25
                             1561.69  1572.55  1582.42  1607.57  1617.22
                             1638.18  1652.51  1671.10  1687.95  1705.20
                             1711.04  1742.96  1749.86  1769.60  1802.59
                             1852.38  1881.24  1901.54  1919.51  1936.44
                             1955.42  1982.28  1991.46  2018.05  2025.09
                             2032.30  2047.29  2053.60  2061.72  2068.40
                             2074.74  2079.43  2101.67  2148.59  2165.70
                             2168.85  2173.36  2175.92  2186.25  2188.80
                             2192.87  2194.92  2198.70  2200.59  2204.16
                             2211.38  2213.59  2229.21  2231.74  2235.17
                             4238.14  4291.70  4304.71  4357.30  4362.46
                             4367.74  4373.79  4380.21  4382.61  4389.61
                             4396.18  4403.85  4423.54  4430.68  4433.10
                             4434.60  4439.00  4448.21  4467.55  4474.24
                             4476.71  4476.79  4490.74  4498.12  4501.76
                             4508.89  4513.04  5027.85

 Zero-point correction=                           0.401119 (Hartree/Particle)
 Thermal correction to Energy=                    0.420671
 Thermal correction to Enthalpy=                  0.421616
 Thermal correction to Gibbs Free Energy=         0.352335
 Sum of electronic and zero-point Energies=           -658.492283
 Sum of electronic and thermal Energies=              -658.472731
 Sum of electronic and thermal Enthalpies=            -658.471786
 Sum of electronic and thermal Free Energies=         -658.541067

                     E (Thermal)             CV                S
                      KCal/Mol        Cal/Mol-Kelvin    Cal/Mol-Kelvin
 Total                  263.975             71.026            145.814
 Electronic               0.000              0.000              0.000
 Translational            0.889              2.981             42.017
 Rotational               0.889              2.981             32.736
 Vibrational            262.198             65.064             71.061
 Vibration     1          0.593              1.986              6.839
 Vibration     2          0.594              1.982              5.467
 Vibration     3          0.596              1.976              4.689
 Vibration     4          0.598              1.967              4.101
 Vibration     5          0.599              1.965              3.970
 Vibration     6          0.600              1.962              3.857
 Vibration     7          0.603              1.952              3.541
 Vibration     8          0.606              1.943              3.305
 Vibration     9          0.607              1.940              3.254
 Vibration    10          0.621              1.895              2.583
 Vibration    11          0.632              1.858              2.259
 Vibration    12          0.642              1.827              2.054
 Vibration    13          0.648              1.807              1.940
 Vibration    14          0.651              1.799              1.898
 Vibration    15          0.658              1.776              1.790
 Vibration    16          0.660              1.770              1.762
 Vibration    17          0.667              1.750              1.679
 Vibration    18          0.674              1.728              1.593
 Vibration    19          0.692              1.675              1.421
 Vibration    20          0.702              1.647              1.341
 Vibration    21          0.718              1.599              1.221
 Vibration    22          0.727              1.576              1.168
 Vibration    23          0.756              1.496              1.007
 Vibration    24          0.763              1.477              0.975
 Vibration    25          0.811              1.356              0.789
 Vibration    26          0.819              1.336              0.763
 Vibration    27          0.827              1.316              0.737
 Vibration    28          0.893              1.166              0.569
 Vibration    29          0.908              1.133              0.538
 Vibration    30          0.961              1.027              0.446

 Optimization completed.
    -- Stationary point found.
 Normal termination of Gaussian 16 at Thu Dec 10 15:07:06 2020.

 ----------------------------------------------------------------------
 # B3LYP/6-311++G(d,p) empiricaldispersion=gd3bj scf=xqc pop=npa geom=c
 heck
 ----------------------------------------------------------------------

 --------------------------------------
 CID_62427387_JID_5060_Energie_neutraal
 --------------------------------------
 Structure from the checkpoint file:  "JID_5060.chk"
 Charge =  0 Multiplicity = 1

 SCF Done:  E(RB3LYP) =  -659.086297579     A.U. after   14 cycles
 Normal termination of Gaussian 16 at Thu Dec 10 15:15:48 2020.

 ----------------------------------------------------------------------
 # B3LYP/6-311++G(d,p) empiricaldispersion=gd3bj scf=xqc pop=npa geom=c
 heck
 ----------------------------------------------------------------------

 ------------------------------------
 CID_62427387_JID_5060_Energie_kation
 ------------------------------------
 Structure from the checkpoint file:  "JID_5060.chk"
 Charge =  1 Multiplicity = 2

 SCF Done:  E(UB3LYP) =  -658.821889236     A.U. after   22 cycles
 Normal termination of Gaussian 16 at Thu Dec 10 15:33:38 2020.
 Gaussian 16:  ES64L-G16RevA.03 25-Dec-2016

 ----------------------------------------------------------------------
 # B3LYP/6-311++G(d,p) empiricaldispersion=gd3bj scf=xqc pop=npa geom=c
 heck
 ----------------------------------------------------------------------

 -----------------------------------
 CID_62427387_JID_5060_Energie_anion
 -----------------------------------
 Structure from the checkpoint file:  "JID_5060.chk"
 Charge = -1 Multiplicity = 2

                         Standard orientation:
 ---------------------------------------------------------------------
 Center     Atomic      Atomic             Coordinates (Angstroms)
 Number     Number       Type             X           Y           Z
 ---------------------------------------------------------------------
      1          6           0        4.811661    0.692286    0.012720
      2          6           0        3.303251    0.462302    0.025691
      3          7           0        2.979232   -0.777438    0.726004
      4          6           0        1.553296   -1.047284    0.878981
      5          6           0        0.710902   -1.208431   -0.407406
      6          6           0        1.244521   -2.371628   -1.253382
      7          6           0       -0.795562   -1.416969   -0.089040
      8          7           0       -1.644075   -0.238192   -0.274120
      9          6           0       -2.911482   -0.517629   -0.948594
     10          6           0       -3.953292   -1.309872   -0.143890
     11          6           0       -1.757631    0.743277    0.820032
     12          6           0       -1.728762    0.165315    2.246072
     13          6           0       -0.747833    1.893831    0.673330
     14          8           0       -1.009770    2.718848   -0.449109
     15          6           0       -0.356059    2.332235   -1.643473
     16          1           0        5.204843    0.707640    1.033965
     17          1           0        5.059638    1.640105   -0.477272
     18          1           0        5.325036   -0.108646   -0.534688
     19          1           0        2.808788    1.281394    0.564968
     20          1           0        2.919098    0.500434   -1.010654
     21          1           0        3.435729   -1.559477    0.260506
     22          1           0        1.451415   -1.964353    1.476570
     23          1           0        1.140778   -0.236572    1.490075
     24          1           0        0.783964   -0.292571   -1.002382
     25          1           0        1.142148   -3.325967   -0.719252
     26          1           0        0.694747   -2.456432   -2.197405
     27          1           0        2.304051   -2.241942   -1.501730
     28          1           0       -1.177983   -2.177250   -0.777515
     29          1           0       -0.895571   -1.860245    0.915732
     30          1           0       -3.340815    0.443436   -1.256098
     31          1           0       -2.682100   -1.059917   -1.874553
     32          1           0       -4.264164   -0.762621    0.752841
     33          1           0       -4.849049   -1.495882   -0.748527
     34          1           0       -3.554424   -2.280058    0.173944
     35          1           0       -2.735692    1.220541    0.689601
     36          1           0       -0.742848   -0.218749    2.525584
     37          1           0       -1.993103    0.944922    2.968762
     38          1           0       -2.448108   -0.652255    2.353004
     39          1           0       -0.831889    2.546271    1.551944
     40          1           0        0.282420    1.513569    0.640100
     41          1           0        0.734248    2.259519   -1.495712
     42          1           0       -0.720762    1.370846   -2.020512
     43          1           0       -0.556410    3.118286   -2.377862
 ---------------------------------------------------------------------

 SCF Done:  E(UB3LYP) =  -659.072362141     A.U. after   29 cycles

 The electronic state is 2-A.
 Alpha  occ. eigenvalues --  -19.03064 -14.20300 -14.20065 -10.12053 -10.11372
 Alpha  occ. eigenvalues --  -10.10804 -10.09908 -10.09799 -10.09418 -10.09405
 Alpha  occ. eigenvalues --  -10.07170 -10.07157 -10.06824 -10.06330 -10.06058
 Alpha  occ. eigenvalues --   -0.94161  -0.82600  -0.81126  -0.70045  -0.68710
 Alpha  occ. eigenvalues --   -0.65184  -0.63523  -0.61829  -0.58439  -0.56847
 Alpha  occ. eigenvalues --   -0.54997  -0.52177  -0.51719  -0.48210  -0.45937
 Alpha  occ. eigenvalues --   -0.40728  -0.40441  -0.39458  -0.38230  -0.37279
 Alpha  occ. eigenvalues --   -0.36600  -0.35647  -0.35105  -0.34646  -0.33299
 Alpha  occ. eigenvalues --   -0.32860  -0.31773  -0.31050  -0.30573  -0.29718
 Alpha  occ. eigenvalues --   -0.29620  -0.28331  -0.27857  -0.27405  -0.27107
 Alpha  occ. eigenvalues --   -0.26386  -0.25985  -0.25050  -0.24325  -0.24016
 Alpha  occ. eigenvalues --   -0.23698  -0.23291  -0.22102  -0.17071  -0.13100
 Alpha  occ. eigenvalues --   -0.10859   0.04190
 Alpha virt. eigenvalues --    0.05839   0.06673   0.06914   0.07567   0.08241
 Alpha virt. eigenvalues --    0.08692   0.08850   0.09471   0.09852   0.10314
 Alpha virt. eigenvalues --    0.10537   0.11282   0.11603   0.11958   0.12333

  Beta  occ. eigenvalues --  -19.03060 -14.20300 -14.20050 -10.12049 -10.11362
  Beta  occ. eigenvalues --  -10.10798 -10.09897 -10.09785 -10.09410 -10.09388
  Beta  occ. eigenvalues --  -10.07167 -10.07138 -10.06797 -10.06299 -10.06018
  Beta  occ. eigenvalues --   -0.94150  -0.82589  -0.81102  -0.70024  -0.68691
  Beta  occ. eigenvalues --   -0.65151  -0.63486  -0.61806  -0.58385  -0.56806
  Beta  occ. eigenvalues --   -0.54963  -0.52124  -0.51669  -0.48167  -0.45902
  Beta  occ. eigenvalues --   -0.40708  -0.40418  -0.39438  -0.38212  -0.37258
  Beta  occ. eigenvalues --   -0.36573  -0.35627  -0.35078  -0.34620  -0.33273
  Beta  occ. eigenvalues --   -0.32822  -0.31752  -0.31013  -0.30536  -0.29695
  Beta  occ. eigenvalues --   -0.29587  -0.28300  -0.27823  -0.27377  -0.27076
  Beta  occ. eigenvalues --   -0.26343  -0.25960  -0.25029  -0.24299  -0.23995
  Beta  occ. eigenvalues --   -0.23669  -0.23263  -0.22081  -0.17062  -0.13080
  Beta  occ. eigenvalues --   -0.10850
  Beta virt. eigenvalues --    0.06140   0.06623   0.07219   0.07306   0.07970
  Beta virt. eigenvalues --    0.08743   0.09008   0.09147   0.09668   0.10216
  Beta virt. eigenvalues --    0.10624   0.10816   0.11594   0.11796   0.12233

 Mulliken charges and spin densities:
               1          2
     1  C    0.897646  -1.571264
     2  C   -0.537668   0.349754
     3  N    0.053435   0.036260
     4  C   -0.901769   0.093604
     5  C   -0.296339   1.188500
     6  C    1.189415  -2.047425
     7  C   -0.539948  -0.433686
     8  N    0.300632   0.064493
     9  C   -0.712308   0.684376
    10  C    0.988689  -1.553086
    11  C   -0.537253   0.395546
    12  C    0.302264  -0.878123
    13  C   -0.276076  -0.255724
    14  O   -0.064423   0.006339
    15  C   -0.156774  -0.225042
    16  H   -0.010248   0.157492
    17  H   -0.095041   0.224030
    18  H   -0.279382   0.411720
    19  H    0.192680  -0.054289
    20  H   -0.241212   0.388887
    21  H    0.225418   0.003936
    22  H   -0.241877   0.416232
    23  H    0.290887  -0.120257
    24  H    0.738344  -0.533288
    25  H   -0.174189   0.325098
    26  H   -0.361519   0.504427
    27  H   -0.325372   0.465122
    28  H    0.113228   0.099018
    29  H    0.274292  -0.120614
    30  H    0.021581   0.126791
    31  H   -0.113359   0.255545
    32  H   -0.150712   0.288276
    33  H   -0.333599   0.481444
    34  H   -0.298269   0.450708
    35  H    0.130326   0.073541
    36  H   -0.042919   0.170355
    37  H   -0.156742   0.290364
    38  H    0.066907   0.090163
    39  H    0.020680   0.144673
    40  H   -0.008888   0.208191
    41  H    0.117550   0.018759
    42  H    0.009180   0.153318
    43  H   -0.077271   0.225834
 Sum of Mulliken charges =  -1.00000   1.00000

 Dipole moment (field-independent basis, Debye):
    X=             -0.4521    Y=              3.5452    Z=              2.0399  Tot=              4.1151
 Quadrupole moment (field-independent basis, Debye-Ang):
   XX=           -187.7653   YY=           -152.2209   ZZ=           -140.9801
   XY=             -2.3067   XZ=              3.9516   YZ=             -4.1478

 Summary of Natural Population Analysis:

                                       Natural Population
                Natural  -----------------------------------------------
    Atom  No    Charge         Core      Valence    Rydberg      Total
 -----------------------------------------------------------------------
      C    1   -0.28521      0.99967     2.28097    0.00457     3.28521
      C    2   -0.08925      0.99964     2.07880    0.01081     3.08925
      N    3   -0.33998      0.99974     2.82868    0.01156     3.83998
      C    4   -0.08329      0.99960     2.07188    0.01181     3.08329
      C    5   -0.13727      0.99959     2.12753    0.01015     3.13727
      C    6   -0.28557      0.99965     2.27911    0.00681     3.28557
      C    7   -0.08065      0.99957     2.06848    0.01261     3.08065
      N    8   -0.29474      0.99971     2.77991    0.01513     3.79474
      C    9   -0.07690      0.99961     2.06585    0.01143     3.07690
      C   10   -0.29771      0.99966     2.29314    0.00492     3.29771
      C   11   -0.01594      0.99957     2.00346    0.01290     3.01594
      C   12   -0.29922      0.99964     2.29369    0.00589     3.29922
      C   13   -0.00860      0.99953     1.99740    0.01167     3.00860
      O   14   -0.30146      0.99989     3.29203    0.00954     4.30146
      C   15   -0.09779      0.99961     2.08978    0.00840     3.09779
      H   16    0.09826      0.00000     0.40041    0.00132     0.40174
      H   17    0.09797      0.00000     0.40104    0.00099     0.40203
      H   18    0.09666      0.00000     0.40185    0.00149     0.40334
      H   19    0.08733      0.00000     0.41091    0.00177     0.41267
      H   20    0.07925      0.00000     0.41879    0.00196     0.42075
      H   21    0.17190      0.00000     0.32493    0.00317     0.32810
      H   22    0.09290      0.00000     0.40587    0.00123     0.40710
      H   23    0.08920      0.00000     0.40918    0.00162     0.41080
      H   24    0.09839      0.00000     0.39764    0.00397     0.40161
      H   25    0.09699      0.00000     0.40176    0.00125     0.40301
      H   26    0.10169      0.00000     0.39719    0.00112     0.39831
      H   27    0.09887      0.00000     0.39961    0.00152     0.40113
      H   28    0.09915      0.00000     0.39920    0.00165     0.40085
      H   29    0.08708      0.00000     0.41122    0.00170     0.41292
      H   30    0.09219      0.00000     0.40655    0.00125     0.40781
      H   31    0.09260      0.00000     0.40622    0.00118     0.40740
      H   32    0.09538      0.00000     0.40349    0.00113     0.40462
      H   33    0.09946      0.00000     0.39922    0.00132     0.40054
      H   34    0.09862      0.00000     0.40015    0.00123     0.40138
      H   35    0.09695      0.00000     0.40104    0.00202     0.40305
      H   36    0.09926      0.00000     0.39979    0.00095     0.40074
      H   37    0.10096      0.00000     0.39823    0.00081     0.39904
      H   38    0.10488      0.00000     0.39412    0.00100     0.39512
      H   39    0.08514      0.00000     0.41357    0.00128     0.41486
      H   40    0.08120      0.00000     0.41688    0.00192     0.41880
      H   41    0.07662      0.00000     0.42195    0.00144     0.42338
      H   42    0.08978      0.00000     0.40857    0.00165     0.41022
      H   43    0.08491      0.00000     0.41411    0.00099     0.41509
 =======================================================================
   * Total *   -0.00000     14.99466    45.81424    0.19110    61.00000

 Normal termination of Gaussian 16 at Thu Dec 10 16:03:20 2020.
