 Gaussian 16, Revision A.03,

 -----------------------------------------------------------
 # opt freq B3LYP/6-31G(d) empiricaldispersion=gd3bj scf=xqc
 -----------------------------------------------------------

 -------------------------------
 CID_114475150_JID_3999_neutraal
 -------------------------------
 Symbolic Z-matrix:
 Charge =  0 Multiplicity = 1

 SCF Done:  E(RB3LYP) =  -606.366619042     A.U. after   15 cycles
 SCF Done:  E(RB3LYP) =  -606.372207778     A.U. after   13 cycles
 SCF Done:  E(RB3LYP) =  -606.373443352     A.U. after   12 cycles
 SCF Done:  E(RB3LYP) =  -606.373679479     A.U. after   12 cycles
 SCF Done:  E(RB3LYP) =  -606.374194201     A.U. after   12 cycles
 SCF Done:  E(RB3LYP) =  -606.374203171     A.U. after   13 cycles
 SCF Done:  E(RB3LYP) =  -606.374349158     A.U. after   12 cycles
 SCF Done:  E(RB3LYP) =  -606.374362492     A.U. after   11 cycles
 SCF Done:  E(RB3LYP) =  -606.374365510     A.U. after   10 cycles
 SCF Done:  E(RB3LYP) =  -606.374365987     A.U. after    8 cycles
 SCF Done:  E(RB3LYP) =  -606.374366076     A.U. after    7 cycles
 Optimization completed.
    -- Stationary point found.
 Normal termination of Gaussian 16 at Sun Dec 13 15:57:04 2020.

 --------------------------------------------------------------------
 #N Geom=AllCheck Guess=TCheck SCRF=Check GenChk RB3LYP/6-31G(d) Freq
 --------------------------------------------------------------------

 Structure from the checkpoint file:  "JID_3999.chk"
 -------------------------------
 CID_114475150_JID_3999_neutraal
 -------------------------------
 Charge =  0 Multiplicity = 1

 SCF Done:  E(RB3LYP) =  -606.374366076     A.U. after    1 cycles

  Exact polarizability: 142.408  -7.455 118.597  -8.345  -2.824  74.144
 Approx polarizability: 200.770  -8.951 197.989 -16.244 -12.769 113.464

                      1                      2                      3
                      A                      A                      A
 Frequencies --     38.8626                47.4084                66.1292
 Red. masses --      6.6860                 4.6613                 4.2320
 Frc consts  --      0.0059                 0.0062                 0.0109
 IR Inten    --      1.4025                 1.4672                 3.2637

                      4                      5                      6
                      A                      A                      A
 Frequencies --    114.4809               116.7865               147.9509
 Red. masses --      2.2684                 1.2256                 1.0890
 Frc consts  --      0.0175                 0.0098                 0.0140
 IR Inten    --      1.5936                 1.1334                 0.5611

                      7                      8                      9
                      A                      A                      A
 Frequencies --    188.1126               216.6287               276.4694
 Red. masses --      2.8772                 3.7602                 3.6608
 Frc consts  --      0.0600                 0.1040                 0.1649
 IR Inten    --      1.2878                 6.1563                 5.4076

                     10                     11                     12
                      A                      A                      A
 Frequencies --    293.8924               340.5318               355.3641
 Red. masses --      2.4950                 3.1890                 3.6452
 Frc consts  --      0.1270                 0.2179                 0.2712
 IR Inten    --      0.4169                 4.4204                 0.8120

                     13                     14                     15
                      A                      A                      A
 Frequencies --    394.2982               448.5849               473.7262
 Red. masses --      1.2348                 3.1507                 3.1905
 Frc consts  --      0.1131                 0.3735                 0.4219
 IR Inten    --     87.8051                26.0010                27.6325

                     16                     17                     18
                      A                      A                      A
 Frequencies --    480.5349               515.1236               528.4977
 Red. masses --      2.4513                 1.5367                 3.1692
 Frc consts  --      0.3335                 0.2403                 0.5215
 IR Inten    --     52.6507               252.1202                16.4804

                     19                     20                     21
                      A                      A                      A
 Frequencies --    536.6526               580.6825               626.5801
 Red. masses --      2.4716                 4.9317                 3.3396
 Frc consts  --      0.4194                 0.9798                 0.7725
 IR Inten    --      1.6832                 2.3550                 0.8690

                     22                     23                     24
                      A                      A                      A
 Frequencies --    665.3584               672.6370               728.1044
 Red. masses --      2.6681                 2.0978                 6.0230
 Frc consts  --      0.6959                 0.5592                 1.8813
 IR Inten    --     10.2045                18.9884                 1.7417

                     25                     26                     27
                      A                      A                      A
 Frequencies --    776.0993               783.8295               867.5784
 Red. masses --      4.0935                 3.8701                 3.7281
 Frc consts  --      1.4527                 1.4009                 1.6533
 IR Inten    --      1.0033                 0.7709                 5.8148

                     28                     29                     30
                      A                      A                      A
 Frequencies --    885.0099               967.0907              1006.6201
 Red. masses --      1.4970                 2.5491                 1.7350
 Frc consts  --      0.6908                 1.4047                 1.0358
 IR Inten    --     11.5161                 9.7640                25.4114

                     31                     32                     33
                      A                      A                      A
 Frequencies --   1017.7559              1052.4781              1077.3618
 Red. masses --      1.8542                 1.4128                 2.6385
 Frc consts  --      1.1316                 0.9221                 1.8044
 IR Inten    --      7.1688                 3.6714                 1.4384

                     34                     35                     36
                      A                      A                      A
 Frequencies --   1083.2887              1113.8695              1117.8526
 Red. masses --      1.6303                 2.2047                 2.5302
 Frc consts  --      1.1272                 1.6117                 1.8628
 IR Inten    --      0.0008                29.6972                 3.8744

                     37                     38                     39
                      A                      A                      A
 Frequencies --   1190.6659              1257.2468              1296.1770
 Red. masses --      3.0999                 3.1452                 1.5257
 Frc consts  --      2.5893                 2.9291                 1.5102
 IR Inten    --     14.2905                35.9134                 3.6454

                     40                     41                     42
                      A                      A                      A
 Frequencies --   1306.1678              1341.9904              1368.1272
 Red. masses --      1.7005                 2.6786                 1.4337
 Frc consts  --      1.7093                 2.8422                 1.5811
 IR Inten    --     13.7621                73.0829                89.1253

                     43                     44                     45
                      A                      A                      A
 Frequencies --   1383.4052              1414.7428              1434.8653
 Red. masses --      3.1684                 2.1440                 1.4052
 Frc consts  --      3.5727                 2.5284                 1.7046
 IR Inten    --     81.9123                19.9471                10.7514

                     46                     47                     48
                      A                      A                      A
 Frequencies --   1444.0664              1475.7490              1489.4950
 Red. masses --      1.5405                 1.3118                 1.2431
 Frc consts  --      1.8927                 1.6832                 1.6249
 IR Inten    --     15.2018                41.0523                 8.8897

                     49                     50                     51
                      A                      A                      A
 Frequencies --   1505.9229              1507.4464              1520.5316
 Red. masses --      1.3026                 1.0469                 1.0441
 Frc consts  --      1.7405                 1.4017                 1.4223
 IR Inten    --     38.1544                 0.3751                15.7941

                     52                     53                     54
                      A                      A                      A
 Frequencies --   1526.9371              1535.7482              1608.9320
 Red. masses --      1.4277                 2.0886                 4.3652
 Frc consts  --      1.9612                 2.9023                 6.6577
 IR Inten    --     57.5405               152.7721                30.3133

                     55                     56                     57
                      A                      A                      A
 Frequencies --   1622.9967              1639.1339              1822.8543
 Red. masses --      1.7959                 2.9794                 9.3537
 Frc consts  --      2.7872                 4.7164                18.3120
 IR Inten    --    101.0831               140.8365               299.3517

                     58                     59                     60
                      A                      A                      A
 Frequencies --   3040.4904              3046.2432              3075.3164
 Red. masses --      1.0398                 1.0393                 1.0584
 Frc consts  --      5.6637                 5.6822                 5.8977
 IR Inten    --     28.0040                17.5280                25.9103

                     61                     62                     63
                      A                      A                      A
 Frequencies --   3086.8729              3095.6132              3125.9328
 Red. masses --      1.1003                 1.0999                 1.1064
 Frc consts  --      6.1776                 6.2103                 6.3699
 IR Inten    --     23.7510                10.3195                 8.3800

                     64                     65                     66
                      A                      A                      A
 Frequencies --   3154.9777              3155.4908              3161.3093
 Red. masses --      1.0908                 1.0986                 1.0999
 Frc consts  --      6.3972                 6.4448                 6.4764
 IR Inten    --     33.9608                 7.5748                 6.2235

                     67                     68                     69
                      A                      A                      A
 Frequencies --   3586.4304              3608.5776              3710.4555
 Red. masses --      1.0446                 1.0768                 1.1040
 Frc consts  --      7.9163                 8.2612                 8.9551
 IR Inten    --     24.0880                25.4249                47.7833

 - Thermochemistry -
 -------------------
 Temperature   298.150 Kelvin.  Pressure   1.00000 Atm.
 Atom     1 has atomic number  6 and mass  12.00000

 Molecular mass:   180.10111 amu.
 Principal axes and moments of inertia in atomic units:
                           1         2         3
     Eigenvalues --  1156.363853762.469164496.39484
           X            0.99949  -0.03184  -0.00016
           Y            0.03184   0.99946   0.00755
           Z           -0.00008  -0.00755   0.99997
 This molecule is an asymmetric top.
 Rotational symmetry number  1.
 Warning -- assumption of classical behavior for rotation
           may cause significant error
 Rotational temperatures (Kelvin)      0.07490     0.02302     0.01926
 Rotational constants (GHZ):           1.56070     0.47967     0.40138
 Zero-point vibrational energy     539175.7 (Joules/Mol)
                                  128.86609 (Kcal/Mol)
 Warning -- explicit consideration of  20 degrees of freedom as
           vibrations may cause significant error
 Vibrational temperatures:     55.91    68.21    95.15   164.71   168.03
          (Kelvin)            212.87   270.65   311.68   397.78   422.85
                              489.95   511.29   567.31   645.41   681.59
                              691.38   741.15   760.39   772.12   835.47
                              901.51   957.30   967.77  1047.58  1116.63
                             1127.76  1248.25  1273.33  1391.43  1448.30
                             1464.32  1514.28  1550.08  1558.61  1602.61
                             1608.34  1713.10  1808.90  1864.91  1879.28
                             1930.82  1968.43  1990.41  2035.50  2064.45
                             2077.69  2123.27  2143.05  2166.69  2168.88
                             2187.71  2196.92  2209.60  2314.89  2335.13
                             2358.35  2622.68  4374.59  4382.86  4424.69
                             4441.32  4453.90  4497.52  4539.31  4540.05
                             4548.42  5160.07  5191.94  5338.52

 Zero-point correction=                           0.205361 (Hartree/Particle)
 Thermal correction to Energy=                    0.218492
 Thermal correction to Enthalpy=                  0.219436
 Thermal correction to Gibbs Free Energy=         0.165019
 Sum of electronic and zero-point Energies=           -606.169005
 Sum of electronic and thermal Energies=              -606.155874
 Sum of electronic and thermal Enthalpies=            -606.154930
 Sum of electronic and thermal Free Energies=         -606.209347

                     E (Thermal)             CV                S
                      KCal/Mol        Cal/Mol-Kelvin    Cal/Mol-Kelvin
 Total                  137.106             48.556            114.530
 Electronic               0.000              0.000              0.000
 Translational            0.889              2.981             41.472
 Rotational               0.889              2.981             31.348
 Vibrational            135.328             42.595             41.710
 Vibration     1          0.594              1.981              5.316
 Vibration     2          0.595              1.979              4.923
 Vibration     3          0.598              1.970              4.265
 Vibration     4          0.607              1.937              3.191
 Vibration     5          0.608              1.935              3.153
 Vibration     6          0.617              1.905              2.698
 Vibration     7          0.633              1.856              2.246
 Vibration     8          0.645              1.816              1.987
 Vibration     9          0.678              1.717              1.555
 Vibration    10          0.689              1.685              1.451
 Vibration    11          0.720              1.594              1.210
 Vibration    12          0.731              1.564              1.142
 Vibration    13          0.761              1.482              0.984
 Vibration    14          0.808              1.364              0.800
 Vibration    15          0.831              1.308              0.727
 Vibration    16          0.837              1.293              0.709
 Vibration    17          0.870              1.216              0.621
 Vibration    18          0.883              1.187              0.591
 Vibration    19          0.892              1.169              0.573
 Vibration    20          0.937              1.073              0.484

                           ! Non-Optimized Parameters !
 Normal termination of Gaussian 16 at Sun Dec 13 16:02:53 2020.

 ----------------------------------------------------------------------
 # B3LYP/6-311++G(d,p) empiricaldispersion=gd3bj scf=xqc pop=npa geom=c
 heck
 ----------------------------------------------------------------------

 ---------------------------------------
 CID_114475150_JID_3999_Energie_neutraal
 ---------------------------------------
 Structure from the checkpoint file:  "JID_3999.chk"
 Charge =  0 Multiplicity = 1

 SCF Done:  E(RB3LYP) =  -606.553675958     A.U. after   16 cycles
 Normal termination of Gaussian 16 at Sun Dec 13 16:05:36 2020.

 ----------------------------------------------------------------------
 # B3LYP/6-311++G(d,p) empiricaldispersion=gd3bj scf=xqc pop=npa geom=c
 heck
 ----------------------------------------------------------------------

 -------------------------------------
 CID_114475150_JID_3999_Energie_kation
 -------------------------------------
 Structure from the checkpoint file:  "JID_3999.chk"
 Charge =  1 Multiplicity = 2

 SCF Done:  E(UB3LYP) =  -606.260046539     A.U. after   23 cycles
 Normal termination of Gaussian 16 at Sun Dec 13 16:11:00 2020.
 Gaussian 16:  ES64L-G16RevA.03 25-Dec-2016

 ----------------------------------------------------------------------
 # B3LYP/6-311++G(d,p) empiricaldispersion=gd3bj scf=xqc pop=npa geom=c
 heck
 ----------------------------------------------------------------------

 ------------------------------------
 CID_114475150_JID_3999_Energie_anion
 ------------------------------------
 Structure from the checkpoint file:  "JID_3999.chk"
 Charge = -1 Multiplicity = 2

                         Standard orientation:
 ---------------------------------------------------------------------
 Center     Atomic      Atomic             Coordinates (Angstroms)
 Number     Number       Type             X           Y           Z
 ---------------------------------------------------------------------
      1          6           0       -3.917705    0.455754    0.232379
      2          6           0       -2.512668   -0.063177    0.086969
      3          7           0       -2.326629   -1.390933    0.181106
      4          6           0       -1.092200   -1.862778    0.056423
      5          6           0        0.000699   -1.005717   -0.168389
      6          7           0       -0.174010    0.315733   -0.268365
      7          6           0       -1.419862    0.793179   -0.142797
      8          6           0       -1.591259    2.282930   -0.260605
      9          7           0        1.300686   -1.482770   -0.252043
     10          6           0        2.334157   -0.638046   -0.838881
     11          6           0        2.901644    0.428201    0.106838
     12          8           0        3.519127    1.384818   -0.332406
     13          7           0        2.742172    0.163323    1.434943
     14          1           0       -4.007473    1.154597    1.073964
     15          1           0       -4.245874    0.995626   -0.665106
     16          1           0       -4.595801   -0.383133    0.401974
     17          1           0       -0.957267   -2.941333    0.133451
     18          1           0       -0.619610    2.749627   -0.433069
     19          1           0       -2.262426    2.542083   -1.088925
     20          1           0       -2.033518    2.706180    0.649897
     21          1           0        1.375732   -2.471367   -0.449071
     22          1           0        3.166378   -1.283033   -1.137856
     23          1           0        1.977267   -0.103938   -1.725236
     24          1           0        2.056974   -0.523735    1.714746
     25          1           0        2.980220    0.900337    2.083374
 ---------------------------------------------------------------------

 SCF Done:  E(UB3LYP) =  -606.549007520     A.U. after   33 cycles
 SCF Done:  E(UB3LYP) =  -606.549007520     a.u. after    1 cycles

 The electronic state is 2-A.
 Alpha  occ. eigenvalues --  -18.97812 -14.22046 -14.21147 -14.17312 -14.17042
 Alpha  occ. eigenvalues --  -10.16181 -10.11429 -10.09522 -10.08002 -10.07633
 Alpha  occ. eigenvalues --  -10.06387 -10.05944 -10.05700  -0.92800  -0.85898
 Alpha  occ. eigenvalues --   -0.81258  -0.79126  -0.76089  -0.67379  -0.61811
 Alpha  occ. eigenvalues --   -0.61141  -0.55775  -0.50635  -0.49472  -0.47169
 Alpha  occ. eigenvalues --   -0.43211  -0.41650  -0.40170  -0.35860  -0.35153
 Alpha  occ. eigenvalues --   -0.33786  -0.32965  -0.32468  -0.30109  -0.29793
 Alpha  occ. eigenvalues --   -0.29439  -0.28696  -0.28262  -0.28082  -0.25974
 Alpha  occ. eigenvalues --   -0.25252  -0.20599  -0.17765  -0.16989  -0.16487
 Alpha  occ. eigenvalues --   -0.14824  -0.11789  -0.09420   0.04799
 Alpha virt. eigenvalues --    0.07236   0.07305   0.08212   0.09515   0.09914
 Alpha virt. eigenvalues --    0.10590   0.11240   0.11526   0.12312   0.12676
 Alpha virt. eigenvalues --    0.13067   0.13523   0.13958   0.14467   0.14785

  Beta  occ. eigenvalues --  -18.97804 -14.22023 -14.21110 -14.16962 -14.16771
  Beta  occ. eigenvalues --  -10.16174 -10.11458 -10.09503 -10.07856 -10.07680
  Beta  occ. eigenvalues --  -10.06267 -10.05941 -10.05710  -0.92783  -0.85624
  Beta  occ. eigenvalues --   -0.81034  -0.79031  -0.75604  -0.67219  -0.61746
  Beta  occ. eigenvalues --   -0.61033  -0.55609  -0.50289  -0.49347  -0.47090
  Beta  occ. eigenvalues --   -0.43172  -0.41497  -0.40078  -0.35756  -0.35006
  Beta  occ. eigenvalues --   -0.33478  -0.32887  -0.32406  -0.30056  -0.29722
  Beta  occ. eigenvalues --   -0.29361  -0.28678  -0.28120  -0.27779  -0.25810
  Beta  occ. eigenvalues --   -0.25056  -0.19869  -0.16891  -0.16619  -0.16191
  Beta  occ. eigenvalues --   -0.14673  -0.11442  -0.08913
  Beta virt. eigenvalues --    0.07165   0.07984   0.08928   0.09546   0.09668
  Beta virt. eigenvalues --    0.10430   0.10679   0.11333   0.11644   0.12266
  Beta virt. eigenvalues --    0.13058   0.13290   0.13638   0.14085   0.14491

 Mulliken charges and spin densities:
               1          2
     1  C   -0.103930  -0.577988
     2  C    0.095955  -0.435391
     3  N   -0.103197   0.183269
     4  C   -0.372983   0.386991
     5  C    0.749540  -1.028130
     6  N    0.032002   0.086519
     7  C   -0.134802   0.486801
     8  C   -0.548665   0.076557
     9  N   -0.339013   0.216000
    10  C    0.752435  -0.958764
    11  C   -0.161113   0.131551
    12  O   -0.364208   0.014124
    13  N   -0.285301  -0.027111
    14  H    0.093420   0.029263
    15  H    0.121751  -0.000235
    16  H    0.132353   0.012856
    17  H   -0.446256   0.607836
    18  H    0.165574  -0.003974
    19  H    0.106781   0.018928
    20  H    0.055123   0.077227
    21  H   -0.399735   0.721110
    22  H   -0.607491   0.792522
    23  H    0.252645  -0.029480
    24  H    0.209712   0.057692
    25  H    0.099404   0.161829
 Sum of Mulliken charges =  -1.00000   1.00000

 Dipole moment (field-independent basis, Debye):
    X=             -4.0480    Y=              4.6459    Z=              2.2104  Tot=              6.5465
 Quadrupole moment (field-independent basis, Debye-Ang):
   XX=           -132.0250   YY=           -119.8660   ZZ=            -91.3567
   XY=             -3.6753   XZ=              7.4758   YZ=             -3.1408

 Summary of Natural Population Analysis:

                                       Natural Population
                Natural  -----------------------------------------------
    Atom  No    Charge         Core      Valence    Rydberg      Total
 -----------------------------------------------------------------------
      C    1   -0.29614      0.99964     2.29168    0.00482     3.29614
      C    2    0.05100      0.99950     1.93681    0.01269     2.94900
      N    3   -0.17838      0.99968     2.66697    0.01173     3.67838
      C    4    0.00577      0.99955     1.97979    0.01489     2.99423
      C    5    0.17611      0.99952     1.80886    0.01551     2.82389
      N    6   -0.22591      0.99964     2.71591    0.01036     3.72591
      C    7    0.11712      0.99951     1.87137    0.01200     2.88288
      C    8   -0.30007      0.99964     2.29555    0.00487     3.30007
      N    9   -0.32804      0.99968     2.81440    0.01396     3.82804
      C   10   -0.13034      0.99957     2.11721    0.01356     3.13034
      C   11    0.34306      0.99971     1.63281    0.02441     2.65694
      O   12   -0.32754      0.99987     3.32175    0.00591     4.32754
      N   13   -0.40462      0.99970     2.89779    0.00713     3.90462
      H   14    0.09570      0.00000     0.40284    0.00147     0.40430
      H   15    0.09545      0.00000     0.40316    0.00139     0.40455
      H   16    0.10649      0.00000     0.39196    0.00156     0.39351
      H   17    0.08700      0.00000     0.41092    0.00208     0.41300
      H   18    0.10973      0.00000     0.38915    0.00112     0.39027
      H   19    0.09837      0.00000     0.40040    0.00124     0.40163
      H   20    0.09882      0.00000     0.39963    0.00155     0.40118
      H   21    0.19738      0.00000     0.28691    0.01570     0.30262
      H   22    0.11019      0.00000     0.38779    0.00203     0.38981
      H   23    0.10689      0.00000     0.39152    0.00159     0.39311
      H   24    0.20163      0.00000     0.29628    0.00209     0.29837
      H   25    0.19032      0.00000     0.30780    0.00188     0.30968
 =======================================================================
   * Total *   -0.00000     12.99524    34.81926    0.18551    48.00000

 Normal termination of Gaussian 16 at Sun Dec 13 16:18:53 2020.
