 Gaussian 16, Revision A.03,

 -----------------------------------------------------------
 # opt freq B3LYP/6-31G(d) empiricaldispersion=gd3bj scf=xqc
 -----------------------------------------------------------

 --------------------------------
 CID_106545983_JID_10948_neutraal
 --------------------------------
 Symbolic Z-matrix:
 Charge =  0 Multiplicity = 1

 SCF Done:  E(RB3LYP) =  -1273.81585250     A.U. after   15 cycles
 SCF Done:  E(RB3LYP) =  -1273.82497220     A.U. after   13 cycles
 SCF Done:  E(RB3LYP) =  -1273.82470899     A.U. after   13 cycles
 SCF Done:  E(RB3LYP) =  -1273.82648707     A.U. after   13 cycles
 SCF Done:  E(RB3LYP) =  -1273.82725124     A.U. after   13 cycles
 SCF Done:  E(RB3LYP) =  -1273.82742726     A.U. after   13 cycles
 SCF Done:  E(RB3LYP) =  -1273.82761324     A.U. after   12 cycles
 SCF Done:  E(RB3LYP) =  -1273.82764039     A.U. after   11 cycles
 SCF Done:  E(RB3LYP) =  -1273.82764921     A.U. after   10 cycles
 SCF Done:  E(RB3LYP) =  -1273.82765209     A.U. after    9 cycles
 SCF Done:  E(RB3LYP) =  -1273.82765669     A.U. after   10 cycles
 SCF Done:  E(RB3LYP) =  -1273.82765721     A.U. after   10 cycles
 SCF Done:  E(RB3LYP) =  -1273.82765724     A.U. after    9 cycles
 SCF Done:  E(RB3LYP) =  -1273.82765725     A.U. after    9 cycles
 SCF Done:  E(RB3LYP) =  -1273.82765725     A.U. after    9 cycles
 SCF Done:  E(RB3LYP) =  -1273.82765721     A.U. after    7 cycles
 Optimization completed.
    -- Stationary point found.
 Normal termination of Gaussian 16 at Sun Dec 13 20:56:56 2020.

 --------------------------------------------------------------------
 #N Geom=AllCheck Guess=TCheck SCRF=Check GenChk RB3LYP/6-31G(d) Freq
 --------------------------------------------------------------------

 Structure from the checkpoint file:  "JID_10948.chk"
 --------------------------------
 CID_106545983_JID_10948_neutraal
 --------------------------------
 Charge =  0 Multiplicity = 1

 SCF Done:  E(RB3LYP) =  -1273.82765721     A.U. after    1 cycles

  Exact polarizability: 237.511 -12.588 167.680  -4.120   1.348 128.020
 Approx polarizability: 320.419 -33.150 299.060  -6.632  -1.344 196.038

                      1                      2                      3
                      A                      A                      A
 Frequencies --     10.5752                31.4996                39.8668
 Red. masses --      4.2964                 5.7111                 4.3973
 Frc consts  --      0.0003                 0.0033                 0.0041
 IR Inten    --      1.2019                 3.0047                 0.3369

                      4                      5                      6
                      A                      A                      A
 Frequencies --     58.4255                72.9243                91.6809
 Red. masses --      2.8246                 3.9122                 4.3003
 Frc consts  --      0.0057                 0.0123                 0.0213
 IR Inten    --      0.6250                 0.6299                 1.1975

                      7                      8                      9
                      A                      A                      A
 Frequencies --    121.2508               139.2965               142.2406
 Red. masses --      5.7649                10.2321                 3.2315
 Frc consts  --      0.0499                 0.1170                 0.0385
 IR Inten    --      1.3997                 1.8712                 2.8745

                     10                     11                     12
                      A                      A                      A
 Frequencies --    189.2005               197.5070               207.5896
 Red. masses --      4.9233                 2.3082                 2.3467
 Frc consts  --      0.1038                 0.0531                 0.0596
 IR Inten    --      1.8510                 3.1530                 2.2736

                     13                     14                     15
                      A                      A                      A
 Frequencies --    220.4552               234.9872               246.8307
 Red. masses --      2.3905                 2.4235                 3.6504
 Frc consts  --      0.0685                 0.0788                 0.1310
 IR Inten    --      4.2545                 0.6130                 1.8172

                     16                     17                     18
                      A                      A                      A
 Frequencies --    264.6047               293.3898               304.4880
 Red. masses --      1.1541                 3.8706                 3.6718
 Frc consts  --      0.0476                 0.1963                 0.2006
 IR Inten    --      0.6664                 3.0790                 3.9349

                     19                     20                     21
                      A                      A                      A
 Frequencies --    314.6462               354.8707               372.8901
 Red. masses --      4.4610                 2.8018                 2.9209
 Frc consts  --      0.2602                 0.2079                 0.2393
 IR Inten    --      3.3822                 1.5341                 3.7152

                     22                     23                     24
                      A                      A                      A
 Frequencies --    387.6576               393.4666               421.6847
 Red. masses --      4.3936                 4.5207                 2.5441
 Frc consts  --      0.3890                 0.4124                 0.2665
 IR Inten    --      7.2277                 2.0053                 0.2363

                     25                     26                     27
                      A                      A                      A
 Frequencies --    460.2476               482.2121               516.5780
 Red. masses --      5.7958                 4.2993                 9.0235
 Frc consts  --      0.7233                 0.5890                 1.4187
 IR Inten    --      8.3006                 4.9153                13.3314

                     28                     29                     30
                      A                      A                      A
 Frequencies --    545.5666               568.8898               584.2759
 Red. masses --      5.6674                 8.1513                 3.9552
 Frc consts  --      0.9939                 1.5543                 0.7955
 IR Inten    --     25.9795                18.3566                 2.5448

                     31                     32                     33
                      A                      A                      A
 Frequencies --    590.0876               608.4156               658.1961
 Red. masses --      3.4954                 9.4021                 2.8901
 Frc consts  --      0.7171                 2.0506                 0.7377
 IR Inten    --      1.8666                36.4149                19.5031

                     34                     35                     36
                      A                      A                      A
 Frequencies --    670.4168               720.7094               782.2723
 Red. masses --      6.4023                 7.7934                 6.8288
 Frc consts  --      1.6954                 2.3851                 2.4621
 IR Inten    --     16.0896               123.2677                15.7995

                     37                     38                     39
                      A                      A                      A
 Frequencies --    827.4452               830.8232               850.8084
 Red. masses --      1.3376                 5.7649                 2.6534
 Frc consts  --      0.5396                 2.3445                 1.1317
 IR Inten    --     16.4385                20.7359                 9.4818

                     40                     41                     42
                      A                      A                      A
 Frequencies --    885.6432               907.7120               938.2031
 Red. masses --      2.4119                 2.1865                 1.8245
 Frc consts  --      1.1146                 1.0614                 0.9462
 IR Inten    --      4.8145                17.9690                 8.1176

                     43                     44                     45
                      A                      A                      A
 Frequencies --    947.3250               985.7936               991.6064
 Red. masses --      2.5629                 1.3675                 1.9180
 Frc consts  --      1.3551                 0.7830                 1.1112
 IR Inten    --     72.0007                 0.5340                48.1243

                     46                     47                     48
                      A                      A                      A
 Frequencies --   1006.6358              1013.4746              1041.0973
 Red. masses --      1.9025                 1.3412                 2.3186
 Frc consts  --      1.1358                 0.8116                 1.4806
 IR Inten    --      1.5833                 1.0523                 8.7618

                     49                     50                     51
                      A                      A                      A
 Frequencies --   1060.9241              1079.9363              1090.1121
 Red. masses --      6.8526                 1.8461                 2.5376
 Frc consts  --      4.5444                 1.2685                 1.7767
 IR Inten    --     28.9686                13.8895                23.5081

                     52                     53                     54
                      A                      A                      A
 Frequencies --   1105.9858              1130.2020              1137.0798
 Red. masses --      2.6660                 3.3594                 2.2704
 Frc consts  --      1.9214                 2.5283                 1.7296
 IR Inten    --     34.7428                60.0339                34.9471

                     55                     56                     57
                      A                      A                      A
 Frequencies --   1147.5847              1158.2086              1168.6095
 Red. masses --      1.9035                 1.3459                 1.6895
 Frc consts  --      1.4770                 1.0637                 1.3594
 IR Inten    --      8.2043                10.3306                13.9090

                     58                     59                     60
                      A                      A                      A
 Frequencies --   1172.0805              1198.4123              1215.5839
 Red. masses --      1.7059                 2.1490                 1.4752
 Frc consts  --      1.3807                 1.8184                 1.2843
 IR Inten    --     20.8437                42.3177                 4.8490

                     61                     62                     63
                      A                      A                      A
 Frequencies --   1232.1293              1237.0490              1244.9010
 Red. masses --      2.2290                 1.9018                 1.6902
 Frc consts  --      1.9938                 1.7147                 1.5433
 IR Inten    --     26.8265                 4.9573                22.4133

                     64                     65                     66
                      A                      A                      A
 Frequencies --   1273.8197              1291.5722              1295.8853
 Red. masses --      1.5749                 2.1247                 1.6021
 Frc consts  --      1.5056                 2.0882                 1.5851
 IR Inten    --      4.6465                 5.6774                11.4774

                     67                     68                     69
                      A                      A                      A
 Frequencies --   1308.6868              1311.1706              1324.4426
 Red. masses --      1.3555                 7.3157                 2.1666
 Frc consts  --      1.3678                 7.4101                 2.2392
 IR Inten    --     35.4839                28.8111                58.6580

                     70                     71                     72
                      A                      A                      A
 Frequencies --   1329.5789              1356.2964              1370.2725
 Red. masses --      2.6020                 1.2688                 1.3279
 Frc consts  --      2.7101                 1.3751                 1.4691
 IR Inten    --     65.9380                 0.7989                 1.6808

                     73                     74                     75
                      A                      A                      A
 Frequencies --   1405.6071              1413.8564              1439.5859
 Red. masses --      1.4284                 1.5009                 1.2954
 Frc consts  --      1.6628                 1.7677                 1.5818
 IR Inten    --     16.6809                12.3189                16.5752

                     76                     77                     78
                      A                      A                      A
 Frequencies --   1459.2126              1481.3501              1482.8728
 Red. masses --      2.8401                 1.1926                 1.9897
 Frc consts  --      3.5630                 1.5419                 2.5778
 IR Inten    --     46.8219                 1.3709                 7.1604

                     79                     80                     81
                      A                      A                      A
 Frequencies --   1485.5216              1516.0104              1519.0765
 Red. masses --      1.1816                 1.0613                 1.0731
 Frc consts  --      1.5362                 1.4371                 1.4590
 IR Inten    --      0.4111                11.8503                 4.9929

                     82                     83                     84
                      A                      A                      A
 Frequencies --   1520.0483              1521.8418              1530.3955
 Red. masses --      1.0495                 1.0716                 1.0699
 Frc consts  --      1.4287                 1.4622                 1.4763
 IR Inten    --      8.2999                11.0906                 0.4756

                     85                     86                     87
                      A                      A                      A
 Frequencies --   1533.9816              1539.4467              1552.3195
 Red. masses --      1.0552                 1.0713                 1.1061
 Frc consts  --      1.4629                 1.4958                 1.5704
 IR Inten    --      3.8338                 2.2938                 3.7559

                     88                     89                     90
                      A                      A                      A
 Frequencies --   1610.1050              1628.4857              2367.4105
 Red. masses --      6.1238                 5.6862                12.6855
 Frc consts  --      9.3536                 8.8846                41.8894
 IR Inten    --     40.7951                 7.8610                 0.2592

                     91                     92                     93
                      A                      A                      A
 Frequencies --   2910.7518              2932.1568              2963.1095
 Red. masses --      1.0731                 1.0625                 1.0740
 Frc consts  --      5.3569                 5.3823                 5.5561
 IR Inten    --     55.5042               102.9489                74.9416

                     94                     95                     96
                      A                      A                      A
 Frequencies --   3014.1607              3047.9784              3054.5977
 Red. masses --      1.0682                 1.0399                 1.0670
 Frc consts  --      5.7182                 5.6922                 5.8660
 IR Inten    --     33.2072                36.0393                18.7916

                     97                     98                     99
                      A                      A                      A
 Frequencies --   3073.0492              3082.2548              3089.2009
 Red. masses --      1.0702                 1.0867                 1.0934
 Frc consts  --      5.9545                 6.0830                 6.1480
 IR Inten    --     42.5586                66.8312                23.3485

                    100                    101                    102
                      A                      A                      A
 Frequencies --   3100.2718              3115.8595              3116.2944
 Red. masses --      1.0894                 1.1000                 1.1041
 Frc consts  --      6.1693                 6.2921                 6.3173
 IR Inten    --     29.8732                17.5601                33.3181

                    103                    104                    105
                      A                      A                      A
 Frequencies --   3126.8036              3146.3144              3154.9110
 Red. masses --      1.0970                 1.0868                 1.1037
 Frc consts  --      6.3190                 6.3387                 6.4726
 IR Inten    --     14.7835                 5.6400                16.5093

                    106                    107                    108
                      A                      A                      A
 Frequencies --   3195.1272              3222.5598              3236.2751
 Red. masses --      1.0901                 1.0916                 1.0952
 Frc consts  --      6.5568                 6.6793                 6.7584
 IR Inten    --     13.3015                 7.4775                 5.9548

 - Thermochemistry -
 -------------------
 Temperature   298.150 Kelvin.  Pressure   1.00000 Atm.
 Atom     1 has atomic number  6 and mass  12.00000

 Molecular mass:   294.11505 amu.
 Principal axes and moments of inertia in atomic units:
                           1         2         3
     Eigenvalues --  2590.300279754.63252**********
           X            0.99994  -0.00797   0.00730
           Y            0.00796   0.99997   0.00107
           Z           -0.00731  -0.00101   0.99997
 This molecule is an asymmetric top.
 Rotational symmetry number  1.
 Warning -- assumption of classical behavior for rotation
           may cause significant error
 Rotational temperatures (Kelvin)      0.03344     0.00888     0.00824
 Rotational constants (GHZ):           0.69673     0.18501     0.17168
 Zero-point vibrational energy     815588.8 (Joules/Mol)
                                  194.93039 (Kcal/Mol)
 Warning -- explicit consideration of  32 degrees of freedom as
           vibrations may cause significant error
 Vibrational temperatures:     15.22    45.32    57.36    84.06   104.92
          (Kelvin)            131.91   174.45   200.42   204.65   272.22
                              284.17   298.68   317.19   338.09   355.13
                              380.71   422.12   438.09   452.71   510.58
                              536.51   557.75   566.11   606.71   662.19
                              693.80   743.24   784.95   818.51   840.64
                              849.00   875.37   947.00   964.58  1036.94
                             1125.52  1190.51  1195.37  1224.12  1274.24
                             1306.00  1349.87  1362.99  1418.34  1426.70
                             1448.32  1458.16  1497.91  1526.43  1553.79
                             1568.43  1591.27  1626.11  1636.00  1651.12
                             1666.40  1681.37  1686.36  1724.25  1748.95
                             1772.76  1779.84  1791.13  1832.74  1858.28
                             1864.49  1882.91  1886.48  1905.58  1912.97
                             1951.41  1971.52  2022.36  2034.22  2071.24
                             2099.48  2131.33  2133.52  2137.33  2181.20
                             2185.61  2187.01  2189.59  2201.90  2207.06
                             2214.92  2233.44  2316.58  2343.03  3406.18
                             4187.92  4218.72  4263.25  4336.71  4385.36
                             4394.88  4421.43  4434.68  4444.67  4460.60
                             4483.03  4483.65  4498.77  4526.84  4539.21
                             4597.08  4636.54  4656.28

 Zero-point correction=                           0.310641 (Hartree/Particle)
 Thermal correction to Energy=                    0.330121
 Thermal correction to Enthalpy=                  0.331065
 Thermal correction to Gibbs Free Energy=         0.260749
 Sum of electronic and zero-point Energies=          -1273.517016
 Sum of electronic and thermal Energies=             -1273.497536
 Sum of electronic and thermal Enthalpies=           -1273.496592
 Sum of electronic and thermal Free Energies=        -1273.566908

                     E (Thermal)             CV                S
                      KCal/Mol        Cal/Mol-Kelvin    Cal/Mol-Kelvin
 Total                  207.154             72.781            147.994
 Electronic               0.000              0.000              0.000
 Translational            0.889              2.981             42.934
 Rotational               0.889              2.981             33.940
 Vibrational            205.377             66.820             71.120
 Vibration     1          0.593              1.987              7.900
 Vibration     2          0.594              1.983              5.733
 Vibration     3          0.594              1.981              5.266
 Vibration     4          0.596              1.974              4.510
 Vibration     5          0.599              1.967              4.073
 Vibration     6          0.602              1.955              3.624
 Vibration     7          0.609              1.931              3.080
 Vibration     8          0.615              1.914              2.814
 Vibration     9          0.616              1.911              2.774
 Vibration    10          0.633              1.855              2.236
 Vibration    11          0.637              1.843              2.156
 Vibration    12          0.641              1.829              2.065
 Vibration    13          0.647              1.810              1.955
 Vibration    14          0.655              1.787              1.841
 Vibration    15          0.661              1.768              1.753
 Vibration    16          0.671              1.738              1.631
 Vibration    17          0.688              1.686              1.454
 Vibration    18          0.695              1.665              1.392
 Vibration    19          0.702              1.646              1.338
 Vibration    20          0.731              1.565              1.144
 Vibration    21          0.744              1.528              1.068
 Vibration    22          0.756              1.497              1.009
 Vibration    23          0.761              1.484              0.987
 Vibration    24          0.784              1.423              0.886
 Vibration    25          0.818              1.338              0.765
 Vibration    26          0.838              1.290              0.704
 Vibration    27          0.872              1.213              0.618
 Vibration    28          0.901              1.149              0.553
 Vibration    29          0.925              1.099              0.506
 Vibration    30          0.941              1.065              0.478
 Vibration    31          0.947              1.053              0.467
 Vibration    32          0.967              1.014              0.435

 Optimization completed.
    -- Stationary point found.
 Normal termination of Gaussian 16 at Sun Dec 13 21:16:53 2020.

 ----------------------------------------------------------------------
 # B3LYP/6-311++G(d,p) empiricaldispersion=gd3bj scf=xqc pop=npa geom=c
 heck
 ----------------------------------------------------------------------

 ----------------------------------------
 CID_106545983_JID_10948_Energie_neutraal
 ----------------------------------------
 Structure from the checkpoint file:  "JID_10948.chk"
 Charge =  0 Multiplicity = 1

 SCF Done:  E(RB3LYP) =  -1274.09053323     A.U. after   17 cycles
 Normal termination of Gaussian 16 at Sun Dec 13 21:27:06 2020.

 ----------------------------------------------------------------------
 # B3LYP/6-311++G(d,p) empiricaldispersion=gd3bj scf=xqc pop=npa geom=c
 heck
 ----------------------------------------------------------------------

 --------------------------------------
 CID_106545983_JID_10948_Energie_kation
 --------------------------------------
 Structure from the checkpoint file:  "JID_10948.chk"
 Charge =  1 Multiplicity = 2

 SCF Done:  E(UB3LYP) =  -1273.79966618     A.U. after   32 cycles
 Normal termination of Gaussian 16 at Sun Dec 13 21:53:51 2020.
 Gaussian 16:  ES64L-G16RevA.03 25-Dec-2016

 ----------------------------------------------------------------------
 # B3LYP/6-311++G(d,p) empiricaldispersion=gd3bj scf=xqc pop=npa geom=c
 heck
 ----------------------------------------------------------------------

 -------------------------------------
 CID_106545983_JID_10948_Energie_anion
 -------------------------------------
 Structure from the checkpoint file:  "JID_10948.chk"
 Charge = -1 Multiplicity = 2

                         Standard orientation:
 ---------------------------------------------------------------------
 Center     Atomic      Atomic             Coordinates (Angstroms)
 Number     Number       Type             X           Y           Z
 ---------------------------------------------------------------------
      1          6           0       -5.104508   -0.755469   -1.457112
      2          7           0       -4.243293   -0.316042   -0.379309
      3          6           0       -4.519033    1.030586    0.106244
      4          6           0       -3.348146    1.272359    1.059061
      5          6           0       -2.148393    0.553048    0.373007
      6          6           0       -2.822653   -0.302308   -0.730022
      7          6           0       -1.351327   -0.249119    1.409391
      8          7           0        0.122023   -0.340484    1.212152
      9          6           0        0.803265   -0.860637    2.408328
     10         16           0        0.709622   -1.040114   -0.201926
     11          8           0        0.929195   -2.485589   -0.052091
     12          8           0       -0.049337   -0.527901   -1.340193
     13          6           0        2.346623   -0.283892   -0.257245
     14          6           0        2.540825    1.107527   -0.307364
     15          7           0        3.756869    1.664720   -0.411807
     16          6           0        4.812532    0.848990   -0.479327
     17          6           0        4.718784   -0.543325   -0.443438
     18          6           0        3.456681   -1.120021   -0.329932
     19          6           0        1.441959    2.038959   -0.238765
     20          7           0        0.583681    2.818922   -0.185065
     21          1           0       -6.148502   -0.753916   -1.124353
     22          1           0       -5.027926   -0.114360   -2.358270
     23          1           0       -4.841552   -1.778479   -1.747951
     24          1           0       -4.514739    1.777454   -0.714504
     25          1           0       -5.498769    1.076832    0.595149
     26          1           0       -3.572435    0.803631    2.024630
     27          1           0       -3.144571    2.332043    1.237773
     28          1           0       -1.484173    1.290616   -0.077656
     29          1           0       -2.435343   -1.323690   -0.787064
     30          1           0       -2.649307    0.163169   -1.717064
     31          1           0       -1.428476    0.255595    2.377413
     32          1           0       -1.787959   -1.251660    1.536821
     33          1           0        0.477613   -1.876012    2.667313
     34          1           0        1.884726   -0.865751    2.255263
     35          1           0        0.581601   -0.181713    3.235508
     36          1           0        5.780055    1.337468   -0.565812
     37          1           0        5.611300   -1.157265   -0.502273
     38          1           0        3.311003   -2.194213   -0.294609
 ---------------------------------------------------------------------

 SCF Done:  E(UB3LYP) =  -1274.12790304     A.U. after   27 cycles

 The electronic state is 2-A.
 Alpha  occ. eigenvalues --  -88.93908 -18.99675 -18.99443 -14.23594 -14.21346
 Alpha  occ. eigenvalues --  -14.17360 -14.14724 -10.10994 -10.10573 -10.10390
 Alpha  occ. eigenvalues --  -10.10346 -10.08547 -10.07558 -10.07408 -10.07168
 Alpha  occ. eigenvalues --  -10.07079 -10.06507 -10.06450 -10.04925 -10.03433
 Alpha  occ. eigenvalues --   -8.00057  -5.96356  -5.96312  -5.96125  -0.99896
 Alpha  occ. eigenvalues --   -0.88898  -0.84620  -0.83014  -0.81328  -0.74858
 Alpha  occ. eigenvalues --   -0.70390  -0.68368  -0.65153  -0.64278  -0.61038
 Alpha  occ. eigenvalues --   -0.60211  -0.57441  -0.53385  -0.51332  -0.49070
 Alpha  occ. eigenvalues --   -0.47933  -0.45736  -0.43072  -0.41266  -0.40431
 Alpha  occ. eigenvalues --   -0.39240  -0.38151  -0.37133  -0.36077  -0.35651
 Alpha  occ. eigenvalues --   -0.35333  -0.33171  -0.33162  -0.32712  -0.32109
 Alpha  occ. eigenvalues --   -0.30736  -0.30616  -0.28663  -0.28318  -0.28163
 Alpha  occ. eigenvalues --   -0.27051  -0.26615  -0.26450  -0.24505  -0.23823
 Alpha  occ. eigenvalues --   -0.23166  -0.22620  -0.21595  -0.20973  -0.20771
 Alpha  occ. eigenvalues --   -0.20036  -0.18889  -0.18103  -0.16586  -0.14594
 Alpha  occ. eigenvalues --   -0.13600  -0.13115  -0.13003   0.02505
 Alpha virt. eigenvalues --    0.06322   0.07596   0.08294   0.08761   0.08882
 Alpha virt. eigenvalues --    0.09372   0.10011   0.10305   0.10966   0.11324
 Alpha virt. eigenvalues --    0.12053   0.12282   0.12399   0.12968   0.13695

  Beta  occ. eigenvalues --  -88.93905 -18.99647 -18.99412 -14.23586 -14.21345
  Beta  occ. eigenvalues --  -14.17270 -14.14335 -10.10988 -10.10573 -10.10390
  Beta  occ. eigenvalues --  -10.10341 -10.08547 -10.07558 -10.07168 -10.07015
  Beta  occ. eigenvalues --  -10.06878 -10.06574 -10.06248 -10.04984 -10.03050
  Beta  occ. eigenvalues --   -8.00053  -5.96347  -5.96299  -5.96130  -0.99817
  Beta  occ. eigenvalues --   -0.88833  -0.84618  -0.82975  -0.80806  -0.74299
  Beta  occ. eigenvalues --   -0.70366  -0.67961  -0.64814  -0.63857  -0.61031
  Beta  occ. eigenvalues --   -0.60068  -0.57371  -0.52590  -0.51109  -0.49067
  Beta  occ. eigenvalues --   -0.47837  -0.45634  -0.42887  -0.41073  -0.40428
  Beta  occ. eigenvalues --   -0.39126  -0.38085  -0.37038  -0.35948  -0.35610
  Beta  occ. eigenvalues --   -0.35201  -0.33136  -0.32956  -0.32627  -0.32067
  Beta  occ. eigenvalues --   -0.30708  -0.30607  -0.28610  -0.28005  -0.27050
  Beta  occ. eigenvalues --   -0.26916  -0.26542  -0.26187  -0.24484  -0.23778
  Beta  occ. eigenvalues --   -0.23117  -0.22509  -0.21105  -0.20812  -0.19868
  Beta  occ. eigenvalues --   -0.19299  -0.18737  -0.17841  -0.15704  -0.14283
  Beta  occ. eigenvalues --   -0.13114  -0.12814  -0.11271
  Beta virt. eigenvalues --    0.06321   0.07594   0.08288   0.08747   0.09040
  Beta virt. eigenvalues --    0.09364   0.09455   0.10005   0.10295   0.10949
  Beta virt. eigenvalues --    0.11319   0.12048   0.12279   0.12397   0.12971

 Mulliken charges and spin densities:
               1          2
     1  C   -0.200690  -0.000226
     2  N    0.150972   0.000354
     3  C   -0.330627  -0.000800
     4  C   -0.544255  -0.000192
     5  C   -0.050285   0.011326
     6  C   -0.505460  -0.016534
     7  C   -0.724684   0.006849
     8  N    0.243888  -0.005003
     9  C   -0.372261   0.000740
    10  S   -0.098365   0.065336
    11  O   -0.010292   0.002347
    12  O   -0.047312  -0.029005
    13  C   -0.438137   0.138433
    14  C   -0.387305   0.413608
    15  N    0.031424   0.035039
    16  C   -0.091826   0.049530
    17  C   -0.445795   0.309500
    18  C    0.866841  -0.074126
    19  C   -0.696932  -0.104556
    20  N   -0.273489   0.214922
    21  H    0.128946  -0.000007
    22  H    0.104467  -0.000036
    23  H    0.116359  -0.000016
    24  H    0.105788   0.000502
    25  H    0.159888  -0.000058
    26  H    0.100522   0.000393
    27  H    0.160785   0.000469
    28  H    0.277373   0.000347
    29  H    0.269313  -0.002297
    30  H    0.188904   0.001664
    31  H    0.167474  -0.000318
    32  H    0.154511   0.001117
    33  H    0.169508   0.000251
    34  H    0.185308   0.000577
    35  H    0.146744   0.000179
    36  H    0.145199  -0.003869
    37  H    0.127332  -0.023758
    38  H    0.216167   0.007318
 Sum of Mulliken charges =  -1.00000   1.00000

 Dipole moment (field-independent basis, Debye):
    X=             -6.5514    Y=             -3.9129    Z=              3.6050  Tot=              8.4396
 Quadrupole moment (field-independent basis, Debye-Ang):
   XX=           -165.7162   YY=           -164.4340   ZZ=           -134.5198
   XY=            -10.4193   XZ=              3.9082   YZ=              1.0171

 Summary of Natural Population Analysis:

                                       Natural Population
                Natural  -----------------------------------------------
    Atom  No    Charge         Core      Valence    Rydberg      Total
 -----------------------------------------------------------------------
      C    1   -0.17421      0.99967     2.16750    0.00704     3.17421
      N    2   -0.28434      0.99971     2.77003    0.01459     3.78434
      C    3   -0.08337      0.99964     2.07495    0.00878     3.08337
      C    4   -0.18651      0.99963     2.18001    0.00687     3.18651
      C    5   -0.13988      0.99958     2.12582    0.01448     3.13988
      C    6   -0.08111      0.99962     2.07119    0.01030     3.08111
      C    7   -0.07366      0.99959     2.06372    0.01036     3.07366
      N    8   -0.36632      0.99974     2.85353    0.01304     3.86632
      C    9   -0.18084      0.99964     2.17384    0.00735     3.18084
      S   10    1.11502      4.99912     1.78519    0.10067     6.88498
      O   11   -0.47372      0.99991     3.46791    0.00590     4.47372
      O   12   -0.45764      0.99990     3.45003    0.00771     4.45764
      C   13   -0.10349      0.99933     2.08695    0.01721     3.10349
      C   14    0.12580      0.99937     1.85979    0.01505     2.87420
      N   15   -0.20757      0.99969     2.69668    0.01120     3.70757
      C   16    0.03518      0.99960     1.95151    0.01371     2.96482
      C   17   -0.06190      0.99957     2.05349    0.00884     3.06190
      C   18   -0.10493      0.99951     2.09625    0.00917     3.10493
      C   19    0.13796      0.99964     1.84374    0.01866     2.86204
      N   20   -0.14318      0.99978     2.63231    0.01109     3.64318
      H   21    0.08992      0.00000     0.40908    0.00100     0.41008
      H   22    0.07791      0.00000     0.42018    0.00191     0.42209
      H   23    0.09460      0.00000     0.40440    0.00099     0.40540
      H   24    0.07768      0.00000     0.42082    0.00150     0.42232
      H   25    0.09007      0.00000     0.40856    0.00137     0.40993
      H   26    0.09257      0.00000     0.40633    0.00110     0.40743
      H   27    0.10390      0.00000     0.39533    0.00077     0.39610
      H   28    0.13029      0.00000     0.36808    0.00163     0.36971
      H   29    0.10119      0.00000     0.39759    0.00122     0.39881
      H   30    0.08954      0.00000     0.40940    0.00107     0.41046
      H   31    0.09632      0.00000     0.40262    0.00106     0.40368
      H   32    0.08816      0.00000     0.41067    0.00117     0.41184
      H   33    0.08948      0.00000     0.40927    0.00124     0.41052
      H   34    0.11099      0.00000     0.38826    0.00075     0.38901
      H   35    0.09477      0.00000     0.40431    0.00092     0.40523
      H   36    0.07990      0.00000     0.41883    0.00127     0.42010
      H   37    0.09072      0.00000     0.40819    0.00108     0.40928
      H   38    0.11066      0.00000     0.38834    0.00100     0.38934
 =======================================================================
   * Total *   -0.00000     23.99223    53.67469    0.33308    78.00000

 Normal termination of Gaussian 16 at Sun Dec 13 22:16:20 2020.
