 Gaussian 16, Revision A.03,

 -----------------------------------------------------------
 # opt freq B3LYP/6-31G(d) empiricaldispersion=gd3bj scf=xqc
 -----------------------------------------------------------

 -------------------------------
 CID_24505611_JID_10843_neutraal
 -------------------------------
 Symbolic Z-matrix:
 Charge =  0 Multiplicity = 1

 SCF Done:  E(RB3LYP) =  -1220.98665526     A.U. after   16 cycles
 SCF Done:  E(RB3LYP) =  -1220.99193910     A.U. after   13 cycles
 SCF Done:  E(RB3LYP) =  -1220.99469630     A.U. after   13 cycles
 SCF Done:  E(RB3LYP) =  -1220.99642335     A.U. after   15 cycles
 SCF Done:  E(RB3LYP) =  -1220.99714198     A.U. after   13 cycles
 SCF Done:  E(RB3LYP) =  -1220.99731358     A.U. after   12 cycles
 SCF Done:  E(RB3LYP) =  -1220.99737006     A.U. after   11 cycles
 SCF Done:  E(RB3LYP) =  -1220.99738530     A.U. after   11 cycles
 SCF Done:  E(RB3LYP) =  -1220.99739395     A.U. after   11 cycles
 SCF Done:  E(RB3LYP) =  -1220.99739936     A.U. after   11 cycles
 SCF Done:  E(RB3LYP) =  -1220.99747222     A.U. after    8 cycles
 SCF Done:  E(RB3LYP) =  -1220.99747224     A.U. after    8 cycles
 SCF Done:  E(RB3LYP) =  -1220.99747225     A.U. after    7 cycles
 SCF Done:  E(RB3LYP) =  -1220.99747226     A.U. after    7 cycles
 SCF Done:  E(RB3LYP) =  -1220.99747226     A.U. after    6 cycles
 Optimization completed on the basis of negligible forces.
    -- Stationary point found.
 Normal termination of Gaussian 16 at Sat Dec 12 17:01:05 2020.

 --------------------------------------------------------------------
 #N Geom=AllCheck Guess=TCheck SCRF=Check GenChk RB3LYP/6-31G(d) Freq
 --------------------------------------------------------------------

 Structure from the checkpoint file:  "JID_10843.chk"
 -------------------------------
 CID_24505611_JID_10843_neutraal
 -------------------------------
 Charge =  0 Multiplicity = 1

 SCF Done:  E(RB3LYP) =  -1220.99747226     A.U. after    1 cycles

  Exact polarizability: 350.343  -1.320 215.302   0.050  -0.026  72.814
 Approx polarizability: 478.493  -5.065 409.687   0.033  -0.019 116.887

                      1                      2                      3
                      A                      A                      A
 Frequencies --      7.0357                 7.1982                14.2367
 Red. masses --      3.4212                 1.0975                 5.3459
 Frc consts  --      0.0001                 0.0000                 0.0006
 IR Inten    --      0.5623                 0.3554                 0.1354

                      4                      5                      6
                      A                      A                      A
 Frequencies --     57.7933                62.4959               100.7520
 Red. masses --      5.7682                 8.1351                 5.3360
 Frc consts  --      0.0114                 0.0187                 0.0319
 IR Inten    --      0.2941                 2.6352                 0.0969

                      7                      8                      9
                      A                      A                      A
 Frequencies --    146.4598               180.9476               205.1289
 Red. masses --      5.5503                 7.1365                 6.2049
 Frc consts  --      0.0701                 0.1377                 0.1538
 IR Inten    --      2.8021                 4.0154                 1.0402

                     10                     11                     12
                      A                      A                      A
 Frequencies --    213.6557               223.2089               249.1894
 Red. masses --      2.8878                 1.4235                 2.6328
 Frc consts  --      0.0777                 0.0418                 0.0963
 IR Inten    --      7.9423               108.0999                55.5735

                     13                     14                     15
                      A                      A                      A
 Frequencies --    261.9248               308.8583               312.5271
 Red. masses --      4.8158                 5.0716                 5.6370
 Frc consts  --      0.1947                 0.2850                 0.3244
 IR Inten    --      2.3102                 4.8467                 2.3499

                     16                     17                     18
                      A                      A                      A
 Frequencies --    323.1926               369.2892               384.1801
 Red. masses --      8.7902                 7.3333                 3.9466
 Frc consts  --      0.5410                 0.5892                 0.3432
 IR Inten    --      0.8345                 0.4437                 1.1104

                     19                     20                     21
                      A                      A                      A
 Frequencies --    427.4927               440.0243               450.0273
 Red. masses --      1.2543                 3.0434                 5.7033
 Frc consts  --      0.1350                 0.3472                 0.6805
 IR Inten    --     53.4185                 1.5111                 3.6897

                     22                     23                     24
                      A                      A                      A
 Frequencies --    454.3469               502.1626               509.6610
 Red. masses --      2.2513                 4.6929                 5.9250
 Frc consts  --      0.2738                 0.6972                 0.9068
 IR Inten    --     15.8098                 1.9480                 0.5092

                     25                     26                     27
                      A                      A                      A
 Frequencies --    534.9093               591.7761               596.4366
 Red. masses --      5.1642                 4.9328                 5.0145
 Frc consts  --      0.8706                 1.0178                 1.0510
 IR Inten    --      2.2120                 0.0446                 5.9945

                     28                     29                     30
                      A                      A                      A
 Frequencies --    616.5400               627.7294               671.8840
 Red. masses --      9.6189                 4.6414                 7.8362
 Frc consts  --      2.1543                 1.0776                 2.0842
 IR Inten    --     20.7526                 1.4305                 5.1894

                     31                     32                     33
                      A                      A                      A
 Frequencies --    689.6763               700.8436               702.0420
 Red. masses --      5.5824                 1.8063                 7.8829
 Frc consts  --      1.5645                 0.5227                 2.2891
 IR Inten    --      3.6822                 3.5781                19.6277

                     34                     35                     36
                      A                      A                      A
 Frequencies --    706.6011               747.7752               802.9548
 Red. masses --      2.1793                 2.3298                 5.9902
 Frc consts  --      0.6411                 0.7675                 2.2755
 IR Inten    --     11.9010                34.8893                48.8808

                     37                     38                     39
                      A                      A                      A
 Frequencies --    810.3719               815.0715               825.4815
 Red. masses --      1.4626                 1.4667                 7.7350
 Frc consts  --      0.5659                 0.5741                 3.1055
 IR Inten    --     25.1960                16.5403                 7.3743

                     40                     41                     42
                      A                      A                      A
 Frequencies --    862.7042               871.4775               883.8462
 Red. masses --      5.9430                 1.4707                 1.3808
 Frc consts  --      2.6061                 0.6581                 0.6355
 IR Inten    --     14.1126                18.9294                 3.6138

                     43                     44                     45
                      A                      A                      A
 Frequencies --    897.6578               929.8209               931.3239
 Red. masses --      5.0775                 1.3242                 1.3197
 Frc consts  --      2.4106                 0.6745                 0.6744
 IR Inten    --     18.4259                 0.2799                 1.8565

                     46                     47                     48
                      A                      A                      A
 Frequencies --    979.1371               986.5149              1010.9728
 Red. masses --      3.8427                 1.2878                 2.3386
 Frc consts  --      2.1706                 0.7384                 1.4083
 IR Inten    --     11.9659                 0.4572                26.0662

                     49                     50                     51
                      A                      A                      A
 Frequencies --   1023.2673              1042.7811              1076.5600
 Red. masses --      4.9114                 2.1742                 1.5147
 Frc consts  --      3.0299                 1.3930                 1.0343
 IR Inten    --      5.8489                25.5155                 4.1682

                     52                     53                     54
                      A                      A                      A
 Frequencies --   1087.9856              1130.2682              1136.9506
 Red. masses --      1.9470                 1.5042                 1.8192
 Frc consts  --      1.3579                 1.1322                 1.3855
 IR Inten    --      7.6761                 7.0679               159.8276

                     55                     56                     57
                      A                      A                      A
 Frequencies --   1186.3938              1204.4696              1216.7498
 Red. masses --      1.2612                 1.1565                 1.7074
 Frc consts  --      1.0459                 0.9885                 1.4893
 IR Inten    --     55.8004                 1.4928                22.1090

                     58                     59                     60
                      A                      A                      A
 Frequencies --   1226.2729              1238.0686              1289.8100
 Red. masses --      1.7343                 1.3903                 3.8932
 Frc consts  --      1.5365                 1.2556                 3.8160
 IR Inten    --      7.1692                53.6523                 6.0577

                     61                     62                     63
                      A                      A                      A
 Frequencies --   1295.2714              1324.3449              1335.6692
 Red. masses --      2.3726                 4.4403                 4.2534
 Frc consts  --      2.3453                 4.5884                 4.4708
 IR Inten    --     37.5325               139.3496               121.1009

                     64                     65                     66
                      A                      A                      A
 Frequencies --   1344.9133              1369.6086              1377.6194
 Red. masses --      1.9187                 2.3980                 1.8710
 Frc consts  --      2.0447                 2.6503                 2.0921
 IR Inten    --      4.4936                19.3587               190.6813

                     67                     68                     69
                      A                      A                      A
 Frequencies --   1403.1638              1444.0530              1462.8007
 Red. masses --      4.1841                 1.2537                 2.8370
 Frc consts  --      4.8536                 1.5403                 3.5766
 IR Inten    --     14.2026                 0.0875                 1.9531

                     70                     71                     72
                      A                      A                      A
 Frequencies --   1513.8069              1515.3434              1525.2229
 Red. masses --      3.0418                 1.0460                 1.3341
 Frc consts  --      4.1070                 1.4152                 1.8286
 IR Inten    --     61.6260                 5.7042                11.9807

                     73                     74                     75
                      A                      A                      A
 Frequencies --   1531.5221              1541.2108              1566.3302
 Red. masses --      4.1728                 2.2106                 6.4348
 Frc consts  --      5.7666                 3.0937                 9.3015
 IR Inten    --    102.0050                78.4138                67.5247

                     76                     77                     78
                      A                      A                      A
 Frequencies --   1583.8631              1640.9083              1661.4611
 Red. masses --      4.3120                 5.4725                 6.5973
 Frc consts  --      6.3732                 8.6817                10.7299
 IR Inten    --     71.7980                 1.0721                60.2923

                     79                     80                     81
                      A                      A                      A
 Frequencies --   1669.1213              1683.5660              3046.4960
 Red. masses --      5.5261                 6.2566                 1.0373
 Frc consts  --      9.0707                10.4483                 5.6724
 IR Inten    --     14.9633                 9.2690                35.7956

                     82                     83                     84
                      A                      A                      A
 Frequencies --   3099.5422              3128.6945              3171.5506
 Red. masses --      1.1009                 1.1012                 1.0900
 Frc consts  --      6.2317                 6.3509                 6.4597
 IR Inten    --     19.1341                14.1328                25.9895

                     85                     86                     87
                      A                      A                      A
 Frequencies --   3178.9813              3179.8423              3199.7840
 Red. masses --      1.0891                 1.0878                 1.0932
 Frc consts  --      6.4846                 6.4806                 6.5944
 IR Inten    --     11.7830                 7.6382                27.1698

                     88                     89                     90
                      A                      A                      A
 Frequencies --   3218.4316              3234.0730              3242.3532
 Red. masses --      1.0900                 1.0925                 1.0914
 Frc consts  --      6.6523                 6.7327                 6.7599
 IR Inten    --      4.2649                 3.7662                 0.9441

                     91                     92                     93
                      A                      A                      A
 Frequencies --   3284.2404              3718.4215              3772.4932
 Red. masses --      1.0936                 1.0651                 1.0662
 Frc consts  --      6.9496                 8.6769                 8.9403
 IR Inten    --      3.1713                99.9638                83.2521

 - Thermochemistry -
 -------------------
 Temperature   298.150 Kelvin.  Pressure   1.00000 Atm.
 Atom     1 has atomic number  6 and mass  12.00000

 Molecular mass:   283.06670 amu.
 Principal axes and moments of inertia in atomic units:
                           1         2         3
     Eigenvalues --  1934.34144********************
           X            1.00000  -0.00136   0.00002
           Y            0.00136   1.00000  -0.00002
           Z           -0.00001   0.00002   1.00000
 This molecule is an asymmetric top.
 Rotational symmetry number  1.
 Warning -- assumption of classical behavior for rotation
           may cause significant error
 Rotational temperatures (Kelvin)      0.04478     0.00586     0.00518
 Rotational constants (GHZ):           0.93300     0.12204     0.10800
 Zero-point vibrational energy     664702.7 (Joules/Mol)
                                  158.86777 (Kcal/Mol)
 Warning -- explicit consideration of  28 degrees of freedom as
           vibrations may cause significant error
 Vibrational temperatures:     10.12    10.36    20.48    83.15    89.92
          (Kelvin)            144.96   210.72   260.34   295.13   307.40
                              321.15   358.53   376.85   444.38   449.66
                              465.00   531.32   552.75   615.07   633.10
                              647.49   653.70   722.50   733.29   769.62
                              851.43   858.14   887.06   903.16   966.69
                              992.29  1008.36  1010.08  1016.64  1075.88
                             1155.27  1165.94  1172.71  1187.68  1241.24
                             1253.86  1271.66  1291.53  1337.80  1339.97
                             1408.76  1419.37  1454.56  1472.25  1500.33
                             1548.93  1565.37  1626.20  1635.82  1706.96
                             1732.96  1750.63  1764.33  1781.30  1855.75
                             1863.61  1905.44  1921.73  1935.03  1970.56
                             1982.09  2018.84  2077.67  2104.64  2178.03
                             2180.24  2194.46  2203.52  2217.46  2253.60
                             2278.83  2360.90  2390.47  2401.49  2422.28
                             4383.23  4459.55  4501.49  4563.15  4573.84
                             4575.08  4603.78  4630.61  4653.11  4665.02
                             4725.29  5349.98  5427.78

 Zero-point correction=                           0.253172 (Hartree/Particle)
 Thermal correction to Energy=                    0.270945
 Thermal correction to Enthalpy=                  0.271889
 Thermal correction to Gibbs Free Energy=         0.202287
 Sum of electronic and zero-point Energies=          -1220.744300
 Sum of electronic and thermal Energies=             -1220.726528
 Sum of electronic and thermal Enthalpies=           -1220.725584
 Sum of electronic and thermal Free Energies=        -1220.795185

                     E (Thermal)             CV                S
                      KCal/Mol        Cal/Mol-Kelvin    Cal/Mol-Kelvin
 Total                  170.020             67.994            146.488
 Electronic               0.000              0.000              0.000
 Translational            0.889              2.981             42.820
 Rotational               0.889              2.981             34.524
 Vibrational            168.243             62.032             69.145
 Vibration     1          0.593              1.987              8.710
 Vibration     2          0.593              1.987              8.664
 Vibration     3          0.593              1.986              7.309
 Vibration     4          0.596              1.974              4.531
 Vibration     5          0.597              1.972              4.377
 Vibration     6          0.604              1.949              3.440
 Vibration     7          0.617              1.907              2.718
 Vibration     8          0.630              1.866              2.319
 Vibration     9          0.640              1.833              2.087
 Vibration    10          0.644              1.820              2.012
 Vibration    11          0.649              1.806              1.933
 Vibration    12          0.662              1.764              1.736
 Vibration    13          0.669              1.743              1.649
 Vibration    14          0.698              1.657              1.368
 Vibration    15          0.701              1.650              1.349
 Vibration    16          0.708              1.629              1.294
 Vibration    17          0.742              1.535              1.083
 Vibration    18          0.753              1.504              1.023
 Vibration    19          0.789              1.410              0.867
 Vibration    20          0.800              1.383              0.827
 Vibration    21          0.809              1.361              0.796
 Vibration    22          0.813              1.351              0.783
 Vibration    23          0.858              1.245              0.653
 Vibration    24          0.865              1.229              0.634
 Vibration    25          0.890              1.173              0.576
 Vibration    26          0.949              1.049              0.464
 Vibration    27          0.954              1.039              0.456
 Vibration    28          0.976              0.997              0.422

 Optimization completed on the basis of negligible forces.
    -- Stationary point found.
 Normal termination of Gaussian 16 at Sat Dec 12 17:15:29 2020.

 ----------------------------------------------------------------------
 # B3LYP/6-311++G(d,p) empiricaldispersion=gd3bj scf=xqc pop=npa geom=c
 heck
 ----------------------------------------------------------------------

 ---------------------------------------
 CID_24505611_JID_10843_Energie_neutraal
 ---------------------------------------
 Structure from the checkpoint file:  "JID_10843.chk"
 Charge =  0 Multiplicity = 1

 SCF Done:  E(RB3LYP) =  -1221.25177853     A.U. after   16 cycles
 Normal termination of Gaussian 16 at Sat Dec 12 17:22:49 2020.

 ----------------------------------------------------------------------
 # B3LYP/6-311++G(d,p) empiricaldispersion=gd3bj scf=xqc pop=npa geom=c
 heck
 ----------------------------------------------------------------------

 -------------------------------------
 CID_24505611_JID_10843_Energie_kation
 -------------------------------------
 Structure from the checkpoint file:  "JID_10843.chk"
 Charge =  1 Multiplicity = 2

 SCF Done:  E(UB3LYP) =  -1220.98978682     A.U. after   22 cycles
 Normal termination of Gaussian 16 at Sat Dec 12 17:37:01 2020.
 Gaussian 16:  ES64L-G16RevA.03 25-Dec-2016

 ----------------------------------------------------------------------
 # B3LYP/6-311++G(d,p) empiricaldispersion=gd3bj scf=xqc pop=npa geom=c
 heck
 ----------------------------------------------------------------------

 ------------------------------------
 CID_24505611_JID_10843_Energie_anion
 ------------------------------------
 Structure from the checkpoint file:  "JID_10843.chk"
 Charge = -1 Multiplicity = 2

                         Standard orientation:
 ---------------------------------------------------------------------
 Center     Atomic      Atomic             Coordinates (Angstroms)
 Number     Number       Type             X           Y           Z
 ---------------------------------------------------------------------
      1          6           0       -6.452333    0.595821   -0.003050
      2          6           0       -5.162919   -0.189126    0.000857
      3          6           0       -3.927846    0.459282    0.000777
      4          6           0       -2.722314   -0.258951    0.000213
      5          6           0       -2.763203   -1.661092    0.000129
      6          6           0       -3.990518   -2.317021    0.000778
      7          6           0       -5.180752   -1.590817    0.001333
      8          6           0       -1.420596    0.415646    0.000326
      9          7           0       -0.272987   -0.203842    0.000122
     10          6           0        0.803144    0.662028    0.000197
     11          6           0        0.453711    1.991381    0.000468
     12         16           0       -1.265520    2.178411    0.000598
     13          6           0        2.168201    0.111155   -0.000003
     14          6           0        3.294513    0.951697    0.000103
     15          6           0        4.575582    0.420271   -0.000098
     16          6           0        4.750369   -0.974524   -0.000413
     17          6           0        3.644417   -1.814910   -0.000517
     18          6           0        2.357409   -1.276717   -0.000312
     19          8           0        6.061197   -1.396721   -0.000599
     20          8           0        5.659062    1.249015    0.000011
     21          1           0       -6.264657    1.672820    0.041232
     22          1           0       -7.037026    0.395123   -0.909119
     23          1           0       -7.083145    0.329209    0.853311
     24          1           0       -3.908505    1.546487    0.001295
     25          1           0       -1.829385   -2.211204    0.000140
     26          1           0       -4.019842   -3.403069    0.001437
     27          1           0       -6.134512   -2.113095    0.002390
     28          1           0        1.097479    2.858365    0.000588
     29          1           0        3.197670    2.031880    0.000349
     30          1           0        3.786448   -2.893894   -0.000761
     31          1           0        1.490400   -1.925372   -0.000392
     32          1           0        6.088529   -2.364999   -0.000756
     33          1           0        6.452514    0.686979   -0.000151
 ---------------------------------------------------------------------

 SCF Done:  E(UB3LYP) =  -1221.26530671     A.U. after   33 cycles
 SCF Done:  E(UB3LYP) =  -1221.26530671     a.u. after    1 cycles

 The electronic state is 2-A.
 Alpha  occ. eigenvalues --  -88.72436 -19.08027 -19.05945 -14.15588 -10.13097
 Alpha  occ. eigenvalues --  -10.12974 -10.07561 -10.07542 -10.06913 -10.06706
 Alpha  occ. eigenvalues --  -10.06302 -10.06061 -10.05850 -10.05556 -10.04441
 Alpha  occ. eigenvalues --  -10.04337 -10.04169 -10.03634 -10.03323 -10.03205
 Alpha  occ. eigenvalues --   -7.81129  -5.77412  -5.77066  -5.76758  -0.99316
 Alpha  occ. eigenvalues --   -0.96272  -0.81576  -0.74874  -0.72882  -0.66465
 Alpha  occ. eigenvalues --   -0.65170  -0.64921  -0.63993  -0.62628  -0.58148
 Alpha  occ. eigenvalues --   -0.56651  -0.54094  -0.51227  -0.48743  -0.47118
 Alpha  occ. eigenvalues --   -0.45800  -0.45394  -0.42215  -0.40296  -0.38130
 Alpha  occ. eigenvalues --   -0.37427  -0.36045  -0.34189  -0.33916  -0.33514
 Alpha  occ. eigenvalues --   -0.33466  -0.31586  -0.31422  -0.29998  -0.29724
 Alpha  occ. eigenvalues --   -0.28649  -0.28393  -0.28018  -0.27718  -0.26545
 Alpha  occ. eigenvalues --   -0.25877  -0.24873  -0.24035  -0.22574  -0.22294
 Alpha  occ. eigenvalues --   -0.21754  -0.20876  -0.16373  -0.15057  -0.13580
 Alpha  occ. eigenvalues --   -0.12970  -0.12383  -0.11160  -0.07911   0.03741
 Alpha virt. eigenvalues --    0.05174   0.07731   0.08085   0.08113   0.09132
 Alpha virt. eigenvalues --    0.09522   0.10080   0.10484   0.10747   0.10829
 Alpha virt. eigenvalues --    0.12215   0.12316   0.12852   0.13250   0.14116

  Beta  occ. eigenvalues --  -88.72365 -19.08025 -19.05944 -14.15451 -10.13070
  Beta  occ. eigenvalues --  -10.12967 -10.07501 -10.07298 -10.06885 -10.06786
  Beta  occ. eigenvalues --  -10.06299 -10.06021 -10.05884 -10.05617 -10.04366
  Beta  occ. eigenvalues --  -10.04064 -10.04055 -10.03512 -10.03103 -10.03083
  Beta  occ. eigenvalues --   -7.81066  -5.77382  -5.77037  -5.76518  -0.99302
  Beta  occ. eigenvalues --   -0.96266  -0.81258  -0.74814  -0.72660  -0.66269
  Beta  occ. eigenvalues --   -0.64918  -0.64715  -0.63829  -0.62311  -0.57957
  Beta  occ. eigenvalues --   -0.56440  -0.53928  -0.51118  -0.48335  -0.46995
  Beta  occ. eigenvalues --   -0.45746  -0.45149  -0.42016  -0.40171  -0.38017
  Beta  occ. eigenvalues --   -0.37291  -0.35906  -0.34095  -0.33811  -0.33433
  Beta  occ. eigenvalues --   -0.33385  -0.31487  -0.31381  -0.29948  -0.29622
  Beta  occ. eigenvalues --   -0.28552  -0.28344  -0.27636  -0.27204  -0.26427
  Beta  occ. eigenvalues --   -0.25755  -0.24805  -0.23588  -0.22301  -0.21785
  Beta  occ. eigenvalues --   -0.21643  -0.20700  -0.15704  -0.13659  -0.13108
  Beta  occ. eigenvalues --   -0.12751  -0.11863  -0.10564  -0.06562
  Beta virt. eigenvalues --    0.05165   0.07680   0.08072   0.08211   0.09085
  Beta virt. eigenvalues --    0.09316   0.09490   0.10413   0.10455   0.10791
  Beta virt. eigenvalues --    0.10857   0.12189   0.12536   0.12811   0.13232

 Mulliken charges and spin densities:
               1          2
     1  C   -0.391844   0.012848
     2  C    0.055047  -0.044074
     3  C   -0.753601   0.117636
     4  C    0.764624   0.034012
     5  C   -0.151238   0.110086
     6  C   -0.392307  -0.016162
     7  C   -0.344433   0.197837
     8  C    0.171237   0.131941
     9  N    0.252442   0.069420
    10  C   -0.361137  -0.065137
    11  C    0.313464   0.297794
    12  S   -0.738090   0.113130
    13  C    1.098652   0.022169
    14  C   -0.469331   0.049363
    15  C   -0.665943  -0.007002
    16  C   -0.077662   0.011102
    17  C   -0.171868   0.041653
    18  C   -0.483563  -0.020209
    19  O   -0.331279   0.000910
    20  O   -0.255752   0.001356
    21  H    0.142162   0.000276
    22  H    0.130718   0.003039
    23  H    0.125662   0.003724
    24  H    0.022418  -0.017643
    25  H    0.114148  -0.005571
    26  H    0.126001   0.000770
    27  H    0.097100  -0.016437
    28  H    0.239061  -0.018312
    29  H    0.121137  -0.006383
    30  H    0.121569  -0.003053
    31  H    0.158886   0.000956
    32  H    0.263615  -0.000010
    33  H    0.270104  -0.000029
 Sum of Mulliken charges =  -1.00000   1.00000

 Dipole moment (field-independent basis, Debye):
    X=              4.8042    Y=             -2.3188    Z=             -0.0053  Tot=              5.3345
 Quadrupole moment (field-independent basis, Debye-Ang):
   XX=           -178.1078   YY=           -132.3337   ZZ=           -137.9408
   XY=            -17.4407   XZ=              0.0155   YZ=              0.0030

 Summary of Natural Population Analysis:

                                       Natural Population
                Natural  -----------------------------------------------
    Atom  No    Charge         Core      Valence    Rydberg      Total
 -----------------------------------------------------------------------
      C    1   -0.28806      0.99964     2.28381    0.00461     3.28806
      C    2   -0.03987      0.99953     2.03184    0.00850     3.03987
      C    3   -0.06737      0.99943     2.05988    0.00806     3.06737
      C    4   -0.02563      0.99937     2.01597    0.01029     3.02563
      C    5   -0.06318      0.99945     2.05531    0.00842     3.06318
      C    6   -0.11646      0.99960     2.10724    0.00962     3.11646
      C    7   -0.06727      0.99952     2.05869    0.00905     3.06727
      C    8    0.08203      0.99956     1.90160    0.01680     2.91797
      N    9   -0.23402      0.99963     2.72301    0.01138     3.73402
      C   10    0.02256      0.99949     1.96451    0.01344     2.97744
      C   11   -0.12257      0.99943     2.11288    0.01026     3.12257
      S   12    0.18789      4.99946     2.78994    0.02270     7.81211
      C   13   -0.01247      0.99938     2.00335    0.00974     3.01247
      C   14   -0.10454      0.99944     2.09668    0.00842     3.10454
      C   15    0.13411      0.99936     1.85367    0.01286     2.86589
      C   16    0.11311      0.99935     1.87612    0.01142     2.88689
      C   17   -0.12969      0.99954     2.12142    0.00873     3.12969
      C   18   -0.10996      0.99957     2.10096    0.00943     3.10996
      O   19   -0.36264      0.99987     3.35604    0.00673     4.36264
      O   20   -0.34569      0.99988     3.33924    0.00657     4.34569
      H   21    0.09794      0.00000     0.40114    0.00092     0.40206
      H   22    0.09656      0.00000     0.40242    0.00103     0.40344
      H   23    0.09643      0.00000     0.40254    0.00102     0.40357
      H   24    0.09468      0.00000     0.40415    0.00117     0.40532
      H   25    0.10446      0.00000     0.39402    0.00152     0.39554
      H   26    0.09064      0.00000     0.40819    0.00117     0.40936
      H   27    0.08615      0.00000     0.41241    0.00144     0.41385
      H   28    0.09817      0.00000     0.40068    0.00116     0.40183
      H   29    0.10367      0.00000     0.39455    0.00178     0.39633
      H   30    0.09251      0.00000     0.40635    0.00115     0.40749
      H   31    0.11466      0.00000     0.38420    0.00113     0.38534
      H   32    0.23547      0.00000     0.26216    0.00237     0.26453
      H   33    0.23845      0.00000     0.25903    0.00252     0.26155
 =======================================================================
   * Total *    0.00008     23.99049    49.78400    0.22543    73.99992

 Normal termination of Gaussian 16 at Sat Dec 12 17:58:24 2020.
