 Gaussian 16, Revision A.03,

 -----------------------------------------------------------
 # opt freq B3LYP/6-31G(d) empiricaldispersion=gd3bj scf=xqc
 -----------------------------------------------------------

 ------------------------------
 CID_14416603_JID_2123_neutraal
 ------------------------------
 Symbolic Z-matrix:
 Charge =  0 Multiplicity = 1

 SCF Done:  E(RB3LYP) =  -609.133532759     A.U. after   14 cycles
 SCF Done:  E(RB3LYP) =  -609.140570556     A.U. after   12 cycles
 SCF Done:  E(RB3LYP) =  -609.141056373     A.U. after   11 cycles
 SCF Done:  E(RB3LYP) =  -609.141253421     A.U. after   11 cycles
 SCF Done:  E(RB3LYP) =  -609.141354177     A.U. after   10 cycles
 SCF Done:  E(RB3LYP) =  -609.141438681     A.U. after   11 cycles
 SCF Done:  E(RB3LYP) =  -609.141572753     A.U. after   11 cycles
 SCF Done:  E(RB3LYP) =  -609.141641787     A.U. after   11 cycles
 SCF Done:  E(RB3LYP) =  -609.141660560     A.U. after   10 cycles
 SCF Done:  E(RB3LYP) =  -609.141702534     A.U. after   10 cycles
 SCF Done:  E(RB3LYP) =  -609.141928663     A.U. after   10 cycles
 SCF Done:  E(RB3LYP) =  -609.141928860     A.U. after    7 cycles
 SCF Done:  E(RB3LYP) =  -609.141929180     A.U. after    7 cycles
 SCF Done:  E(RB3LYP) =  -609.141929479     A.U. after    7 cycles
 SCF Done:  E(RB3LYP) =  -609.141929535     A.U. after    7 cycles
 SCF Done:  E(RB3LYP) =  -609.141929563     A.U. after    7 cycles
 Optimization completed.
    -- Stationary point found.
 Normal termination of Gaussian 16 at Wed Dec  9 16:53:48 2020.

 --------------------------------------------------------------------
 #N Geom=AllCheck Guess=TCheck SCRF=Check GenChk RB3LYP/6-31G(d) Freq
 --------------------------------------------------------------------

 Structure from the checkpoint file:  "JID_2123.chk"
 ------------------------------
 CID_14416603_JID_2123_neutraal
 ------------------------------
 Charge =  0 Multiplicity = 1

 SCF Done:  E(RB3LYP) =  -609.141929563     A.U. after    1 cycles

  Exact polarizability: 115.531   3.076 105.619   0.267   4.710  64.371
 Approx polarizability: 155.184   3.774 155.552   1.094   7.490  96.037

                      1                      2                      3
                      A                      A                      A
 Frequencies --     37.9348                51.0691                82.3218
 Red. masses --      3.4589                 3.9920                 2.9082
 Frc consts  --      0.0029                 0.0061                 0.0116
 IR Inten    --      2.4391                 0.9859                 4.8440

                      4                      5                      6
                      A                      A                      A
 Frequencies --    101.0817               114.7596               130.8953
 Red. masses --      2.8409                 1.1117                 2.9582
 Frc consts  --      0.0171                 0.0086                 0.0299
 IR Inten    --      2.3779                 0.6532                 0.9627

                      7                      8                      9
                      A                      A                      A
 Frequencies --    162.7487               171.5664               210.2186
 Red. masses --      1.3241                 3.7749                 2.4954
 Frc consts  --      0.0207                 0.0655                 0.0650
 IR Inten    --      1.3670                 0.7828                 1.7238

                     10                     11                     12
                      A                      A                      A
 Frequencies --    221.4849               266.4922               309.9011
 Red. masses --      3.3366                 2.6587                 3.5293
 Frc consts  --      0.0964                 0.1112                 0.1997
 IR Inten    --      3.0917                 4.7769                17.7549

                     13                     14                     15
                      A                      A                      A
 Frequencies --    333.5072               371.2513               386.2523
 Red. masses --      2.3384                 2.0443                 2.6890
 Frc consts  --      0.1532                 0.1660                 0.2364
 IR Inten    --     28.4313                67.5400                79.3658

                     16                     17                     18
                      A                      A                      A
 Frequencies --    423.4694               443.0719               609.3232
 Red. masses --      1.2643                 4.7556                 4.5824
 Frc consts  --      0.1336                 0.5501                 1.0024
 IR Inten    --    103.9996                22.4985                 9.9394

                     19                     20                     21
                      A                      A                      A
 Frequencies --    616.1885               660.4079               692.0128
 Red. masses --      4.6145                 4.1258                 6.4268
 Frc consts  --      1.0323                 1.0602                 1.8133
 IR Inten    --      5.2572                14.8923                13.1402

                     22                     23                     24
                      A                      A                      A
 Frequencies --    716.4130               795.0469               894.0234
 Red. masses --      7.8029                 5.7402                 4.6016
 Frc consts  --      2.3596                 2.1378                 2.1670
 IR Inten    --      7.0360                18.2088                 1.5104

                     25                     26                     27
                      A                      A                      A
 Frequencies --    979.5146              1004.9867              1056.8264
 Red. masses --      1.8973                 1.8813                 5.2753
 Frc consts  --      1.0725                 1.1195                 3.4714
 IR Inten    --     22.1811                18.7430               102.9445

                     28                     29                     30
                      A                      A                      A
 Frequencies --   1069.0758              1078.0852              1095.5102
 Red. masses --      5.2854                 4.2019                 2.2832
 Frc consts  --      3.5591                 2.8774                 1.6145
 IR Inten    --     84.4221                90.6057                37.6001

                     31                     32                     33
                      A                      A                      A
 Frequencies --   1161.9421              1191.2442              1193.1781
 Red. masses --      1.2912                 1.2645                 1.8603
 Frc consts  --      1.0271                 1.0572                 1.5604
 IR Inten    --      0.1704                 0.8222                26.7583

                     34                     35                     36
                      A                      A                      A
 Frequencies --   1221.7801              1226.8979              1244.1117
 Red. masses --      1.4760                 1.1548                 1.9116
 Frc consts  --      1.2982                 1.0242                 1.7433
 IR Inten    --      0.7117                20.0128                55.2535

                     37                     38                     39
                      A                      A                      A
 Frequencies --   1273.9400              1347.8921              1356.9965
 Red. masses --      2.6529                 4.9411                 1.6827
 Frc consts  --      2.5367                 5.2891                 1.8256
 IR Inten    --     19.6351                39.3943                36.6013

                     40                     41                     42
                      A                      A                      A
 Frequencies --   1372.0685              1415.0780              1452.9116
 Red. masses --      1.2450                 1.7252                 1.7396
 Frc consts  --      1.3809                 2.0354                 2.1635
 IR Inten    --      5.3630                13.1738               122.9102

                     43                     44                     45
                      A                      A                      A
 Frequencies --   1459.2853              1467.6976              1480.3571
 Red. masses --      1.3548                 1.5436                 1.2041
 Frc consts  --      1.6999                 1.9592                 1.5547
 IR Inten    --    122.9458                54.7109                16.6647

                     46                     47                     48
                      A                      A                      A
 Frequencies --   1508.4838              1521.5378              1522.9189
 Red. masses --      1.0479                 1.0464                 1.3330
 Frc consts  --      1.4049                 1.4273                 1.8215
 IR Inten    --      5.7025                 8.2045                63.8159

                     49                     50                     51
                      A                      A                      A
 Frequencies --   1533.2557              1539.4068              1544.5817
 Red. masses --      1.1144                 1.0916                 1.0937
 Frc consts  --      1.5435                 1.5242                 1.5373
 IR Inten    --     29.6317                 0.9899                 0.9660

                     52                     53                     54
                      A                      A                      A
 Frequencies --   1558.0406              1615.8223              1651.1811
 Red. masses --      1.9455                 5.4457                 8.3970
 Frc consts  --      2.7826                 8.3770                13.4885
 IR Inten    --     53.9403               305.9256                11.8040

                     55                     56                     57
                      A                      A                      A
 Frequencies --   2966.6646              2993.2701              3060.7934
 Red. masses --      1.0742                 1.0715                 1.0364
 Frc consts  --      5.5702                 5.6566                 5.7209
 IR Inten    --     78.3707                63.5747                59.2832

                     58                     59                     60
                      A                      A                      A
 Frequencies --   3068.0230              3071.8793              3118.0494
 Red. masses --      1.0299                 1.0903                 1.1060
 Frc consts  --      5.7117                 6.0617                 6.3355
 IR Inten    --     43.0976                26.7842                20.5163

                     61                     62                     63
                      A                      A                      A
 Frequencies --   3127.3073              3139.8299              3179.0309
 Red. masses --      1.0893                 1.1076                 1.1065
 Frc consts  --      6.2767                 6.4335                 6.5888
 IR Inten    --     17.8218                23.7541                21.3285

                     64                     65                     66
                      A                      A                      A
 Frequencies --   3181.0788              3705.0436              3729.6985
 Red. masses --      1.0998                 1.0655                 1.0659
 Frc consts  --      6.5571                 8.6179                 8.7360
 IR Inten    --      2.1218                26.9953                10.1247

 - Thermochemistry -
 -------------------
 Temperature   298.150 Kelvin.  Pressure   1.00000 Atm.
 Atom     1 has atomic number  6 and mass  12.00000

 Molecular mass:   172.08479 amu.
 Principal axes and moments of inertia in atomic units:
                           1         2         3
     Eigenvalues --  1555.572472389.021893762.84262
           X            0.99973   0.02306   0.00022
           Y           -0.02306   0.99963   0.01428
           Z            0.00011  -0.01429   0.99990
 This molecule is an asymmetric top.
 Rotational symmetry number  1.
 Warning -- assumption of classical behavior for rotation
           may cause significant error
 Rotational temperatures (Kelvin)      0.05568     0.03625     0.02302
 Rotational constants (GHZ):           1.16018     0.75543     0.47962
 Zero-point vibrational energy     522090.5 (Joules/Mol)
                                  124.78263 (Kcal/Mol)
 Warning -- explicit consideration of  19 degrees of freedom as
           vibrations may cause significant error
 Vibrational temperatures:     54.58    73.48   118.44   145.43   165.11
          (Kelvin)            188.33   234.16   246.85   302.46   318.67
                              383.42   445.88   479.84   534.15   555.73
                              609.28   637.48   876.68   886.56   950.18
                              995.65  1030.76  1143.90  1286.30  1409.30
                             1445.95  1520.54  1538.16  1551.12  1576.19
                             1671.78  1713.93  1716.72  1757.87  1765.23
                             1790.00  1832.92  1939.32  1952.42  1974.10
                             2035.98  2090.42  2099.59  2111.69  2129.90
                             2170.37  2189.15  2191.14  2206.01  2214.86
                             2222.31  2241.67  2324.81  2375.68  4268.37
                             4306.65  4403.80  4414.20  4419.75  4486.18
                             4499.50  4517.51  4573.92  4576.86  5330.73
                             5366.20

 Zero-point correction=                           0.198854 (Hartree/Particle)
 Thermal correction to Energy=                    0.212218
 Thermal correction to Enthalpy=                  0.213162
 Thermal correction to Gibbs Free Energy=         0.158071
 Sum of electronic and zero-point Energies=           -608.943076
 Sum of electronic and thermal Energies=              -608.929712
 Sum of electronic and thermal Enthalpies=            -608.928768
 Sum of electronic and thermal Free Energies=         -608.983859

                     E (Thermal)             CV                S
                      KCal/Mol        Cal/Mol-Kelvin    Cal/Mol-Kelvin
 Total                  133.169             46.358            115.949
 Electronic               0.000              0.000              0.000
 Translational            0.889              2.981             41.336
 Rotational               0.889              2.981             31.015
 Vibrational            131.391             40.396             43.598
 Vibration     1          0.594              1.982              5.364
 Vibration     2          0.595              1.977              4.776
 Vibration     3          0.600              1.961              3.835
 Vibration     4          0.604              1.948              3.433
 Vibration     5          0.608              1.937              3.187
 Vibration     6          0.612              1.922              2.933
 Vibration     7          0.623              1.888              2.518
 Vibration     8          0.626              1.877              2.418
 Vibration     9          0.642              1.825              2.042
 Vibration    10          0.648              1.808              1.947
 Vibration    11          0.672              1.735              1.619
 Vibration    12          0.699              1.655              1.363
 Vibration    13          0.715              1.609              1.243
 Vibration    14          0.743              1.531              1.075
 Vibration    15          0.755              1.500              1.015
 Vibration    16          0.786              1.419              0.880
 Vibration    17          0.803              1.376              0.817
 Vibration    18          0.968              1.012              0.434
 Vibration    19          0.976              0.998              0.423

 Optimization completed.
    -- Stationary point found.
 Normal termination of Gaussian 16 at Wed Dec  9 16:58:36 2020.

 ----------------------------------------------------------------------
 # B3LYP/6-311++G(d,p) empiricaldispersion=gd3bj scf=xqc pop=npa geom=c
 heck
 ----------------------------------------------------------------------

 --------------------------------------
 CID_14416603_JID_2123_Energie_neutraal
 --------------------------------------
 Structure from the checkpoint file:  "JID_2123.chk"
 Charge =  0 Multiplicity = 1

 SCF Done:  E(RB3LYP) =  -609.335202879     A.U. after   14 cycles
 Normal termination of Gaussian 16 at Wed Dec  9 17:00:46 2020.

 ----------------------------------------------------------------------
 # B3LYP/6-311++G(d,p) empiricaldispersion=gd3bj scf=xqc pop=npa geom=c
 heck
 ----------------------------------------------------------------------

 ------------------------------------
 CID_14416603_JID_2123_Energie_kation
 ------------------------------------
 Structure from the checkpoint file:  "JID_2123.chk"
 Charge =  1 Multiplicity = 2

 SCF Done:  E(UB3LYP) =  -609.047988104     A.U. after   21 cycles
 Normal termination of Gaussian 16 at Wed Dec  9 17:04:07 2020.
 Gaussian 16:  ES64L-G16RevA.03 25-Dec-2016

 ----------------------------------------------------------------------
 # B3LYP/6-311++G(d,p) empiricaldispersion=gd3bj scf=xqc pop=npa geom=c
 heck
 ----------------------------------------------------------------------

 -----------------------------------
 CID_14416603_JID_2123_Energie_anion
 -----------------------------------
 Structure from the checkpoint file:  "JID_2123.chk"
 Charge = -1 Multiplicity = 2

                         Standard orientation:
 ---------------------------------------------------------------------
 Center     Atomic      Atomic             Coordinates (Angstroms)
 Number     Number       Type             X           Y           Z
 ---------------------------------------------------------------------
      1          6           0        0.887003   -2.547026   -0.321487
      2          7           0        0.490769   -1.164015   -0.133035
      3          6           0       -0.810118   -0.632158   -0.121700
      4          6           0       -0.648438    0.714784    0.080651
      5          7           0        0.699214    1.037097    0.192064
      6          6           0        1.329805   -0.104535    0.050378
      7          8           0        2.654932   -0.318202    0.071761
      8          6           0        3.444679    0.863344    0.253629
      9          6           0       -1.654231    1.822382    0.177764
     10          8           0       -1.263621    2.935831   -0.615873
     11          6           0       -2.043705   -1.462199   -0.294842
     12          8           0       -3.095575   -1.061821    0.579606
     13          1           0        0.486764   -3.180942    0.476799
     14          1           0        0.535032   -2.925437   -1.286563
     15          1           0        1.975778   -2.594201   -0.297849
     16          1           0        3.196338    1.347874    1.202319
     17          1           0        4.481138    0.524692    0.253350
     18          1           0        3.269843    1.570440   -0.562555
     19          1           0       -2.632429    1.483355   -0.171199
     20          1           0       -1.770062    2.126086    1.233057
     21          1           0       -0.302662    3.013258   -0.487133
     22          1           0       -2.462941   -1.356836   -1.302334
     23          1           0       -1.799260   -2.528990   -0.163592
     24          1           0       -2.703281   -0.964895    1.462186
 ---------------------------------------------------------------------

 SCF Done:  E(UB3LYP) =  -609.325423703     A.U. after   31 cycles

 The electronic state is 2-A.
 Alpha  occ. eigenvalues --  -19.07139 -19.02735 -19.01886 -14.26853 -14.19462
 Alpha  occ. eigenvalues --  -10.18294 -10.12966 -10.12930 -10.11721 -10.10588
 Alpha  occ. eigenvalues --  -10.10002 -10.08948  -1.00057  -0.93028  -0.92286
 Alpha  occ. eigenvalues --   -0.90581  -0.79380  -0.67863  -0.63267  -0.62072
 Alpha  occ. eigenvalues --   -0.60346  -0.54576  -0.49037  -0.47440  -0.44506
 Alpha  occ. eigenvalues --   -0.40732  -0.39798  -0.39196  -0.38674  -0.36301
 Alpha  occ. eigenvalues --   -0.35727  -0.34134  -0.33805  -0.33328  -0.31274
 Alpha  occ. eigenvalues --   -0.30717  -0.29712  -0.26607  -0.25416  -0.24654
 Alpha  occ. eigenvalues --   -0.22888  -0.19928  -0.18684  -0.17533  -0.17133
 Alpha  occ. eigenvalues --   -0.10925   0.04268
 Alpha virt. eigenvalues --    0.06397   0.07246   0.08542   0.09480   0.09559
 Alpha virt. eigenvalues --    0.10542   0.10750   0.11108   0.12284   0.12521
 Alpha virt. eigenvalues --    0.12843   0.13445   0.13965   0.14895   0.16296

  Beta  occ. eigenvalues --  -19.07129 -19.02707 -19.01884 -14.26848 -14.19451
  Beta  occ. eigenvalues --  -10.18292 -10.12934 -10.12900 -10.11714 -10.10517
  Beta  occ. eigenvalues --  -10.10002 -10.08937  -1.00042  -0.92974  -0.92275
  Beta  occ. eigenvalues --   -0.90564  -0.79358  -0.67831  -0.63197  -0.62027
  Beta  occ. eigenvalues --   -0.60272  -0.54529  -0.49009  -0.47398  -0.44459
  Beta  occ. eigenvalues --   -0.40667  -0.39763  -0.39164  -0.38632  -0.36259
  Beta  occ. eigenvalues --   -0.35681  -0.34093  -0.33763  -0.33290  -0.31249
  Beta  occ. eigenvalues --   -0.30663  -0.29667  -0.26574  -0.25385  -0.24637
  Beta  occ. eigenvalues --   -0.22864  -0.19881  -0.18649  -0.17514  -0.17099
  Beta  occ. eigenvalues --   -0.10888
  Beta virt. eigenvalues --    0.06700   0.07424   0.08068   0.09063   0.09899
  Beta virt. eigenvalues --    0.10281   0.10800   0.11245   0.11451   0.12553
  Beta virt. eigenvalues --    0.12714   0.13388   0.13678   0.14203   0.14946

 Mulliken charges and spin densities:
               1          2
     1  C    2.241346  -2.604069
     2  N   -0.394511   0.294660
     3  C    0.199459   0.431974
     4  C   -1.652691   1.315250
     5  N   -0.142739   0.047789
     6  C   -0.402455   0.526257
     7  O   -0.235742   0.053878
     8  C    0.669686  -0.924155
     9  C   -0.496422  -0.066271
    10  O   -0.276453   0.006332
    11  C    1.987398  -2.629881
    12  O   -0.248062   0.026191
    13  H   -0.878974   1.081529
    14  H   -0.572981   0.755300
    15  H   -0.219548   0.400741
    16  H   -0.133436   0.308661
    17  H   -0.468882   0.619075
    18  H   -0.056478   0.225913
    19  H    0.157660   0.043322
    20  H   -0.005248   0.170612
    21  H    0.249648   0.004550
    22  H    0.008077   0.175081
    23  H   -0.294486   0.471909
    24  H   -0.034165   0.265353
 Sum of Mulliken charges =  -1.00000   1.00000

 Dipole moment (field-independent basis, Debye):
    X=             -0.7747    Y=              4.9455    Z=             -0.6071  Tot=              5.0425
 Quadrupole moment (field-independent basis, Debye-Ang):
   XX=           -128.3654   YY=           -132.2743   ZZ=            -98.3705
   XY=              3.7519   XZ=             -0.1168   YZ=              3.5024

 Summary of Natural Population Analysis:

                                       Natural Population
                Natural  -----------------------------------------------
    Atom  No    Charge         Core      Valence    Rydberg      Total
 -----------------------------------------------------------------------
      C    1   -0.17960      0.99963     2.17069    0.00929     3.17960
      N    2   -0.21360      0.99960     2.70275    0.01125     3.71360
      C    3    0.03839      0.99943     1.94921    0.01296     2.96161
      C    4    0.04563      0.99948     1.93959    0.01529     2.95437
      N    5   -0.30657      0.99965     2.79728    0.00964     3.80657
      C    6    0.35896      0.99949     1.62273    0.01882     2.64104
      O    7   -0.27126      0.99985     3.26248    0.00892     4.27126
      C    8   -0.09522      0.99959     2.08773    0.00790     3.09522
      C    9   -0.01941      0.99955     2.00785    0.01201     3.01941
      O   10   -0.37215      0.99990     3.36586    0.00639     4.37215
      C   11   -0.02379      0.99957     2.01066    0.01357     3.02379
      O   12   -0.36644      0.99990     3.35988    0.00666     4.36644
      H   13    0.10558      0.00000     0.38846    0.00596     0.39442
      H   14    0.09921      0.00000     0.39869    0.00210     0.40079
      H   15    0.11280      0.00000     0.38458    0.00263     0.38720
      H   16    0.09002      0.00000     0.40797    0.00201     0.40998
      H   17    0.09203      0.00000     0.40633    0.00164     0.40797
      H   18    0.08793      0.00000     0.41026    0.00182     0.41207
      H   19    0.09633      0.00000     0.40216    0.00151     0.40367
      H   20    0.07806      0.00000     0.42035    0.00159     0.42194
      H   21    0.23365      0.00000     0.26293    0.00343     0.26635
      H   22    0.09113      0.00000     0.40754    0.00133     0.40887
      H   23    0.08845      0.00000     0.40921    0.00234     0.41155
      H   24    0.22985      0.00000     0.26563    0.00452     0.27015
 =======================================================================
   * Total *   -0.00000     11.99566    33.84078    0.16356    46.00000

 Normal termination of Gaussian 16 at Wed Dec  9 17:09:40 2020.
