 Gaussian 16, Revision A.03,

 -----------------------------------------------------------
 # opt freq B3LYP/6-31G(d) empiricaldispersion=gd3bj scf=xqc
 -----------------------------------------------------------

 ------------------------------
 CID_82319228_JID_9989_neutraal
 ------------------------------
 Symbolic Z-matrix:
 Charge =  0 Multiplicity = 1

 SCF Done:  E(RB3LYP) =  -880.797173140     A.U. after   15 cycles
 SCF Done:  E(RB3LYP) =  -880.804022591     A.U. after   13 cycles
 SCF Done:  E(RB3LYP) =  -880.805122257     A.U. after   13 cycles
 SCF Done:  E(RB3LYP) =  -880.806433307     A.U. after   13 cycles
 SCF Done:  E(RB3LYP) =  -880.806750427     A.U. after   14 cycles
 SCF Done:  E(RB3LYP) =  -880.808080448     A.U. after   12 cycles
 SCF Done:  E(RB3LYP) =  -880.808626122     A.U. after   13 cycles
 SCF Done:  E(RB3LYP) =  -880.808798641     A.U. after   14 cycles
 SCF Done:  E(RB3LYP) =  -880.809762832     A.U. after   13 cycles
 SCF Done:  E(RB3LYP) =  -880.810183996     A.U. after   12 cycles
 SCF Done:  E(RB3LYP) =  -880.812399921     A.U. after    9 cycles
 SCF Done:  E(RB3LYP) =  -880.812401911     A.U. after    8 cycles
 SCF Done:  E(RB3LYP) =  -880.812402781     A.U. after    8 cycles
 SCF Done:  E(RB3LYP) =  -880.812403158     A.U. after    8 cycles
 SCF Done:  E(RB3LYP) =  -880.812403274     A.U. after    7 cycles
 Optimization completed.
    -- Stationary point found.
 Normal termination of Gaussian 16 at Sun Dec 13 20:58:50 2020.

 --------------------------------------------------------------------
 #N Geom=AllCheck Guess=TCheck SCRF=Check GenChk RB3LYP/6-31G(d) Freq
 --------------------------------------------------------------------

 Structure from the checkpoint file:  "JID_9989.chk"
 ------------------------------
 CID_82319228_JID_9989_neutraal
 ------------------------------
 Charge =  0 Multiplicity = 1

 SCF Done:  E(RB3LYP) =  -880.812403274     A.U. after    1 cycles

  Exact polarizability: 237.996  -1.359 172.594   4.488  14.644 106.741
 Approx polarizability: 321.580  13.438 270.336  13.280  35.081 169.238

                      1                      2                      3
                      A                      A                      A
 Frequencies --     31.0463                39.0307                47.1759
 Red. masses --      6.6629                 4.6141                 6.0751
 Frc consts  --      0.0038                 0.0041                 0.0080
 IR Inten    --      5.1993                 5.1750                 1.6959

                      4                      5                      6
                      A                      A                      A
 Frequencies --     60.2769                73.4127                91.6755
 Red. masses --      3.8621                 3.4375                 7.0479
 Frc consts  --      0.0083                 0.0109                 0.0349
 IR Inten    --      2.7811                 2.0429                 0.9152

                      7                      8                      9
                      A                      A                      A
 Frequencies --    103.1270               109.6362               157.0069
 Red. masses --      3.8908                 4.3087                 4.7343
 Frc consts  --      0.0244                 0.0305                 0.0688
 IR Inten    --      1.7708                 2.1829                 0.5378

                     10                     11                     12
                      A                      A                      A
 Frequencies --    176.0978               197.8407               237.1981
 Red. masses --      4.7330                 3.6682                 1.0939
 Frc consts  --      0.0865                 0.0846                 0.0363
 IR Inten    --      7.9755                 6.4621                 0.2515

                     13                     14                     15
                      A                      A                      A
 Frequencies --    246.5027               266.3057               284.6861
 Red. masses --      3.6600                 2.3651                 3.0619
 Frc consts  --      0.1310                 0.0988                 0.1462
 IR Inten    --      0.8267                 0.2765                 9.6879

                     16                     17                     18
                      A                      A                      A
 Frequencies --    298.2175               321.9050               347.3928
 Red. masses --      1.4033                 3.2010                 3.1059
 Frc consts  --      0.0735                 0.1954                 0.2208
 IR Inten    --      3.3123                 1.7648                 0.2078

                     19                     20                     21
                      A                      A                      A
 Frequencies --    358.9632               400.0764               418.1786
 Red. masses --      3.8216                 2.5210                 1.3063
 Frc consts  --      0.2901                 0.2377                 0.1346
 IR Inten    --      2.7554                 3.5937               172.5373

                     22                     23                     24
                      A                      A                      A
 Frequencies --    420.8068               427.2432               447.7055
 Red. masses --      2.6594                 2.5836                 2.3083
 Frc consts  --      0.2775                 0.2779                 0.2726
 IR Inten    --      7.2645                 8.9830                 2.3007

                     25                     26                     27
                      A                      A                      A
 Frequencies --    492.7598               500.8786               529.1380
 Red. masses --      2.3301                 3.1900                 2.2539
 Frc consts  --      0.3333                 0.4715                 0.3718
 IR Inten    --     18.2015                17.3210                17.7683

                     28                     29                     30
                      A                      A                      A
 Frequencies --    545.1423               573.8590               576.8067
 Red. masses --      3.1367                 1.6235                 3.9853
 Frc consts  --      0.5492                 0.3150                 0.7812
 IR Inten    --     46.4319                26.2372                14.9213

                     31                     32                     33
                      A                      A                      A
 Frequencies --    608.7299               656.0180               686.0626
 Red. masses --      3.9296                 6.7174                 3.5938
 Frc consts  --      0.8579                 1.7033                 0.9966
 IR Inten    --     20.7625                 0.6096                 4.2760

                     34                     35                     36
                      A                      A                      A
 Frequencies --    713.5331               720.5318               778.6984
 Red. masses --      3.8215                 3.6602                 4.6837
 Frc consts  --      1.1464                 1.1196                 1.6733
 IR Inten    --     14.1225                24.0786                38.2343

                     37                     38                     39
                      A                      A                      A
 Frequencies --    795.5551               818.7468               821.1114
 Red. masses --      4.4217                 2.4108                 3.1966
 Frc consts  --      1.6489                 0.9522                 1.2698
 IR Inten    --      3.3124                 9.6200                 6.4063

                     40                     41                     42
                      A                      A                      A
 Frequencies --    838.5181               863.8250               880.5737
 Red. masses --      1.3184                 1.7156                 1.9683
 Frc consts  --      0.5462                 0.7542                 0.8992
 IR Inten    --     15.0883                28.8825                18.0512

                     43                     44                     45
                      A                      A                      A
 Frequencies --    891.8909               923.8021               943.1369
 Red. masses --      1.1501                 2.0262                 1.2917
 Frc consts  --      0.5390                 1.0188                 0.6770
 IR Inten    --     56.8616                24.5395                 1.8256

                     46                     47                     48
                      A                      A                      A
 Frequencies --    960.1821               962.2789               975.1482
 Red. masses --      1.8348                 1.3462                 1.7315
 Frc consts  --      0.9967                 0.7344                 0.9701
 IR Inten    --     10.8201                 0.3056                 8.3670

                     49                     50                     51
                      A                      A                      A
 Frequencies --    985.0955               988.7804              1009.7376
 Red. masses --      1.5660                 1.3434                 2.2144
 Frc consts  --      0.8954                 0.7738                 1.3302
 IR Inten    --      0.4150                 2.1730                45.3730

                     52                     53                     54
                      A                      A                      A
 Frequencies --   1034.6492              1096.5360              1102.3057
 Red. masses --      2.9761                 2.3522                 1.9523
 Frc consts  --      1.8771                 1.6663                 1.3976
 IR Inten    --      4.6656                 2.0739                12.0054

                     55                     56                     57
                      A                      A                      A
 Frequencies --   1139.3092              1154.5656              1160.2889
 Red. masses --      2.8365                 2.4189                 1.9673
 Frc consts  --      2.1693                 1.8998                 1.5604
 IR Inten    --     19.9592                18.9332                 2.1206

                     58                     59                     60
                      A                      A                      A
 Frequencies --   1166.0276              1197.2164              1214.0738
 Red. masses --      1.5869                 2.0173                 1.7613
 Frc consts  --      1.2712                 1.7036                 1.5296
 IR Inten    --      7.1067                91.8126                 6.7719

                     61                     62                     63
                      A                      A                      A
 Frequencies --   1231.0604              1233.9915              1247.3221
 Red. masses --      2.0133                 1.2334                 1.9289
 Frc consts  --      1.7977                 1.1065                 1.7681
 IR Inten    --    129.8841                40.8647                39.8440

                     64                     65                     66
                      A                      A                      A
 Frequencies --   1288.1461              1301.3338              1349.6526
 Red. masses --      1.6722                 1.4016                 4.1955
 Frc consts  --      1.6348                 1.3985                 4.5028
 IR Inten    --     54.6675                 7.5712                32.6862

                     67                     68                     69
                      A                      A                      A
 Frequencies --   1353.1323              1357.4733              1371.9688
 Red. masses --      1.3434                 1.2938                 1.7381
 Frc consts  --      1.4493                 1.4047                 1.9275
 IR Inten    --      0.7818                 0.8140                 4.3169

                     70                     71                     72
                      A                      A                      A
 Frequencies --   1383.3616              1390.5908              1408.7039
 Red. masses --      2.7578                 1.6713                 1.3209
 Frc consts  --      3.1094                 1.9041                 1.5444
 IR Inten    --    254.6657                94.1113                 9.1739

                     73                     74                     75
                      A                      A                      A
 Frequencies --   1422.6912              1430.3841              1435.3836
 Red. masses --      1.3215                 1.4362                 1.3461
 Frc consts  --      1.5759                 1.7313                 1.6340
 IR Inten    --      3.9846                40.6782                26.1697

                     76                     77                     78
                      A                      A                      A
 Frequencies --   1454.0433              1457.4388              1468.5270
 Red. masses --      1.3661                 1.2827                 2.9788
 Frc consts  --      1.7017                 1.6053                 3.7850
 IR Inten    --    160.0295                51.7076                 2.0152

                     79                     80                     81
                      A                      A                      A
 Frequencies --   1495.2491              1516.9333              1525.0012
 Red. masses --      1.0855                 1.0440                 1.0545
 Frc consts  --      1.4298                 1.4154                 1.4449
 IR Inten    --      9.6586                 0.7864                 1.3262

                     82                     83                     84
                      A                      A                      A
 Frequencies --   1535.3627              1538.6190              1541.1274
 Red. masses --      1.0576                 1.0650                 1.0725
 Frc consts  --      1.4689                 1.4854                 1.5008
 IR Inten    --     12.9435                 2.6172                 6.1909

                     85                     86                     87
                      A                      A                      A
 Frequencies --   1543.3804              1564.4991              1621.2695
 Red. masses --      1.0746                 2.4102                 6.6437
 Frc consts  --      1.5082                 3.4758                10.2890
 IR Inten    --     24.9731                83.9227                 2.2197

                     88                     89                     90
                      A                      A                      A
 Frequencies --   1648.0910              1669.7702              1785.8356
 Red. masses --      1.2493                 5.6443                 8.1692
 Frc consts  --      1.9993                 9.2721                15.3502
 IR Inten    --    165.4022               200.1813               274.6869

                     91                     92                     93
                      A                      A                      A
 Frequencies --   1874.4668              3023.9583              3037.2874
 Red. masses --      9.0916                 1.0823                 1.0695
 Frc consts  --     18.8211                 5.8309                 5.8128
 IR Inten    --    442.5289                13.0320                26.8181

                     94                     95                     96
                      A                      A                      A
 Frequencies --   3044.0973              3049.6248              3052.2628
 Red. masses --      1.0391                 1.0724                 1.0372
 Frc consts  --      5.6734                 5.8760                 5.6930
 IR Inten    --     39.7310                38.8024                13.3796

                     97                     98                     99
                      A                      A                      A
 Frequencies --   3060.5243              3107.3338              3114.4255
 Red. masses --      1.0695                 1.1015                 1.1014
 Frc consts  --      5.9023                 6.2662                 6.2941
 IR Inten    --     19.4555                15.9999                31.0929

                    100                    101                    102
                      A                      A                      A
 Frequencies --   3121.2012              3127.2101              3128.2591
 Red. masses --      1.1019                 1.0954                 1.0982
 Frc consts  --      6.3245                 6.3118                 6.3321
 IR Inten    --     31.9740                29.8800                37.2423

                    103                    104                    105
                      A                      A                      A
 Frequencies --   3134.5271              3153.1111              3195.4033
 Red. masses --      1.0935                 1.0919                 1.0876
 Frc consts  --      6.3300                 6.3959                 6.5430
 IR Inten    --      7.1344                11.5253                12.0443

                    106                    107                    108
                      A                      A                      A
 Frequencies --   3215.8808              3224.5304              3253.0106
 Red. masses --      1.0931                 1.0895                 1.0906
 Frc consts  --      6.6603                 6.6741                 6.7998
 IR Inten    --      7.4672                 0.1756                 9.7274

                    109                    110                    111
                      A                      A                      A
 Frequencies --   3346.7114              3580.1400              3698.4094
 Red. masses --      1.0688                 1.0461                 1.1022
 Frc consts  --      7.0532                 7.8998                 8.8824
 IR Inten    --    760.9474                39.0514                25.4135

 - Thermochemistry -
 -------------------
 Temperature   298.150 Kelvin.  Pressure   1.00000 Atm.
 Atom     1 has atomic number  6 and mass  12.00000

 Molecular mass:   264.14739 amu.
 Principal axes and moments of inertia in atomic units:
                           1         2         3
     Eigenvalues --  3563.218088738.01687**********
           X            0.99915  -0.04128  -0.00181
           Y            0.04129   0.99909   0.01030
           Z            0.00138  -0.01036   0.99995
 This molecule is an asymmetric top.
 Rotational symmetry number  1.
 Warning -- assumption of classical behavior for rotation
           may cause significant error
 Rotational temperatures (Kelvin)      0.02431     0.00991     0.00753
 Rotational constants (GHZ):           0.50649     0.20654     0.15688
 Zero-point vibrational energy     873152.8 (Joules/Mol)
                                  208.68852 (Kcal/Mol)
 Warning -- explicit consideration of  31 degrees of freedom as
           vibrations may cause significant error
 Vibrational temperatures:     44.67    56.16    67.88    86.73   105.62
          (Kelvin)            131.90   148.38   157.74   225.90   253.37
                              284.65   341.28   354.66   383.15   409.60
                              429.07   463.15   499.82   516.47   575.62
                              601.67   605.45   614.71   644.15   708.97
                              720.65   761.31   784.34   825.66   829.90
                              875.83   943.86   987.09  1026.62  1036.68
                             1120.37  1144.63  1177.99  1181.40  1206.44
                             1242.85  1266.95  1283.23  1329.15  1356.96
                             1381.49  1384.50  1403.02  1417.33  1422.63
                             1452.79  1488.63  1577.67  1585.97  1639.21
                             1661.16  1669.40  1677.65  1722.53  1746.78
                             1771.22  1775.44  1794.62  1853.35  1872.33
                             1941.85  1946.86  1953.10  1973.96  1990.35
                             2000.75  2026.81  2046.94  2058.00  2065.20
                             2092.04  2096.93  2112.88  2151.33  2182.53
                             2194.14  2209.04  2213.73  2217.34  2220.58
                             2250.97  2332.65  2371.24  2402.43  2569.42
                             2696.94  4350.80  4369.98  4379.78  4387.73
                             4391.53  4403.41  4470.76  4480.96  4490.71
                             4499.36  4500.87  4509.89  4536.62  4597.47
                             4626.94  4639.38  4680.36  4815.17  5151.02
                             5321.19

 Zero-point correction=                           0.332566 (Hartree/Particle)
 Thermal correction to Energy=                    0.351540
 Thermal correction to Enthalpy=                  0.352484
 Thermal correction to Gibbs Free Energy=         0.284364
 Sum of electronic and zero-point Energies=           -880.479837
 Sum of electronic and thermal Energies=              -880.460864
 Sum of electronic and thermal Enthalpies=            -880.459919
 Sum of electronic and thermal Free Energies=         -880.528039

                     E (Thermal)             CV                S
                      KCal/Mol        Cal/Mol-Kelvin    Cal/Mol-Kelvin
 Total                  220.594             72.476            143.370
 Electronic               0.000              0.000              0.000
 Translational            0.889              2.981             42.613
 Rotational               0.889              2.981             34.237
 Vibrational            218.817             66.514             66.520
 Vibration     1          0.594              1.983              5.761
 Vibration     2          0.594              1.981              5.308
 Vibration     3          0.595              1.979              4.932
 Vibration     4          0.597              1.973              4.448
 Vibration     5          0.599              1.967              4.060
 Vibration     6          0.602              1.955              3.624
 Vibration     7          0.605              1.947              3.394
 Vibration     8          0.606              1.941              3.275
 Vibration     9          0.621              1.895              2.586
 Vibration    10          0.628              1.872              2.369
 Vibration    11          0.637              1.843              2.153
 Vibration    12          0.656              1.784              1.824
 Vibration    13          0.661              1.769              1.755
 Vibration    14          0.672              1.735              1.620
 Vibration    15          0.683              1.702              1.505
 Vibration    16          0.691              1.677              1.427
 Vibration    17          0.707              1.632              1.300
 Vibration    18          0.725              1.581              1.178
 Vibration    19          0.734              1.557              1.127
 Vibration    20          0.766              1.470              0.962
 Vibration    21          0.781              1.431              0.898
 Vibration    22          0.783              1.425              0.889
 Vibration    23          0.789              1.411              0.868
 Vibration    24          0.807              1.366              0.803
 Vibration    25          0.848              1.266              0.676
 Vibration    26          0.856              1.248              0.656
 Vibration    27          0.884              1.186              0.589
 Vibration    28          0.900              1.150              0.554
 Vibration    29          0.930              1.088              0.497
 Vibration    30          0.933              1.081              0.491
 Vibration    31          0.968              1.013              0.435

 Optimization completed.
    -- Stationary point found.
 Normal termination of Gaussian 16 at Sun Dec 13 21:17:22 2020.

 ----------------------------------------------------------------------
 # B3LYP/6-311++G(d,p) empiricaldispersion=gd3bj scf=xqc pop=npa geom=c
 heck
 ----------------------------------------------------------------------

 --------------------------------------
 CID_82319228_JID_9989_Energie_neutraal
 --------------------------------------
 Structure from the checkpoint file:  "JID_9989.chk"
 Charge =  0 Multiplicity = 1

 SCF Done:  E(RB3LYP) =  -881.075161862     A.U. after   15 cycles
 Normal termination of Gaussian 16 at Sun Dec 13 21:26:07 2020.

 ----------------------------------------------------------------------
 # B3LYP/6-311++G(d,p) empiricaldispersion=gd3bj scf=xqc pop=npa geom=c
 heck
 ----------------------------------------------------------------------

 ------------------------------------
 CID_82319228_JID_9989_Energie_kation
 ------------------------------------
 Structure from the checkpoint file:  "JID_9989.chk"
 Charge =  1 Multiplicity = 2

 SCF Done:  E(UB3LYP) =  -880.780964286     A.U. after   23 cycles
 Normal termination of Gaussian 16 at Sun Dec 13 21:45:10 2020.
 Gaussian 16:  ES64L-G16RevA.03 25-Dec-2016

 ----------------------------------------------------------------------
 # B3LYP/6-311++G(d,p) empiricaldispersion=gd3bj scf=xqc pop=npa geom=c
 heck
 ----------------------------------------------------------------------

 -----------------------------------
 CID_82319228_JID_9989_Energie_anion
 -----------------------------------
 Structure from the checkpoint file:  "JID_9989.chk"
 Charge = -1 Multiplicity = 2

                         Standard orientation:
 ---------------------------------------------------------------------
 Center     Atomic      Atomic             Coordinates (Angstroms)
 Number     Number       Type             X           Y           Z
 ---------------------------------------------------------------------
      1          6           0        1.403013   -2.980378    1.087388
      2          6           0        2.444402   -2.275880    0.211590
      3          6           0        3.194308   -3.281430   -0.671461
      4          6           0        1.862970   -1.165628   -0.685751
      5          7           0        1.133341   -0.068447   -0.027944
      6          6           0        1.829082    0.542877    1.121999
      7          6           0        3.109915    1.287705    0.721203
      8          6           0        2.907351    2.469088   -0.229195
      9          8           0        3.555261    3.484983   -0.160400
     10          8           0        1.966181    2.293977   -1.181329
     11          6           0       -0.287016   -0.055473   -0.019184
     12          6           0       -1.067909   -1.178377   -0.338456
     13          6           0       -2.455221   -1.094790   -0.360761
     14          6           0       -3.115377    0.097243   -0.051745
     15          6           0       -2.338858    1.226859    0.240623
     16          6           0       -0.952724    1.157380    0.247592
     17          6           0       -4.610152    0.094831   -0.082773
     18          8           0       -5.248941   -0.800472   -0.622850
     19          7           0       -5.232985    1.173276    0.506111
     20          1           0        1.895215   -3.666379    1.785492
     21          1           0        0.711135   -3.574424    0.479072
     22          1           0        0.806956   -2.273013    1.672616
     23          1           0        3.185126   -1.811383    0.877426
     24          1           0        2.505884   -3.784499   -1.362057
     25          1           0        3.971555   -2.791919   -1.269558
     26          1           0        3.675863   -4.052912   -0.061466
     27          1           0        2.697385   -0.715487   -1.239900
     28          1           0        1.203544   -1.594802   -1.443358
     29          1           0        1.139252    1.235820    1.603752
     30          1           0        2.074883   -0.220749    1.870914
     31          1           0        3.602740    1.675225    1.615975
     32          1           0        3.820124    0.596009    0.249212
     33          1           0        1.532532    1.415263   -1.038085
     34          1           0       -0.600548   -2.128440   -0.558004
     35          1           0       -3.055612   -1.963602   -0.608287
     36          1           0       -2.810510    2.190432    0.409576
     37          1           0       -0.379398    2.064415    0.406253
     38          1           0       -4.764496    1.687527    1.237885
     39          1           0       -6.236840    1.087049    0.595604
 ---------------------------------------------------------------------

 SCF Done:  E(UB3LYP) =  -881.079757429     A.U. after   33 cycles
 SCF Done:  E(UB3LYP) =  -881.079757429     a.u. after    1 cycles

 The electronic state is 2-A.
 Alpha  occ. eigenvalues --  -19.06276 -19.01569 -18.96565 -14.24314 -14.22271
 Alpha  occ. eigenvalues --  -10.21122 -10.14717 -10.12275 -10.11605 -10.10152
 Alpha  occ. eigenvalues --  -10.10137 -10.09240 -10.07820 -10.07153 -10.06874
 Alpha  occ. eigenvalues --  -10.06637 -10.06326 -10.05879 -10.05438  -1.00497
 Alpha  occ. eigenvalues --   -0.92696  -0.91850  -0.85686  -0.79479  -0.74602
 Alpha  occ. eigenvalues --   -0.72058  -0.69402  -0.64533  -0.64165  -0.60711
 Alpha  occ. eigenvalues --   -0.60045  -0.56094  -0.51467  -0.51363  -0.50689
 Alpha  occ. eigenvalues --   -0.47964  -0.46485  -0.44665  -0.43350  -0.42912
 Alpha  occ. eigenvalues --   -0.39111  -0.38558  -0.38383  -0.37690  -0.36143
 Alpha  occ. eigenvalues --   -0.35831  -0.34475  -0.33409  -0.32827  -0.32113
 Alpha  occ. eigenvalues --   -0.31751  -0.31313  -0.31078  -0.30424  -0.30126
 Alpha  occ. eigenvalues --   -0.29481  -0.28283  -0.27653  -0.26986  -0.26412
 Alpha  occ. eigenvalues --   -0.25845  -0.25373  -0.24603  -0.23327  -0.22634
 Alpha  occ. eigenvalues --   -0.18961  -0.18287  -0.17259  -0.15265  -0.14333
 Alpha  occ. eigenvalues --   -0.11459   0.03529
 Alpha virt. eigenvalues --    0.05171   0.06698   0.06964   0.07584   0.08210
 Alpha virt. eigenvalues --    0.08814   0.09031   0.09432   0.09973   0.10269
 Alpha virt. eigenvalues --    0.10557   0.10909   0.11528   0.11925   0.12348

  Beta  occ. eigenvalues --  -19.06264 -19.01567 -18.96386 -14.24304 -14.22242
  Beta  occ. eigenvalues --  -10.21120 -10.14562 -10.12232 -10.11600 -10.10136
  Beta  occ. eigenvalues --  -10.09856 -10.09225 -10.07797 -10.07136 -10.06796
  Beta  occ. eigenvalues --  -10.06677 -10.06364 -10.05774 -10.05294  -1.00479
  Beta  occ. eigenvalues --   -0.92680  -0.91524  -0.85553  -0.79332  -0.74389
  Beta  occ. eigenvalues --   -0.72012  -0.69306  -0.64308  -0.63940  -0.60636
  Beta  occ. eigenvalues --   -0.59983  -0.55886  -0.51336  -0.51167  -0.50602
  Beta  occ. eigenvalues --   -0.47881  -0.46316  -0.44593  -0.43303  -0.42834
  Beta  occ. eigenvalues --   -0.39048  -0.38439  -0.38284  -0.37636  -0.36094
  Beta  occ. eigenvalues --   -0.35795  -0.34356  -0.33281  -0.32737  -0.32047
  Beta  occ. eigenvalues --   -0.31685  -0.31248  -0.30892  -0.30083  -0.29826
  Beta  occ. eigenvalues --   -0.29213  -0.28239  -0.27588  -0.26831  -0.26259
  Beta  occ. eigenvalues --   -0.25623  -0.25117  -0.24524  -0.23253  -0.22607
  Beta  occ. eigenvalues --   -0.18707  -0.17926  -0.16634  -0.14793  -0.14106
  Beta  occ. eigenvalues --   -0.10767
  Beta virt. eigenvalues --    0.05779   0.06637   0.07293   0.07717   0.08015
  Beta virt. eigenvalues --    0.08376   0.08896   0.09166   0.09463   0.10031
  Beta virt. eigenvalues --    0.10409   0.10774   0.11003   0.11514   0.11997

 Mulliken charges and spin densities:
               1          2
     1  C   -0.070692  -0.595803
     2  C   -0.497137   1.154470
     3  C    0.308307  -1.004594
     4  C    0.117483  -0.894064
     5  N    0.167974   0.040412
     6  C   -0.086913   0.059951
     7  C    0.117527  -0.534505
     8  C    0.038100  -0.074515
     9  O   -0.294816   0.010396
    10  O   -0.175368  -0.003243
    11  C   -0.165730   0.321802
    12  C   -0.157408  -0.109321
    13  C   -0.279408   0.033883
    14  C    0.735704  -0.031135
    15  C   -0.724890   0.078530
    16  C   -0.433896   0.006552
    17  C   -0.012274   0.069640
    18  O   -0.397836   0.065763
    19  N   -0.365171   0.012985
    20  H   -0.235490   0.379659
    21  H    0.128469   0.023437
    22  H    0.205068  -0.050321
    23  H   -0.196929   0.385375
    24  H    0.064761   0.067907
    25  H   -0.098754   0.227748
    26  H   -0.200972   0.358585
    27  H    0.249482  -0.085165
    28  H    0.102222   0.072901
    29  H    0.186142  -0.006647
    30  H   -0.394472   0.586690
    31  H   -0.029380   0.253991
    32  H    0.022522   0.174068
    33  H    0.335402   0.021190
    34  H    0.106540  -0.041808
    35  H    0.184384   0.009052
    36  H    0.106812   0.012101
    37  H    0.151866  -0.005694
    38  H    0.199389   0.008466
    39  H    0.289380   0.001265
 Sum of Mulliken charges =  -1.00000   1.00000

 Dipole moment (field-independent basis, Debye):
    X=             -0.6993    Y=              0.5125    Z=              1.1899  Tot=              1.4723
 Quadrupole moment (field-independent basis, Debye-Ang):
   XX=           -208.1428   YY=           -165.3577   ZZ=           -138.2082
   XY=            -15.7602   XZ=            -18.1609   YZ=             11.3124

 Summary of Natural Population Analysis:

                                       Natural Population
                Natural  -----------------------------------------------
    Atom  No    Charge         Core      Valence    Rydberg      Total
 -----------------------------------------------------------------------
      C    1   -0.28810      0.99965     2.28138    0.00708     3.28810
      C    2   -0.12606      0.99961     2.11679    0.00966     3.12606
      C    3   -0.28301      0.99965     2.27680    0.00656     3.28301
      C    4   -0.08049      0.99958     2.06943    0.01148     3.08049
      N    5   -0.28812      0.99969     2.77577    0.01267     3.78812
      C    6   -0.08385      0.99960     2.07318    0.01107     3.08385
      C    7   -0.25343      0.99958     2.24561    0.00824     3.25343
      C    8    0.40169      0.99972     1.57285    0.02574     2.59831
      O    9   -0.30257      0.99986     3.29668    0.00602     4.30257
      O   10   -0.35053      0.99987     3.34425    0.00642     4.35053
      C   11    0.13810      0.99946     1.85208    0.01037     2.86190
      C   12   -0.13733      0.99953     2.13047    0.00733     3.13733
      C   13   -0.04862      0.99954     2.04089    0.00818     3.04862
      C   14   -0.06489      0.99946     2.05327    0.01216     3.06489
      C   15   -0.07060      0.99955     2.06332    0.00773     3.07060
      C   16   -0.13796      0.99953     2.13022    0.00821     3.13796
      C   17    0.35093      0.99966     1.62785    0.02156     2.64907
      O   18   -0.31352      0.99988     3.30705    0.00660     4.31352
      N   19   -0.41043      0.99971     2.90331    0.00740     3.91043
      H   20    0.10154      0.00000     0.39764    0.00082     0.39846
      H   21    0.09563      0.00000     0.40352    0.00085     0.40437
      H   22    0.10519      0.00000     0.39382    0.00099     0.39481
      H   23    0.09603      0.00000     0.40076    0.00321     0.40397
      H   24    0.09491      0.00000     0.40429    0.00080     0.40509
      H   25    0.09888      0.00000     0.40028    0.00084     0.40112
      H   26    0.10307      0.00000     0.39601    0.00092     0.39693
      H   27    0.09293      0.00000     0.40592    0.00114     0.40707
      H   28    0.10361      0.00000     0.39521    0.00118     0.39639
      H   29    0.10466      0.00000     0.39394    0.00140     0.39534
      H   30    0.09974      0.00000     0.39854    0.00172     0.40026
      H   31    0.11612      0.00000     0.38292    0.00096     0.38388
      H   32    0.11185      0.00000     0.38676    0.00139     0.38815
      H   33    0.24922      0.00000     0.24688    0.00390     0.25078
      H   34    0.09879      0.00000     0.39974    0.00146     0.40121
      H   35    0.10794      0.00000     0.39106    0.00099     0.39206
      H   36    0.09441      0.00000     0.40448    0.00112     0.40559
      H   37    0.09943      0.00000     0.39897    0.00160     0.40057
      H   38    0.18703      0.00000     0.31158    0.00139     0.31297
      H   39    0.18781      0.00000     0.31046    0.00173     0.31219
 =======================================================================
   * Total *    0.00000     18.99312    51.78400    0.22288    71.00000

 Normal termination of Gaussian 16 at Sun Dec 13 22:12:09 2020.
