 Gaussian 16, Revision A.03,

 ----------------------------------------------------------------------
 # opt=(cartesian,calcfc) freq B3LYP/6-31G(d) empiricaldispersion=gd3bj
  scf=xqc
 ----------------------------------------------------------------------

 -------------------------------
 CID_149862110_JID_2190_neutraal
 -------------------------------
 Symbolic Z-matrix:
 Charge =  0 Multiplicity = 1

 SCF Done:  E(RB3LYP) =  -903.557124068     A.U. after   16 cycles
 SCF Done:  E(RB3LYP) =  -903.557130656     A.U. after   10 cycles
 Optimization completed.
    -- Stationary point found.
 Normal termination of Gaussian 16 at Wed Dec 30 14:57:39 2020.

 --------------------------------------------------------------------
 #N Geom=AllCheck Guess=TCheck SCRF=Check GenChk RB3LYP/6-31G(d) Freq
 --------------------------------------------------------------------

 Structure from the checkpoint file:  "JID_2190.chk"
 -------------------------------
 CID_149862110_JID_2190_neutraal
 -------------------------------
 Charge =  0 Multiplicity = 1

 SCF Done:  E(RB3LYP) =  -903.557130656     A.U. after    1 cycles

  Exact polarizability: 124.878 -12.725  97.003  13.267   7.025  89.012
 Approx polarizability: 204.899 -28.786 170.400  49.685   6.347 185.656

                      1                      2                      3
                      A                      A                      A
 Frequencies --     47.5235                57.5969               149.8365
 Red. masses --     10.7168                 8.7488                12.5411
 Frc consts  --      0.0143                 0.0171                 0.1659
 IR Inten    --      0.1189                 0.5858                 0.6413

                      4                      5                      6
                      A                      A                      A
 Frequencies --    165.8701               258.2190               305.6684
 Red. masses --      5.2674                 7.4534                 7.9037
 Frc consts  --      0.0854                 0.2928                 0.4351
 IR Inten    --      1.1889                 0.3532                 1.4077

                      7                      8                      9
                      A                      A                      A
 Frequencies --    373.2584               391.2275               414.3447
 Red. masses --      7.6289                 3.0468                 3.1074
 Frc consts  --      0.6262                 0.2748                 0.3143
 IR Inten    --      6.9929                23.6091                 3.0994

                     10                     11                     12
                      A                      A                      A
 Frequencies --    500.4479               516.0287               543.8962
 Red. masses --      3.2959                 3.6915                 6.3157
 Frc consts  --      0.4863                 0.5792                 1.1008
 IR Inten    --     49.9828                54.0291                21.1083

                     13                     14                     15
                      A                      A                      A
 Frequencies --    577.2921               585.2492               609.7429
 Red. masses --      8.3425                 5.9571                 5.3438
 Frc consts  --      1.6381                 1.2022                 1.1706
 IR Inten    --     12.1476                 6.8455                22.7148

                     16                     17                     18
                      A                      A                      A
 Frequencies --    692.0950               746.3570               749.5402
 Red. masses --      7.2229                 7.3349                 5.3835
 Frc consts  --      2.0384                 2.4073                 1.7820
 IR Inten    --     58.9264                 3.7936                 2.1702

                     19                     20                     21
                      A                      A                      A
 Frequencies --    814.0740               826.8075               866.1421
 Red. masses --      3.7786                 1.5919                 7.6622
 Frc consts  --      1.4754                 0.6412                 3.3867
 IR Inten    --     34.7861                69.7090                62.7860

                     22                     23                     24
                      A                      A                      A
 Frequencies --    901.9359               925.3506               965.9596
 Red. masses --      3.9663                 1.3221                 1.4003
 Frc consts  --      1.9010                 0.6670                 0.7698
 IR Inten    --     72.3291                 0.4047                 0.1612

                     25                     26                     27
                      A                      A                      A
 Frequencies --   1053.4130              1077.4631              1109.3828
 Red. masses --      4.3882                 3.5170                 2.1785
 Frc consts  --      2.8690                 2.4056                 1.5797
 IR Inten    --     10.9614                72.1806                 8.3910

                     28                     29                     30
                      A                      A                      A
 Frequencies --   1206.6786              1238.0489              1262.4293
 Red. masses --      1.8767                 1.4759                 3.4251
 Frc consts  --      1.6100                 1.3329                 3.2161
 IR Inten    --     32.3516                18.8740               176.4653

                     31                     32                     33
                      A                      A                      A
 Frequencies --   1306.4929              1319.0323              1343.7302
 Red. masses --      1.8446                 4.5756                 1.7296
 Frc consts  --      1.8551                 4.6904                 1.8400
 IR Inten    --      9.0264                19.2397                 4.1431

                     34                     35                     36
                      A                      A                      A
 Frequencies --   1408.6608              1447.8840              1476.8603
 Red. masses --      1.3206                 1.7304                 2.2945
 Frc consts  --      1.5440                 2.1373                 2.9486
 IR Inten    --     28.5858                27.8918                49.0015

                     37                     38                     39
                      A                      A                      A
 Frequencies --   1522.6906              1627.0009              1640.0942
 Red. masses --      2.6189                 6.0613                 6.0106
 Frc consts  --      3.5776                 9.4535                 9.5258
 IR Inten    --     54.9006                67.8768                49.8751

                     40                     41                     42
                      A                      A                      A
 Frequencies --   2264.0697              3168.3519              3178.7689
 Red. masses --     13.9181                 1.0885                 1.0881
 Frc consts  --     42.0347                 6.4382                 6.4780
 IR Inten    --    356.2254                 9.4436                23.3734

                     43                     44                     45
                      A                      A                      A
 Frequencies --   3185.0510              3208.3804              3590.4497
 Red. masses --      1.0916                 1.0941                 1.0764
 Frc consts  --      6.5244                 6.6358                 8.1757
 IR Inten    --     14.4676                13.5108                28.7243

 - Thermochemistry -
 -------------------
 Temperature   298.150 Kelvin.  Pressure   1.00000 Atm.
 Atom     1 has atomic number  6 and mass  12.00000

 Molecular mass:   179.02657 amu.
 Principal axes and moments of inertia in atomic units:
                           1         2         3
     Eigenvalues --  1243.387912641.122662836.45118
           X            0.99977  -0.01893   0.00976
           Y            0.01750   0.99130   0.13049
           Z           -0.01215  -0.13029   0.99140
 This molecule is an asymmetric top.
 Rotational symmetry number  1.
 Warning -- assumption of classical behavior for rotation
           may cause significant error
 Rotational temperatures (Kelvin)      0.06966     0.03279     0.03054
 Rotational constants (GHZ):           1.45147     0.68332     0.63627
 Zero-point vibrational energy     308752.6 (Joules/Mol)
                                   73.79363 (Kcal/Mol)
 Warning -- explicit consideration of  15 degrees of freedom as
           vibrations may cause significant error
 Vibrational temperatures:     68.38    82.87   215.58   238.65   371.52
          (Kelvin)            439.79   537.04   562.89   596.15   720.03
                              742.45   782.55   830.59   842.04   877.28
                              995.77  1073.84  1078.42  1171.27  1189.59
                             1246.19  1297.68  1331.37  1389.80  1515.63
                             1550.23  1596.15  1736.14  1781.28  1816.35
                             1879.75  1897.79  1933.33  2026.75  2083.18
                             2124.87  2190.81  2340.89  2359.73  3257.49
                             4558.55  4573.54  4582.58  4616.14  5165.86

 Zero-point correction=                           0.117598 (Hartree/Particle)
 Thermal correction to Energy=                    0.127154
 Thermal correction to Enthalpy=                  0.128099
 Thermal correction to Gibbs Free Energy=         0.081471
 Sum of electronic and zero-point Energies=           -903.439533
 Sum of electronic and thermal Energies=              -903.429976
 Sum of electronic and thermal Enthalpies=            -903.429032
 Sum of electronic and thermal Free Energies=         -903.475659

                     E (Thermal)             CV                S
                      KCal/Mol        Cal/Mol-Kelvin    Cal/Mol-Kelvin
 Total                   79.791             36.124             98.135
 Electronic               0.000              0.000              0.000
 Translational            0.889              2.981             41.454
 Rotational               0.889              2.981             30.611
 Vibrational             78.013             30.163             26.070
 Vibration     1          0.595              1.979              4.918
 Vibration     2          0.596              1.974              4.538
 Vibration     3          0.618              1.903              2.674
 Vibration     4          0.624              1.884              2.482
 Vibration     5          0.667              1.749              1.674
 Vibration     6          0.696              1.663              1.386
 Vibration     7          0.745              1.527              1.066
 Vibration     8          0.759              1.489              0.995
 Vibration     9          0.778              1.439              0.911
 Vibration    10          0.856              1.249              0.657
 Vibration    11          0.871              1.214              0.619
 Vibration    12          0.899              1.153              0.557
 Vibration    13          0.934              1.080              0.490
 Vibration    14          0.942              1.063              0.476
 Vibration    15          0.969              1.011              0.433

 Optimization completed.
    -- Stationary point found.
 Normal termination of Gaussian 16 at Wed Dec 30 15:01:04 2020.

 ----------------------------------------------------------------------
 # B3LYP/6-311++G(d,p) empiricaldispersion=gd3bj scf=xqc pop=npa geom=c
 heck
 ----------------------------------------------------------------------

 ---------------------------------------
 CID_149862110_JID_2190_Energie_neutraal
 ---------------------------------------
 Structure from the checkpoint file:  "JID_2190.chk"
 Charge =  0 Multiplicity = 1

 SCF Done:  E(RB3LYP) =  -903.718866395     A.U. after   16 cycles
 Normal termination of Gaussian 16 at Wed Dec 30 15:02:13 2020.

 ----------------------------------------------------------------------
 # B3LYP/6-311++G(d,p) empiricaldispersion=gd3bj scf=xqc pop=npa geom=c
 heck
 ----------------------------------------------------------------------

 -------------------------------------
 CID_149862110_JID_2190_Energie_kation
 -------------------------------------
 Structure from the checkpoint file:  "JID_2190.chk"
 Charge =  1 Multiplicity = 2

 SCF Done:  E(UB3LYP) =  -903.415508230     A.U. after   27 cycles
 Normal termination of Gaussian 16 at Wed Dec 30 15:04:46 2020.
 Gaussian 16:  ES64L-G16RevA.03 25-Dec-2016

 ----------------------------------------------------------------------
 # B3LYP/6-311++G(d,p) empiricaldispersion=gd3bj scf=xqc pop=npa geom=c
 heck
 ----------------------------------------------------------------------

 ------------------------------------
 CID_149862110_JID_2190_Energie_anion
 ------------------------------------
 Structure from the checkpoint file:  "JID_2190.chk"
 Charge = -1 Multiplicity = 2

                         Standard orientation:
 ---------------------------------------------------------------------
 Center     Atomic      Atomic             Coordinates (Angstroms)
 Number     Number       Type             X           Y           Z
 ---------------------------------------------------------------------
      1          6           0        1.770035   -1.195267   -0.843049
      2          6           0        2.862073   -0.883843   -0.028113
      3          7           0        2.913959    0.156286    0.811104
      4          6           0        1.838518    0.957782    0.874613
      5          6           0        0.706364    0.745027    0.102044
      6          6           0        0.664348   -0.351459   -0.775265
      7          7           0       -0.512409   -0.424571   -1.505895
      8          6           0       -1.615274    0.334433   -0.948033
      9         16           0       -0.795336    1.692884    0.021026
     10          7           0       -2.577347   -0.486297   -0.176699
     11          7           0       -2.135144   -0.976769    0.874608
     12          7           0       -1.841959   -1.471060    1.857191
     13          1           0        1.790072   -2.058679   -1.500869
     14          1           0        3.745333   -1.518733   -0.053624
     15          1           0        1.892773    1.794017    1.568034
     16          1           0       -0.764259   -1.307388   -1.934322
     17          1           0       -2.224614    0.781465   -1.730976
 ---------------------------------------------------------------------

 SCF Done:  E(UB3LYP) =  -903.720167189     A.U. after   33 cycles
 SCF Done:  E(UB3LYP) =  -903.720167189     a.u. after    1 cycles

 The electronic state is 2-A.
 Alpha  occ. eigenvalues --  -88.74776 -14.31121 -14.23194 -14.22121 -14.21465
 Alpha  occ. eigenvalues --  -14.19455 -10.15786 -10.12150 -10.09821 -10.09731
 Alpha  occ. eigenvalues --  -10.09669 -10.07149  -7.83398  -5.79759  -5.79438
 Alpha  occ. eigenvalues --   -5.78792  -0.98870  -0.87070  -0.83267  -0.81536
 Alpha  occ. eigenvalues --   -0.69640  -0.68333  -0.63582  -0.56598  -0.52003
 Alpha  occ. eigenvalues --   -0.50504  -0.44773  -0.43057  -0.39620  -0.36972
 Alpha  occ. eigenvalues --   -0.36668  -0.35206  -0.33852  -0.33331  -0.31436
 Alpha  occ. eigenvalues --   -0.30597  -0.29073  -0.27248  -0.23925  -0.23203
 Alpha  occ. eigenvalues --   -0.19269  -0.17827  -0.15536  -0.14492  -0.11791
 Alpha  occ. eigenvalues --   -0.10260   0.04755
 Alpha virt. eigenvalues --    0.07387   0.08250   0.08781   0.09103   0.09425
 Alpha virt. eigenvalues --    0.09841   0.11716   0.11968   0.13244   0.14001
 Alpha virt. eigenvalues --    0.14617   0.15059   0.15807   0.16420   0.17010

  Beta  occ. eigenvalues --  -88.74773 -14.30754 -14.23171 -14.21587 -14.21543
  Beta  occ. eigenvalues --  -14.19431 -10.15609 -10.12132 -10.09823 -10.09727
  Beta  occ. eigenvalues --  -10.09622 -10.07107  -7.83395  -5.79745  -5.79435
  Beta  occ. eigenvalues --   -5.78793  -0.98137  -0.86937  -0.83116  -0.81298
  Beta  occ. eigenvalues --   -0.69585  -0.68209  -0.63420  -0.56362  -0.51860
  Beta  occ. eigenvalues --   -0.50468  -0.44617  -0.42897  -0.39179  -0.36545
  Beta  occ. eigenvalues --   -0.36218  -0.35024  -0.33558  -0.33024  -0.31005
  Beta  occ. eigenvalues --   -0.29709  -0.28604  -0.26990  -0.23799  -0.23070
  Beta  occ. eigenvalues --   -0.19191  -0.17002  -0.15479  -0.14263  -0.11658
  Beta  occ. eigenvalues --   -0.10108
  Beta virt. eigenvalues --    0.07727   0.08465   0.08876   0.09206   0.09461
  Beta virt. eigenvalues --    0.09987   0.11818   0.12202   0.12628   0.13705
  Beta virt. eigenvalues --    0.14088   0.14680   0.15091   0.15971   0.16383

 Mulliken charges and spin densities:
               1          2
     1  C   -0.585543   0.798016
     2  C   -0.396109  -0.131503
     3  N   -0.100959   0.011580
     4  C   -0.101654   0.120057
     5  C    1.725986  -0.560617
     6  C   -0.587713  -0.598803
     7  N   -0.123838   0.106216
     8  C    1.249876  -1.421205
     9  S   -0.559589  -0.163686
    10  N   -0.163186   0.046635
    11  N    0.505197   0.169375
    12  N   -0.619800   0.299659
    13  H   -0.207949   0.369335
    14  H    0.151430  -0.013045
    15  H    0.167752  -0.003398
    16  H   -0.208811   0.485735
    17  H   -1.145089   1.485649
 Sum of Mulliken charges =  -1.00000   1.00000

 Dipole moment (field-independent basis, Debye):
    X=              4.2081    Y=              1.3392    Z=              1.1037  Tot=              4.5519
 Quadrupole moment (field-independent basis, Debye-Ang):
   XX=           -120.2543   YY=            -94.5397   ZZ=           -109.1375
   XY=             -4.9995   XZ=             -8.4623   YZ=              5.2582

 Summary of Natural Population Analysis:

                                       Natural Population
                Natural  -----------------------------------------------
    Atom  No    Charge         Core      Valence    Rydberg      Total
 -----------------------------------------------------------------------
      C    1   -0.13986      0.99951     2.13104    0.00931     3.13986
      C    2    0.02146      0.99961     1.96326    0.01567     2.97854
      N    3   -0.24594      0.99972     2.73624    0.00998     3.74594
      C    4    0.02491      0.99950     1.95964    0.01594     2.97509
      C    5   -0.11921      0.99935     2.10867    0.01119     3.11921
      C    6    0.09570      0.99942     1.89243    0.01245     2.90430
      N    7   -0.31572      0.99965     2.80265    0.01341     3.81572
      C    8    0.03431      0.99961     1.94268    0.02341     2.96569
      S    9    0.12218      4.99955     2.86144    0.01683     7.87782
      N   10   -0.23127      0.99970     2.71594    0.01563     3.73127
      N   11    0.14166      0.99970     2.34182    0.01682     3.35834
      N   12    0.02726      0.99981     2.46043    0.01250     3.47274
      H   13    0.10440      0.00000     0.39471    0.00089     0.39560
      H   14    0.08531      0.00000     0.41352    0.00117     0.41469
      H   15    0.08893      0.00000     0.40989    0.00119     0.41107
      H   16    0.19987      0.00000     0.29372    0.00641     0.30013
      H   17    0.10601      0.00000     0.38892    0.00507     0.39399
 =======================================================================
   * Total *   -0.00000     15.99512    29.81700    0.18787    46.00000

 Normal termination of Gaussian 16 at Wed Dec 30 15:07:54 2020.
