 Gaussian 16, Revision A.03,

 -----------------------------------------------------------
 # opt freq B3LYP/6-31G(d) empiricaldispersion=gd3bj scf=xqc
 -----------------------------------------------------------

 -----------------------------
 CID_80492282_JID_118_neutraal
 -----------------------------
 Symbolic Z-matrix:
 Charge =  0 Multiplicity = 1

 SCF Done:  E(RB3LYP) =  -779.177201290     A.U. after   15 cycles
 SCF Done:  E(RB3LYP) =  -779.180524382     A.U. after   13 cycles
 SCF Done:  E(RB3LYP) =  -779.177475550     A.U. after   14 cycles
 SCF Done:  E(RB3LYP) =  -779.181204243     A.U. after   13 cycles
 SCF Done:  E(RB3LYP) =  -779.180594335     A.U. after   13 cycles
 SCF Done:  E(RB3LYP) =  -779.181894205     A.U. after   12 cycles
 SCF Done:  E(RB3LYP) =  -779.182835301     A.U. after   15 cycles
 SCF Done:  E(RB3LYP) =  -779.183565507     A.U. after   13 cycles
 SCF Done:  E(RB3LYP) =  -779.184069912     A.U. after   13 cycles
 SCF Done:  E(RB3LYP) =  -779.184304836     A.U. after   12 cycles
 SCF Done:  E(RB3LYP) =  -779.184321083     A.U. after   11 cycles
 SCF Done:  E(RB3LYP) =  -779.184323470     A.U. after   10 cycles
 SCF Done:  E(RB3LYP) =  -779.184326110     A.U. after    9 cycles
 SCF Done:  E(RB3LYP) =  -779.184326280     A.U. after    8 cycles
 Optimization completed.
    -- Stationary point found.
 Normal termination of Gaussian 16 at Tue Dec  8 10:17:55 2020.

 --------------------------------------------------------------------
 #N Geom=AllCheck Guess=TCheck SCRF=Check GenChk RB3LYP/6-31G(d) Freq
 --------------------------------------------------------------------

 Structure from the checkpoint file:  "JID_118.chk"
 -----------------------------
 CID_80492282_JID_118_neutraal
 -----------------------------
 Charge =  0 Multiplicity = 1

 SCF Done:  E(RB3LYP) =  -779.184326280     A.U. after    1 cycles

  Exact polarizability: 120.454  -8.467 102.731   0.448  -1.381  58.607
 Approx polarizability: 170.072 -25.129 179.094   3.258  -6.890  95.501

                      1                      2                      3
                      A                      A                      A
 Frequencies --     45.0349                94.7713               117.4227
 Red. masses --      5.3328                 3.5137                 3.5666
 Frc consts  --      0.0064                 0.0186                 0.0290
 IR Inten    --      0.5180                 2.6883                 0.3198

                      4                      5                      6
                      A                      A                      A
 Frequencies --    144.4265               181.8258               255.3329
 Red. masses --      4.3317                 1.7668                 2.2414
 Frc consts  --      0.0532                 0.0344                 0.0861
 IR Inten    --      1.6864                 0.1930                 0.8110

                      7                      8                      9
                      A                      A                      A
 Frequencies --    267.8821               331.5251               376.5558
 Red. masses --      2.6918                 3.8475                 6.5549
 Frc consts  --      0.1138                 0.2491                 0.5476
 IR Inten    --      0.9724                 2.0366                 1.1954

                     10                     11                     12
                      A                      A                      A
 Frequencies --    443.0458               489.8606               573.9646
 Red. masses --      6.6848                 4.9374                 4.7743
 Frc consts  --      0.7731                 0.6981                 0.9267
 IR Inten    --      3.0366                 2.0938                 6.5146

                     13                     14                     15
                      A                      A                      A
 Frequencies --    613.8328               622.9125               625.5083
 Red. masses --      1.7822                 1.8999                 1.5381
 Frc consts  --      0.3956                 0.4343                 0.3546
 IR Inten    --     17.4089                35.3352                38.3612

                     16                     17                     18
                      A                      A                      A
 Frequencies --    659.3230               755.8696               771.4517
 Red. masses --      6.3718                 1.2287                 4.4542
 Frc consts  --      1.6320                 0.4136                 1.5619
 IR Inten    --      3.0937                 2.2150                11.3517

                     19                     20                     21
                      A                      A                      A
 Frequencies --    803.0544               827.4076               861.3234
 Red. masses --      2.0180                 1.3810                 3.2171
 Frc consts  --      0.7668                 0.5570                 1.4062
 IR Inten    --     74.0822                42.3495                 6.9759

                     22                     23                     24
                      A                      A                      A
 Frequencies --    880.8009               943.4149              1003.8122
 Red. masses --      4.4403                 3.2607                 2.1407
 Frc consts  --      2.0296                 1.7099                 1.2709
 IR Inten    --     45.2234                61.7790                 9.9780

                     25                     26                     27
                      A                      A                      A
 Frequencies --   1013.7981              1132.4573              1156.1129
 Red. masses --      2.5252                 2.2986                 1.9294
 Frc consts  --      1.5291                 1.7368                 1.5194
 IR Inten    --      5.8330                26.5160                24.5950

                     28                     29                     30
                      A                      A                      A
 Frequencies --   1176.9676              1194.6567              1262.7834
 Red. masses --      1.3833                 1.7856                 1.5183
 Frc consts  --      1.1290                 1.5015                 1.4264
 IR Inten    --      7.5067                12.0865                 5.3480

                     31                     32                     33
                      A                      A                      A
 Frequencies --   1321.3791              1339.3298              1367.8857
 Red. masses --      1.4406                 1.3837                 2.8007
 Frc consts  --      1.4820                 1.4624                 3.0876
 IR Inten    --     24.6768                11.0949                 8.8789

                     34                     35                     36
                      A                      A                      A
 Frequencies --   1479.4186              1491.8150              1506.8736
 Red. masses --      1.1731                 7.1090                 1.2170
 Frc consts  --      1.5128                 9.3216                 1.6282
 IR Inten    --      1.3121                45.9757                16.5316

                     37                     38                     39
                      A                      A                      A
 Frequencies --   1518.2120              1549.0558              1566.4260
 Red. masses --      1.0486                 1.0563                 7.9000
 Frc consts  --      1.4240                 1.4934                11.4209
 IR Inten    --      4.2587                10.7811                22.3108

                     40                     41                     42
                      A                      A                      A
 Frequencies --   2231.7014              3004.7642              3015.7512
 Red. masses --      5.9439                 1.0507                 1.0807
 Frc consts  --     17.4419                 5.5893                 5.7909
 IR Inten    --      0.2716                60.3672                14.9035

                     43                     44                     45
                      A                      A                      A
 Frequencies --   3087.4129              3129.6884              3247.6854
 Red. masses --      1.0858                 1.1025                 1.0940
 Frc consts  --      6.0979                 6.3625                 6.7986
 IR Inten    --     34.5972                28.5974                 1.6068

                     46                     47                     48
                      A                      A                      A
 Frequencies --   3304.7882              3483.9599              3495.9709
 Red. masses --      1.0943                 1.0738                 1.1601
 Frc consts  --      7.0418                 7.6794                 8.3536
 IR Inten    --      3.5067                 0.2814                55.4326

 - Thermochemistry -
 -------------------
 Temperature   298.150 Kelvin.  Pressure   1.00000 Atm.
 Atom     1 has atomic number  6 and mass  12.00000

 Molecular mass:   152.04082 amu.
 Principal axes and moments of inertia in atomic units:
                           1         2         3
     Eigenvalues --   800.849922505.326933164.12775
           X            0.99964   0.02665  -0.00112
           Y           -0.02664   0.99962   0.00678
           Z            0.00130  -0.00675   0.99998
 This molecule is an asymmetric top.
 Rotational symmetry number  1.
 Warning -- assumption of classical behavior for rotation
           may cause significant error
 Rotational temperatures (Kelvin)      0.10815     0.03457     0.02737
 Rotational constants (GHZ):           2.25353     0.72036     0.57038
 Zero-point vibrational energy     363480.9 (Joules/Mol)
                                   86.87401 (Kcal/Mol)
 Warning -- explicit consideration of  13 degrees of freedom as
           vibrations may cause significant error
 Vibrational temperatures:     64.80   136.35   168.95   207.80   261.61
          (Kelvin)            367.37   385.42   476.99   541.78   637.44
                              704.80   825.81   883.17   896.23   899.97
                              948.62  1087.53  1109.95  1155.42  1190.45
                             1239.25  1267.28  1357.36  1444.26  1458.63
                             1629.35  1663.39  1693.39  1718.84  1816.86
                             1901.17  1927.00  1968.08  2128.55  2146.39
                             2168.06  2184.37  2228.75  2253.74  3210.92
                             4323.19  4338.99  4442.10  4502.92  4672.69
                             4754.85  5012.64  5029.92

 Zero-point correction=                           0.138443 (Hartree/Particle)
 Thermal correction to Energy=                    0.148430
 Thermal correction to Enthalpy=                  0.149375
 Thermal correction to Gibbs Free Energy=         0.102324
 Sum of electronic and zero-point Energies=           -779.045884
 Sum of electronic and thermal Energies=              -779.035896
 Sum of electronic and thermal Enthalpies=            -779.034952
 Sum of electronic and thermal Free Energies=         -779.082003

                     E (Thermal)             CV                S
                      KCal/Mol        Cal/Mol-Kelvin    Cal/Mol-Kelvin
 Total                   93.141             36.668             99.027
 Electronic               0.000              0.000              0.000
 Translational            0.889              2.981             40.967
 Rotational               0.889              2.981             30.230
 Vibrational             91.364             30.706             27.830
 Vibration     1          0.595              1.979              5.024
 Vibration     2          0.603              1.953              3.559
 Vibration     3          0.608              1.935              3.142
 Vibration     4          0.616              1.909              2.744
 Vibration     5          0.630              1.864              2.310
 Vibration     6          0.666              1.754              1.693
 Vibration     7          0.673              1.732              1.610
 Vibration     8          0.714              1.613              1.253
 Vibration     9          0.747              1.520              1.053
 Vibration    10          0.803              1.376              0.817
 Vibration    11          0.846              1.273              0.684
 Vibration    12          0.930              1.088              0.497
 Vibration    13          0.973              1.003              0.426

                           ! Non-Optimized Parameters !
 Normal termination of Gaussian 16 at Tue Dec  8 10:20:40 2020.

 ----------------------------------------------------------------------
 # B3LYP/6-311++G(d,p) empiricaldispersion=gd3bj scf=xqc pop=npa geom=c
 heck
 ----------------------------------------------------------------------

 -------------------------------------
 CID_80492282_JID_118_Energie_neutraal
 -------------------------------------
 Structure from the checkpoint file:  "JID_118.chk"
 Charge =  0 Multiplicity = 1

 SCF Done:  E(RB3LYP) =  -779.320920495     A.U. after   15 cycles
 Normal termination of Gaussian 16 at Tue Dec  8 10:21:41 2020.

 ----------------------------------------------------------------------
 # B3LYP/6-311++G(d,p) empiricaldispersion=gd3bj scf=xqc pop=npa geom=c
 heck
 ----------------------------------------------------------------------

 -----------------------------------
 CID_80492282_JID_118_Energie_kation
 -----------------------------------
 Structure from the checkpoint file:  "JID_118.chk"
 Charge =  1 Multiplicity = 2

 SCF Done:  E(UB3LYP) =  -779.002751911     A.U. after   26 cycles
 Normal termination of Gaussian 16 at Tue Dec  8 10:23:54 2020.
 Gaussian 16:  ES64L-G16RevA.03 25-Dec-2016

 ----------------------------------------------------------------------
 # B3LYP/6-311++G(d,p) empiricaldispersion=gd3bj scf=xqc pop=npa geom=c
 heck
 ----------------------------------------------------------------------

 ----------------------------------
 CID_80492282_JID_118_Energie_anion
 ----------------------------------
 Structure from the checkpoint file:  "JID_118.chk"
 Charge = -1 Multiplicity = 2

                         Standard orientation:
 ---------------------------------------------------------------------
 Center     Atomic      Atomic             Coordinates (Angstroms)
 Number     Number       Type             X           Y           Z
 ---------------------------------------------------------------------
      1          6           0       -3.101642   -1.441434   -0.182983
      2          7           0       -1.699945   -1.215121    0.165322
      3          6           0       -1.145032    0.010815   -0.422356
      4          6           0       -1.787995    1.240747    0.080441
      5          6           0       -2.378528    2.190979    0.534468
      6          6           0        0.357769    0.041455   -0.217553
      7          6           0        1.111535   -1.027731    0.177259
      8         16           0        2.784654   -0.579111    0.255843
      9          6           0        2.329036    1.029558   -0.260936
     10          7           0        1.058008    1.204123   -0.465010
     11          1           0       -3.178491   -1.615751   -1.262122
     12          1           0       -3.768330   -0.604147    0.077760
     13          1           0       -3.451405   -2.343001    0.328561
     14          1           0       -1.615422   -1.137079    1.178255
     15          1           0       -1.332651   -0.050172   -1.505105
     16          1           0       -2.871826    3.050250    0.928144
     17          1           0        0.769543   -2.026582    0.399484
     18          1           0        3.076810    1.802925   -0.390692
 ---------------------------------------------------------------------

 SCF Done:  E(UB3LYP) =  -779.305222356     A.U. after   33 cycles
 SCF Done:  E(UB3LYP) =  -779.305222356     a.u. after    1 cycles

 The electronic state is 2-A.
 Alpha  occ. eigenvalues --  -88.75707 -14.19439 -14.18996 -10.11729 -10.10117
 Alpha  occ. eigenvalues --  -10.08666 -10.06971 -10.06944 -10.06144 -10.05091
 Alpha  occ. eigenvalues --   -7.84370  -5.80634  -5.80298  -5.80007  -0.84359
 Alpha  occ. eigenvalues --   -0.80353  -0.67690  -0.66514  -0.62790  -0.57627
 Alpha  occ. eigenvalues --   -0.53460  -0.47416  -0.44232  -0.42531  -0.39507
 Alpha  occ. eigenvalues --   -0.37486  -0.34827  -0.33173  -0.30933  -0.29016
 Alpha  occ. eigenvalues --   -0.27976  -0.27591  -0.25888  -0.24776  -0.17597
 Alpha  occ. eigenvalues --   -0.16757  -0.16244  -0.15519  -0.12950  -0.12690
 Alpha  occ. eigenvalues --    0.05358
 Alpha virt. eigenvalues --    0.07326   0.07915   0.08624   0.09333   0.09714
 Alpha virt. eigenvalues --    0.11313   0.11597   0.12455   0.12939   0.13331
 Alpha virt. eigenvalues --    0.13488   0.14169   0.14923   0.15279   0.15441

  Beta  occ. eigenvalues --  -88.75671 -14.19428 -14.18955 -10.11724 -10.09873
  Beta  occ. eigenvalues --  -10.08663 -10.06919 -10.06756 -10.06143 -10.05065
  Beta  occ. eigenvalues --   -7.84338  -5.80621  -5.80284  -5.79884  -0.84169
  Beta  occ. eigenvalues --   -0.80319  -0.67476  -0.66411  -0.62665  -0.57428
  Beta  occ. eigenvalues --   -0.53349  -0.47063  -0.44079  -0.42445  -0.39414
  Beta  occ. eigenvalues --   -0.37398  -0.34720  -0.33063  -0.30803  -0.28864
  Beta  occ. eigenvalues --   -0.27613  -0.27279  -0.25819  -0.24599  -0.17511
  Beta  occ. eigenvalues --   -0.16415  -0.15922  -0.15396  -0.12656  -0.11983
  Beta virt. eigenvalues --    0.07927   0.08548   0.08811   0.09341   0.09866
  Beta virt. eigenvalues --    0.10423   0.11476   0.12007   0.12617   0.13256
  Beta virt. eigenvalues --    0.13536   0.13678   0.14351   0.15090   0.15325

 Mulliken charges and spin densities:
               1          2
     1  C    1.484711  -1.830220
     2  N   -0.221706   0.192196
     3  C   -1.658147   0.582602
     4  C    2.498503  -1.965727
     5  C   -0.681608   0.194599
     6  C   -0.987647  -0.073823
     7  C    0.611944   0.277579
     8  S   -0.426440  -0.005955
     9  C    0.096478   0.309242
    10  N    0.093064   0.027711
    11  H   -0.612228   0.757708
    12  H   -0.157219   0.293247
    13  H   -0.699843   0.833717
    14  H    0.153679   0.051728
    15  H   -0.010129   0.203810
    16  H   -0.688709   0.838497
    17  H    0.009683   0.286031
    18  H    0.195614   0.027059
 Sum of Mulliken charges =  -1.00000   1.00000

 Dipole moment (field-independent basis, Debye):
    X=              7.2794    Y=              1.3275    Z=              1.1292  Tot=              7.4851
 Quadrupole moment (field-independent basis, Debye-Ang):
   XX=           -124.3067   YY=           -104.6754   ZZ=            -87.4121
   XY=             -5.9440   XZ=             -1.9354   YZ=             -1.7350

 Summary of Natural Population Analysis:

                                       Natural Population
                Natural  -----------------------------------------------
    Atom  No    Charge         Core      Valence    Rydberg      Total
 -----------------------------------------------------------------------
      C    1   -0.17921      0.99966     2.17108    0.00848     3.17921
      N    2   -0.32737      0.99976     2.81495    0.01266     3.82737
      C    3   -0.05617      0.99949     2.04243    0.01425     3.05617
      C    4    0.00352      0.99936     1.98758    0.00955     2.99648
      C    5   -0.12231      0.99926     2.11887    0.00417     3.12231
      C    6    0.05963      0.99946     1.92510    0.01581     2.94037
      C    7   -0.17615      0.99945     2.16571    0.01099     3.17615
      S    8    0.17427      4.99948     2.80482    0.02144     7.82573
      C    9   -0.01660      0.99966     2.00062    0.01633     3.01660
      N   10   -0.23735      0.99966     2.72620    0.01149     3.73735
      H   11    0.09300      0.00000     0.40454    0.00246     0.40700
      H   12    0.08617      0.00000     0.41169    0.00214     0.41383
      H   13    0.09653      0.00000     0.40140    0.00207     0.40347
      H   14    0.17176      0.00000     0.32520    0.00304     0.32824
      H   15    0.11356      0.00000     0.38405    0.00240     0.38644
      H   16    0.10883      0.00000     0.38959    0.00158     0.39117
      H   17    0.11748      0.00000     0.38093    0.00159     0.38252
      H   18    0.09043      0.00000     0.40856    0.00101     0.40957
 =======================================================================
   * Total *   -0.00000     13.99523    25.86332    0.14145    40.00000

 Normal termination of Gaussian 16 at Tue Dec  8 10:26:49 2020.
