 Gaussian 16, Revision A.03,

 -----------------------------------------------------------
 # opt freq B3LYP/6-31G(d) empiricaldispersion=gd3bj scf=xqc
 -----------------------------------------------------------

 -----------------------------
 CID_18377318_JID_630_neutraal
 -----------------------------
 Symbolic Z-matrix:
 Charge =  0 Multiplicity = 1

 SCF Done:  E(RB3LYP) =  -764.439350228     A.U. after   14 cycles
 SCF Done:  E(RB3LYP) =  -764.443067016     A.U. after   12 cycles
 SCF Done:  E(RB3LYP) =  -764.443569069     A.U. after   11 cycles
 SCF Done:  E(RB3LYP) =  -764.443643132     A.U. after   11 cycles
 SCF Done:  E(RB3LYP) =  -764.443653160     A.U. after   10 cycles
 SCF Done:  E(RB3LYP) =  -764.443659115     A.U. after    9 cycles
 SCF Done:  E(RB3LYP) =  -764.443660498     A.U. after    8 cycles
 SCF Done:  E(RB3LYP) =  -764.443660753     A.U. after    7 cycles
 SCF Done:  E(RB3LYP) =  -764.443660891     A.U. after    7 cycles
 SCF Done:  E(RB3LYP) =  -764.443660956     A.U. after    6 cycles
 SCF Done:  E(RB3LYP) =  -764.443660984     A.U. after    6 cycles
 Optimization completed.
    -- Stationary point found.
 Normal termination of Gaussian 16 at Tue Dec  8 12:19:04 2020.

 --------------------------------------------------------------------
 #N Geom=AllCheck Guess=TCheck SCRF=Check GenChk RB3LYP/6-31G(d) Freq
 --------------------------------------------------------------------

 Structure from the checkpoint file:  "JID_630.chk"
 -----------------------------
 CID_18377318_JID_630_neutraal
 -----------------------------
 Charge =  0 Multiplicity = 1

 SCF Done:  E(RB3LYP) =  -764.443660984     A.U. after    1 cycles

  Exact polarizability: 119.883   1.392 118.715   0.177   0.579  62.885
 Approx polarizability: 173.233  -1.044 193.307   2.430   0.719  99.101

                      1                      2                      3
                      A                      A                      A
 Frequencies --    115.1061               131.7134               150.6600
 Red. masses --      2.5278                 2.2408                 1.2279
 Frc consts  --      0.0197                 0.0229                 0.0164
 IR Inten    --      0.8560                 0.5613                 0.2761

                      4                      5                      6
                      A                      A                      A
 Frequencies --    224.3974               252.8819               276.7300
 Red. masses --      3.0614                 3.6945                 2.4654
 Frc consts  --      0.0908                 0.1392                 0.1112
 IR Inten    --      0.3550                 2.2292                 3.5471

                      7                      8                      9
                      A                      A                      A
 Frequencies --    332.6165               365.2121               455.0028
 Red. masses --      2.2072                 4.0592                 3.6234
 Frc consts  --      0.1439                 0.3190                 0.4420
 IR Inten    --      0.8339                 0.9458                 1.2664

                     10                     11                     12
                      A                      A                      A
 Frequencies --    477.1150               498.5235               557.3514
 Red. masses --      3.8787                 4.4022                 5.5396
 Frc consts  --      0.5202                 0.6446                 1.0139
 IR Inten    --      8.8789                 1.0800                 3.1078

                     13                     14                     15
                      A                      A                      A
 Frequencies --    583.3756               641.5376               670.4250
 Red. masses --      2.7678                 3.4844                 4.0167
 Frc consts  --      0.5550                 0.8449                 1.0637
 IR Inten    --     33.1111                 1.8891                 3.3178

                     16                     17                     18
                      A                      A                      A
 Frequencies --    733.1743               803.2713               844.8727
 Red. masses --      1.2075                 1.8940                 2.1517
 Frc consts  --      0.3824                 0.7200                 0.9049
 IR Inten    --     24.2573                81.2379                 5.3568

                     19                     20                     21
                      A                      A                      A
 Frequencies --    856.4730               910.0895               990.2177
 Red. masses --      4.3411                 2.2813                 2.4112
 Frc consts  --      1.8762                 1.1133                 1.3930
 IR Inten    --      9.1947                 0.2704                 9.3853

                     22                     23                     24
                      A                      A                      A
 Frequencies --   1020.4142              1029.5489              1062.4416
 Red. masses --      1.6127                 1.6540                 3.6048
 Frc consts  --      0.9894                 1.0330                 2.3974
 IR Inten    --      1.9502                 4.0987                15.5467

                     25                     26                     27
                      A                      A                      A
 Frequencies --   1068.0343              1077.0970              1108.5027
 Red. masses --      2.1801                 1.5074                 2.0478
 Frc consts  --      1.4652                 1.0304                 1.4826
 IR Inten    --      7.5149                 3.4140                 0.8456

                     28                     29                     30
                      A                      A                      A
 Frequencies --   1163.0303              1189.7047              1224.0885
 Red. masses --      3.1872                 1.7897                 1.1233
 Frc consts  --      2.5400                 1.4925                 0.9917
 IR Inten    --     16.8154                 1.9923                 2.5565

                     31                     32                     33
                      A                      A                      A
 Frequencies --   1234.5066              1245.3524              1294.5976
 Red. masses --      1.8047                 1.2637                 1.2331
 Frc consts  --      1.6205                 1.1548                 1.2176
 IR Inten    --      0.8951                 2.5818                 7.2776

                     34                     35                     36
                      A                      A                      A
 Frequencies --   1344.4256              1378.5424              1424.0025
 Red. masses --      1.4291                 1.5735                 1.9321
 Frc consts  --      1.5219                 1.7618                 2.3084
 IR Inten    --     11.4099                17.1697                 9.0137

                     37                     38                     39
                      A                      A                      A
 Frequencies --   1442.7341              1461.2953              1502.7242
 Red. masses --      1.2761                 2.2977                 1.3150
 Frc consts  --      1.5649                 2.8908                 1.7496
 IR Inten    --      0.5822                16.4023                 1.4091

                     40                     41                     42
                      A                      A                      A
 Frequencies --   1503.6325              1511.8071              1514.1560
 Red. masses --      1.1744                 1.0514                 1.3574
 Frc consts  --      1.5645                 1.4158                 1.8336
 IR Inten    --      3.9584                 7.8457                 6.0685

                     43                     44                     45
                      A                      A                      A
 Frequencies --   1523.3039              1535.1397              1552.7040
 Red. masses --      1.1349                 1.1441                 2.4276
 Frc consts  --      1.5516                 1.5885                 3.4483
 IR Inten    --      1.9470                 1.0423                 2.9237

                     46                     47                     48
                      A                      A                      A
 Frequencies --   1641.6900              2903.1552              2939.9110
 Red. masses --      6.6341                 1.0747                 1.0733
 Frc consts  --     10.5345                 5.3367                 5.4654
 IR Inten    --      2.8238                79.4795                88.5944

                     49                     50                     51
                      A                      A                      A
 Frequencies --   3036.2441              3041.7558              3050.3086
 Red. masses --      1.0389                 1.0604                 1.0842
 Frc consts  --      5.6426                 5.7804                 5.9436
 IR Inten    --     31.8087                29.0433                40.9095

                     52                     53                     54
                      A                      A                      A
 Frequencies --   3079.4625              3083.1012              3093.9807
 Red. masses --      1.1020                 1.1007                 1.0901
 Frc consts  --      6.1574                 6.1647                 6.1483
 IR Inten    --     25.1316                23.1872                51.6389

                     55                     56                     57
                      A                      A                      A
 Frequencies --   3128.4954              3260.9054              3513.7268
 Red. masses --      1.0994                 1.0938                 1.0748
 Frc consts  --      6.3397                 6.8526                 7.8180
 IR Inten    --     20.0275                 1.3385                 1.1761

 - Thermochemistry -
 -------------------
 Temperature   298.150 Kelvin.  Pressure   1.00000 Atm.
 Atom     1 has atomic number  6 and mass  12.00000

 Molecular mass:   153.06122 amu.
 Principal axes and moments of inertia in atomic units:
                           1         2         3
     Eigenvalues --  1054.719391637.010622614.52860
           X            0.99633   0.08546  -0.00502
           Y           -0.08544   0.99634   0.00278
           Z            0.00524  -0.00235   0.99998
 This molecule is an asymmetric top.
 Rotational symmetry number  1.
 Warning -- assumption of classical behavior for rotation
           may cause significant error
 Rotational temperatures (Kelvin)      0.08212     0.05291     0.03313
 Rotational constants (GHZ):           1.71111     1.10246     0.69027
 Zero-point vibrational energy     466874.2 (Joules/Mol)
                                  111.58561 (Kcal/Mol)
 Warning -- explicit consideration of  13 degrees of freedom as
           vibrations may cause significant error
 Vibrational temperatures:    165.61   189.51   216.77   322.86   363.84
          (Kelvin)            398.15   478.56   525.46   654.65   686.46
                              717.26   801.90   839.35   923.03   964.59
                             1054.87  1155.73  1215.58  1232.27  1309.42
                             1424.70  1468.15  1481.29  1528.62  1536.66
                             1549.70  1594.89  1673.34  1711.72  1761.19
                             1776.18  1791.78  1862.64  1934.33  1983.42
                             2048.82  2075.77  2102.48  2162.08  2163.39
                             2175.15  2178.53  2191.69  2208.72  2233.99
                             2362.03  4176.99  4229.88  4368.48  4376.41
                             4388.71  4430.66  4435.89  4451.55  4501.21
                             4691.72  5055.47

 Zero-point correction=                           0.177823 (Hartree/Particle)
 Thermal correction to Energy=                    0.186941
 Thermal correction to Enthalpy=                  0.187886
 Thermal correction to Gibbs Free Energy=         0.143719
 Sum of electronic and zero-point Energies=           -764.265838
 Sum of electronic and thermal Energies=              -764.256720
 Sum of electronic and thermal Enthalpies=            -764.255775
 Sum of electronic and thermal Free Energies=         -764.299942

                     E (Thermal)             CV                S
                      KCal/Mol        Cal/Mol-Kelvin    Cal/Mol-Kelvin
 Total                  117.308             35.601             92.957
 Electronic               0.000              0.000              0.000
 Translational            0.889              2.981             40.987
 Rotational               0.889              2.981             29.891
 Vibrational            115.530             29.640             22.079
 Vibration     1          0.608              1.937              3.181
 Vibration     2          0.612              1.922              2.921
 Vibration     3          0.618              1.902              2.664
 Vibration     4          0.649              1.804              1.923
 Vibration     5          0.664              1.758              1.710
 Vibration     6          0.678              1.716              1.554
 Vibration     7          0.715              1.610              1.247
 Vibration     8          0.738              1.544              1.100
 Vibration     9          0.813              1.350              0.781
 Vibration    10          0.834              1.301              0.718
 Vibration    11          0.854              1.253              0.662
 Vibration    12          0.913              1.124              0.529
 Vibration    13          0.940              1.067              0.479

 Optimization completed.
    -- Stationary point found.
 Normal termination of Gaussian 16 at Tue Dec  8 12:24:43 2020.

 ----------------------------------------------------------------------
 # B3LYP/6-311++G(d,p) empiricaldispersion=gd3bj scf=xqc pop=npa geom=c
 heck
 ----------------------------------------------------------------------

 -------------------------------------
 CID_18377318_JID_630_Energie_neutraal
 -------------------------------------
 Structure from the checkpoint file:  "JID_630.chk"
 Charge =  0 Multiplicity = 1

 SCF Done:  E(RB3LYP) =  -764.569808546     A.U. after   14 cycles
 Normal termination of Gaussian 16 at Tue Dec  8 12:26:38 2020.

 ----------------------------------------------------------------------
 # B3LYP/6-311++G(d,p) empiricaldispersion=gd3bj scf=xqc pop=npa geom=c
 heck
 ----------------------------------------------------------------------

 -----------------------------------
 CID_18377318_JID_630_Energie_kation
 -----------------------------------
 Structure from the checkpoint file:  "JID_630.chk"
 Charge =  1 Multiplicity = 2

 SCF Done:  E(UB3LYP) =  -764.278106930     A.U. after   29 cycles
 Normal termination of Gaussian 16 at Tue Dec  8 12:32:28 2020.
 Gaussian 16:  ES64L-G16RevA.03 25-Dec-2016

 ----------------------------------------------------------------------
 # B3LYP/6-311++G(d,p) empiricaldispersion=gd3bj scf=xqc pop=npa geom=c
 heck
 ----------------------------------------------------------------------

 ----------------------------------
 CID_18377318_JID_630_Energie_anion
 ----------------------------------
 Structure from the checkpoint file:  "JID_630.chk"
 Charge = -1 Multiplicity = 2

                         Standard orientation:
 ---------------------------------------------------------------------
 Center     Atomic      Atomic             Coordinates (Angstroms)
 Number     Number       Type             X           Y           Z
 ---------------------------------------------------------------------
      1          6           0        2.125773    2.100371    0.065478
      2          6           0        1.496956    0.736292    0.023471
      3          6           0        2.192037   -0.441073    0.020224
      4         16           0        1.143885   -1.830415   -0.031430
      5          6           0       -0.269606   -0.808258   -0.048427
      6          6           0        0.075033    0.515074   -0.021807
      7          6           0       -0.974988    1.594150   -0.014506
      8          7           0       -2.276250    1.036965   -0.390763
      9          6           0       -2.608741   -0.170974    0.365326
     10          6           0       -1.682545   -1.311765   -0.079448
     11          1           0        1.803367    2.663915    0.950632
     12          1           0        1.846825    2.697322   -0.812505
     13          1           0        3.217277    2.033239    0.090962
     14          1           0        3.265465   -0.573390    0.042881
     15          1           0       -0.715561    2.381645   -0.734172
     16          1           0       -0.986137    2.075401    0.985274
     17          1           0       -2.995209    1.741713   -0.249496
     18          1           0       -2.508327   -0.035191    1.459323
     19          1           0       -3.651309   -0.433103    0.158045
     20          1           0       -1.812328   -2.178652    0.579987
     21          1           0       -1.955980   -1.627918   -1.094572
 ---------------------------------------------------------------------

 SCF Done:  E(UB3LYP) =  -764.553759368     A.U. after   31 cycles

 The electronic state is 2-A.
 Alpha  occ. eigenvalues --  -88.76587 -14.18891 -10.09122 -10.08856 -10.08679
 Alpha  occ. eigenvalues --  -10.08621 -10.07729 -10.07524 -10.06717 -10.06375
 Alpha  occ. eigenvalues --   -7.85220  -5.81509  -5.81156  -5.80806  -0.81015
 Alpha  occ. eigenvalues --   -0.76897  -0.68016  -0.64845  -0.63529  -0.56653
 Alpha  occ. eigenvalues --   -0.53577  -0.50399  -0.45560  -0.39995  -0.38273
 Alpha  occ. eigenvalues --   -0.36592  -0.35639  -0.33645  -0.31810  -0.31060
 Alpha  occ. eigenvalues --   -0.29721  -0.29300  -0.28082  -0.26559  -0.24667
 Alpha  occ. eigenvalues --   -0.24364  -0.23349  -0.22323  -0.13844  -0.12021
 Alpha  occ. eigenvalues --   -0.11848   0.04783
 Alpha virt. eigenvalues --    0.06614   0.07955   0.08595   0.08965   0.09396
 Alpha virt. eigenvalues --    0.09581   0.10907   0.11309   0.11896   0.12629
 Alpha virt. eigenvalues --    0.13176   0.13468   0.14440   0.15031   0.15103

  Beta  occ. eigenvalues --  -88.76584 -14.18857 -10.09114 -10.08823 -10.08645
  Beta  occ. eigenvalues --  -10.08609 -10.07729 -10.07516 -10.06712 -10.06330
  Beta  occ. eigenvalues --   -7.85217  -5.81507  -5.81150  -5.80801  -0.80970
  Beta  occ. eigenvalues --   -0.76871  -0.67983  -0.64810  -0.63479  -0.56595
  Beta  occ. eigenvalues --   -0.53520  -0.50319  -0.45512  -0.39947  -0.38189
  Beta  occ. eigenvalues --   -0.36551  -0.35603  -0.33589  -0.31770  -0.31020
  Beta  occ. eigenvalues --   -0.29678  -0.29259  -0.28040  -0.26517  -0.24632
  Beta  occ. eigenvalues --   -0.24330  -0.23312  -0.22280  -0.13811  -0.11978
  Beta  occ. eigenvalues --   -0.11797
  Beta virt. eigenvalues --    0.07287   0.07738   0.08578   0.08664   0.09614
  Beta virt. eigenvalues --    0.10021   0.10340   0.11525   0.11836   0.12115
  Beta virt. eigenvalues --    0.12987   0.13461   0.13915   0.14741   0.14983

 Mulliken charges and spin densities:
               1          2
     1  C    2.939333  -3.729238
     2  C   -2.248201   2.404241
     3  C    0.940843  -0.712263
     4  S   -0.190822  -0.524418
     5  C    0.928564  -0.192301
     6  C   -2.622527   2.342410
     7  C    2.145583  -2.951406
     8  N   -0.438222   0.342460
     9  C    1.187674  -1.503151
    10  C   -0.822036   0.803913
    11  H   -0.201947   0.359893
    12  H   -0.170323   0.323578
    13  H   -0.564928   0.717462
    14  H   -0.257441   0.486394
    15  H   -0.103955   0.285484
    16  H   -0.375916   0.549622
    17  H   -0.320867   0.578717
    18  H   -0.051823   0.154940
    19  H   -0.816012   1.006615
    20  H   -0.041474   0.172074
    21  H    0.084498   0.084976
 Sum of Mulliken charges =  -1.00000   1.00000

 Dipole moment (field-independent basis, Debye):
    X=              2.9848    Y=             -5.9183    Z=             -0.6361  Tot=              6.6588
 Quadrupole moment (field-independent basis, Debye-Ang):
   XX=           -136.7339   YY=           -111.6719   ZZ=            -94.8586
   XY=             -1.6210   XZ=             -0.6514   YZ=             -1.6264

 Summary of Natural Population Analysis:

                                       Natural Population
                Natural  -----------------------------------------------
    Atom  No    Charge         Core      Valence    Rydberg      Total
 -----------------------------------------------------------------------
      C    1   -0.29160      0.99963     2.28627    0.00570     3.29160
      C    2   -0.03349      0.99945     2.02267    0.01137     3.03349
      C    3   -0.19574      0.99945     2.18465    0.01164     3.19574
      S    4    0.18947      4.99941     2.79052    0.02060     7.81053
      C    5   -0.08987      0.99939     2.07911    0.01137     3.08987
      C    6   -0.04416      0.99937     2.03313    0.01167     3.04416
      C    7   -0.08855      0.99958     2.07699    0.01198     3.08855
      N    8   -0.33845      0.99974     2.82580    0.01290     3.83845
      C    9   -0.08226      0.99963     2.07015    0.01248     3.08226
      C   10   -0.20485      0.99957     2.19428    0.01100     3.20485
      H   11    0.10682      0.00000     0.39151    0.00166     0.39318
      H   12    0.10524      0.00000     0.39326    0.00150     0.39476
      H   13    0.10457      0.00000     0.39387    0.00156     0.39543
      H   14    0.10744      0.00000     0.39159    0.00097     0.39256
      H   15    0.10153      0.00000     0.39681    0.00166     0.39847
      H   16    0.08900      0.00000     0.40845    0.00255     0.41100
      H   17    0.18145      0.00000     0.31136    0.00719     0.31855
      H   18    0.07842      0.00000     0.41937    0.00220     0.42158
      H   19    0.09900      0.00000     0.39842    0.00258     0.40100
      H   20    0.10153      0.00000     0.39730    0.00117     0.39847
      H   21    0.10450      0.00000     0.39397    0.00153     0.39550
 =======================================================================
   * Total *    0.00000     13.99524    26.85947    0.14530    41.00000

 Normal termination of Gaussian 16 at Tue Dec  8 12:40:11 2020.
