 Gaussian 16, Revision A.03,

 -----------------------------------------------------------
 # opt freq B3LYP/6-31G(d) empiricaldispersion=gd3bj scf=xqc
 -----------------------------------------------------------

 -------------------------------
 CID_105569825_JID_5999_neutraal
 -------------------------------
 Symbolic Z-matrix:
 Charge =  0 Multiplicity = 1

 SCF Done:  E(RB3LYP) =  -657.692245931     A.U. after   13 cycles
 SCF Done:  E(RB3LYP) =  -657.696439876     A.U. after   11 cycles
 SCF Done:  E(RB3LYP) =  -657.697111350     A.U. after   10 cycles
 SCF Done:  E(RB3LYP) =  -657.697657053     A.U. after   10 cycles
 SCF Done:  E(RB3LYP) =  -657.697803607     A.U. after   10 cycles
 SCF Done:  E(RB3LYP) =  -657.697827531     A.U. after   10 cycles
 SCF Done:  E(RB3LYP) =  -657.697839898     A.U. after    9 cycles
 SCF Done:  E(RB3LYP) =  -657.697841757     A.U. after    7 cycles
 SCF Done:  E(RB3LYP) =  -657.697842318     A.U. after    7 cycles
 SCF Done:  E(RB3LYP) =  -657.697842406     A.U. after    6 cycles
 SCF Done:  E(RB3LYP) =  -657.697842439     A.U. after    6 cycles
 Optimization completed.
    -- Stationary point found.
 Normal termination of Gaussian 16 at Thu Dec 10 17:46:50 2020.

 --------------------------------------------------------------------
 #N Geom=AllCheck Guess=TCheck SCRF=Check GenChk RB3LYP/6-31G(d) Freq
 --------------------------------------------------------------------

 Structure from the checkpoint file:  "JID_5999.chk"
 -------------------------------
 CID_105569825_JID_5999_neutraal
 -------------------------------
 Charge =  0 Multiplicity = 1

 SCF Done:  E(RB3LYP) =  -657.697842439     A.U. after    1 cycles

  Exact polarizability: 154.861   2.826 143.191  -2.203   1.428 127.780
 Approx polarizability: 193.941   2.754 196.257  -1.074  -0.880 191.819

                      1                      2                      3
                      A                      A                      A
 Frequencies --     28.3064                40.9901                70.5251
 Red. masses --      3.4455                 3.3240                 2.6111
 Frc consts  --      0.0016                 0.0033                 0.0077
 IR Inten    --      0.2072                 0.2760                 0.7074

                      4                      5                      6
                      A                      A                      A
 Frequencies --     78.5868                88.4581               111.7959
 Red. masses --      2.9352                 2.8112                 2.9909
 Frc consts  --      0.0107                 0.0130                 0.0220
 IR Inten    --      0.1955                 2.4939                 1.8912

                      7                      8                      9
                      A                      A                      A
 Frequencies --    175.7184               199.3465               220.7903
 Red. masses --      2.4218                 3.0424                 1.4103
 Frc consts  --      0.0441                 0.0712                 0.0405
 IR Inten    --      0.6038                 0.0974                 1.6735

                     10                     11                     12
                      A                      A                      A
 Frequencies --    229.8544               235.5111               251.9032
 Red. masses --      1.3078                 1.1221                 2.1964
 Frc consts  --      0.0407                 0.0367                 0.0821
 IR Inten    --      1.4394                 0.2133                 0.5814

                     13                     14                     15
                      A                      A                      A
 Frequencies --    260.0251               274.5023               275.7207
 Red. masses --      2.2418                 1.2755                 1.5982
 Frc consts  --      0.0893                 0.0566                 0.0716
 IR Inten    --      0.3975                 0.4861                 2.5682

                     16                     17                     18
                      A                      A                      A
 Frequencies --    308.4727               334.5586               355.7131
 Red. masses --      2.2954                 2.1606                 2.6724
 Frc consts  --      0.1287                 0.1425                 0.1992
 IR Inten    --      0.6978                 1.3277                 1.1593

                     19                     20                     21
                      A                      A                      A
 Frequencies --    381.8961               399.9821               409.2045
 Red. masses --      2.6164                 2.1075                 1.8779
 Frc consts  --      0.2248                 0.1987                 0.1853
 IR Inten    --      1.5497                 5.0818                 1.9847

                     22                     23                     24
                      A                      A                      A
 Frequencies --    445.5394               465.4668               475.1022
 Red. masses --      2.2425                 2.9812                 2.1981
 Frc consts  --      0.2623                 0.3806                 0.2923
 IR Inten    --      3.3720                 6.6621                 0.7816

                     25                     26                     27
                      A                      A                      A
 Frequencies --    500.7483               541.7298               586.9637
 Red. masses --      2.8508                 2.3164                 2.4394
 Frc consts  --      0.4212                 0.4005                 0.4952
 IR Inten    --      2.0731                 5.5509                11.6765

                     28                     29                     30
                      A                      A                      A
 Frequencies --    605.4770               715.2448               785.5070
 Red. masses --      2.4958                 2.6590                 1.5818
 Frc consts  --      0.5391                 0.8014                 0.5750
 IR Inten    --     20.0469                14.4702                58.7362

                     31                     32                     33
                      A                      A                      A
 Frequencies --    826.3581               855.7240               866.2618
 Red. masses --      3.3241                 2.3728                 2.3612
 Frc consts  --      1.3374                 1.0237                 1.0440
 IR Inten    --      5.4364                 7.6726                 1.6682

                     34                     35                     36
                      A                      A                      A
 Frequencies --    876.6869               915.4178               938.9422
 Red. masses --      1.9685                 1.6038                 1.9651
 Frc consts  --      0.8914                 0.7919                 1.0207
 IR Inten    --     16.0677                 1.7682                 6.3962

                     37                     38                     39
                      A                      A                      A
 Frequencies --    944.2005               961.8872               971.3979
 Red. masses --      2.0500                 1.6226                 1.8162
 Frc consts  --      1.0768                 0.8845                 1.0097
 IR Inten    --      7.7188                 2.6647                 0.6191

                     40                     41                     42
                      A                      A                      A
 Frequencies --    999.8615              1023.2682              1037.9530
 Red. masses --      1.9954                 1.5001                 1.9860
 Frc consts  --      1.1753                 0.9254                 1.2606
 IR Inten    --      9.5371                 1.2314                33.6082

                     43                     44                     45
                      A                      A                      A
 Frequencies --   1043.4816              1075.8432              1082.0403
 Red. masses --      2.2221                 1.9191                 1.8720
 Frc consts  --      1.4256                 1.3087                 1.2913
 IR Inten    --     25.4670                 4.3635                21.4948

                     46                     47                     48
                      A                      A                      A
 Frequencies --   1083.1712              1092.9980              1102.0844
 Red. masses --      2.4268                 1.9721                 1.7486
 Frc consts  --      1.6776                 1.3881                 1.2513
 IR Inten    --     18.7030                16.6133                12.7919

                     49                     50                     51
                      A                      A                      A
 Frequencies --   1154.6576              1165.8436              1172.0826
 Red. masses --      2.0270                 1.9497                 4.7286
 Frc consts  --      1.5923                 1.5614                 3.8273
 IR Inten    --     33.2137                 2.0868               126.2778

                     52                     53                     54
                      A                      A                      A
 Frequencies --   1175.4372              1193.4129              1199.2224
 Red. masses --      1.7959                 1.3482                 1.5176
 Frc consts  --      1.4620                 1.1313                 1.2859
 IR Inten    --      8.4391                 3.9796                 0.7970

                     55                     56                     57
                      A                      A                      A
 Frequencies --   1204.6662              1218.9438              1233.5553
 Red. masses --      1.7786                 1.7001                 1.7263
 Frc consts  --      1.5207                 1.4883                 1.5477
 IR Inten    --     13.2968                18.1720                 3.3547

                     58                     59                     60
                      A                      A                      A
 Frequencies --   1255.0830              1267.3089              1287.3004
 Red. masses --      1.6401                 1.7060                 1.2315
 Frc consts  --      1.5222                 1.6143                 1.2024
 IR Inten    --     19.0523                 8.4194                 6.6800

                     61                     62                     63
                      A                      A                      A
 Frequencies --   1300.2349              1324.1351              1335.9245
 Red. masses --      1.9229                 1.3140                 1.3174
 Frc consts  --      1.9154                 1.3574                 1.3852
 IR Inten    --      5.0174                 2.3148                 9.0251

                     64                     65                     66
                      A                      A                      A
 Frequencies --   1360.7516              1367.1651              1382.8754
 Red. masses --      1.5512                 1.2649                 1.4471
 Frc consts  --      1.6923                 1.3929                 1.6304
 IR Inten    --     15.7087                 4.7186                 5.7155

                     67                     68                     69
                      A                      A                      A
 Frequencies --   1392.1886              1398.6302              1408.9608
 Red. masses --      1.4581                 1.4485                 1.3121
 Frc consts  --      1.6651                 1.6695                 1.5347
 IR Inten    --      3.0371                 0.6293                28.2069

                     70                     71                     72
                      A                      A                      A
 Frequencies --   1423.1645              1427.2417              1431.9502
 Red. masses --      1.3206                 1.3597                 1.3360
 Frc consts  --      1.5760                 1.6319                 1.6140
 IR Inten    --      9.2924                 4.7055                 3.6904

                     73                     74                     75
                      A                      A                      A
 Frequencies --   1436.0829              1449.4398              1482.8337
 Red. masses --      1.3581                 1.2347                 1.1314
 Frc consts  --      1.6502                 1.5283                 1.4658
 IR Inten    --     15.2001                 8.1615                 1.8594

                     76                     77                     78
                      A                      A                      A
 Frequencies --   1494.1804              1500.7239              1502.8071
 Red. masses --      1.1239                 1.2034                 1.1561
 Frc consts  --      1.4784                 1.5969                 1.5383
 IR Inten    --      8.2492                 5.1716                 2.0194

                     79                     80                     81
                      A                      A                      A
 Frequencies --   1508.4491              1513.5378              1514.8347
 Red. masses --      1.0901                 1.0774                 1.0482
 Frc consts  --      1.4614                 1.4542                 1.4172
 IR Inten    --      1.2050                 3.0487                 5.5799

                     82                     83                     84
                      A                      A                      A
 Frequencies --   1515.8837              1517.3089              1522.9507
 Red. masses --      1.0682                 1.0893                 1.0931
 Frc consts  --      1.4462                 1.4775                 1.4937
 IR Inten    --      5.4748                 5.9354                 6.1079

                     85                     86                     87
                      A                      A                      A
 Frequencies --   1528.6953              1530.2134              1535.6451
 Red. masses --      1.0704                 1.0719                 1.0686
 Frc consts  --      1.4738                 1.4787                 1.4847
 IR Inten    --      5.6643                 8.4287                 9.8586

                     88                     89                     90
                      A                      A                      A
 Frequencies --   1543.2600              1545.3015              1550.4958
 Red. masses --      1.0707                 1.0883                 1.0640
 Frc consts  --      1.5024                 1.5312                 1.5071
 IR Inten    --      3.8395                 1.5466                 8.1910

                     91                     92                     93
                      A                      A                      A
 Frequencies --   1558.1427              2936.9589              2939.6367
 Red. masses --      1.0852                 1.0727                 1.0634
 Frc consts  --      1.5522                 5.4516                 5.4143
 IR Inten    --      2.4064                60.2720                43.1519

                     94                     95                     96
                      A                      A                      A
 Frequencies --   2950.4880              2967.4122              2988.8982
 Red. masses --      1.0743                 1.0586                 1.0423
 Frc consts  --      5.5104                 5.4922                 5.4861
 IR Inten    --    109.9849                46.7105                95.0719

                     97                     98                     99
                      A                      A                      A
 Frequencies --   3002.7436              3026.1030              3030.4118
 Red. masses --      1.0950                 1.0615                 1.1049
 Frc consts  --      5.8168                 5.7271                 5.9783
 IR Inten    --     64.6678                26.7930                65.4400

                    100                    101                    102
                      A                      A                      A
 Frequencies --   3037.4324              3040.6745              3043.9031
 Red. masses --      1.0641                 1.0471                 1.0684
 Frc consts  --      5.7842                 5.7040                 5.8324
 IR Inten    --     49.7658                16.2416                26.1958

                    103                    104                    105
                      A                      A                      A
 Frequencies --   3048.7605              3049.6794              3064.5548
 Red. masses --      1.0579                 1.0567                 1.0949
 Frc consts  --      5.7937                 5.7904                 6.0586
 IR Inten    --     38.5589                23.5505                55.1933

                    106                    107                    108
                      A                      A                      A
 Frequencies --   3073.3928              3076.0447              3087.4282
 Red. masses --      1.0867                 1.0706                 1.1014
 Frc consts  --      6.0479                 5.9684                 6.1855
 IR Inten    --     74.0235                37.9833                32.0466

                    109                    110                    111
                      A                      A                      A
 Frequencies --   3093.8493              3098.6123              3112.1404
 Red. masses --      1.1034                 1.1015                 1.0968
 Frc consts  --      6.2228                 6.2313                 6.2586
 IR Inten    --     47.6722                28.1384                65.1210

                    112                    113                    114
                      A                      A                      A
 Frequencies --   3119.5907              3128.4338              3134.6319
 Red. masses --      1.1020                 1.0904                 1.0978
 Frc consts  --      6.3188                 6.2876                 6.3553
 IR Inten    --     32.6673                 3.2222                47.6381

                    115                    116                    117
                      A                      A                      A
 Frequencies --   3135.9607              3151.3867              3488.9705
 Red. masses --      1.0965                 1.0974                 1.0742
 Frc consts  --      6.3530                 6.4213                 7.7044
 IR Inten    --     29.9209                17.0263                 3.6395

 - Thermochemistry -
 -------------------
 Temperature   298.150 Kelvin.  Pressure   1.00000 Atm.
 Atom     1 has atomic number  6 and mass  12.00000

 Molecular mass:   214.20451 amu.
 Principal axes and moments of inertia in atomic units:
                           1         2         3
     Eigenvalues --  2047.894865163.381545860.29526
           X            0.99996  -0.00472  -0.00809
           Y            0.00472   0.99999   0.00018
           Z            0.00809  -0.00021   0.99997
 This molecule is an asymmetric top.
 Rotational symmetry number  1.
 Warning -- assumption of classical behavior for rotation
           may cause significant error
 Rotational temperatures (Kelvin)      0.04229     0.01677     0.01478
 Rotational constants (GHZ):           0.88127     0.34953     0.30796
 Zero-point vibrational energy    1000142.9 (Joules/Mol)
                                  239.03990 (Kcal/Mol)
 Warning -- explicit consideration of  28 degrees of freedom as
           vibrations may cause significant error
 Vibrational temperatures:     40.73    58.98   101.47   113.07   127.27
          (Kelvin)            160.85   252.82   286.82   317.67   330.71
                              338.85   362.43   374.12   394.95   396.70
                              443.82   481.36   511.79   549.46   575.49
                              588.75   641.03   669.70   683.57   720.47
                              779.43   844.51   871.15  1029.08  1130.17
                             1188.95  1231.20  1246.36  1261.36  1317.08
                             1350.93  1358.49  1383.94  1397.62  1438.58
                             1472.25  1493.38  1501.34  1547.90  1556.81
                             1558.44  1572.58  1585.65  1661.29  1677.39
                             1686.37  1691.19  1717.05  1725.41  1733.25
                             1753.79  1774.81  1805.78  1823.37  1852.14
                             1870.75  1905.14  1922.10  1957.82  1967.05
                             1989.65  2003.05  2012.32  2027.18  2047.62
                             2053.48  2060.26  2066.20  2085.42  2133.47
                             2149.79  2159.21  2162.20  2170.32  2177.64
                             2179.51  2181.02  2183.07  2191.19  2199.45
                             2201.64  2209.45  2220.41  2223.34  2230.82
                             2241.82  4225.63  4229.48  4245.09  4269.44
                             4300.36  4320.28  4353.89  4360.09  4370.19
                             4374.85  4379.50  4386.49  4387.81  4409.21
                             4421.93  4425.74  4442.12  4451.36  4458.21
                             4477.68  4488.40  4501.12  4510.04  4511.95
                             4534.14  5019.85

 Zero-point correction=                           0.380934 (Hartree/Particle)
 Thermal correction to Energy=                    0.398018
 Thermal correction to Enthalpy=                  0.398962
 Thermal correction to Gibbs Free Energy=         0.336357
 Sum of electronic and zero-point Energies=           -657.316908
 Sum of electronic and thermal Energies=              -657.299824
 Sum of electronic and thermal Enthalpies=            -657.298880
 Sum of electronic and thermal Free Energies=         -657.361486

                     E (Thermal)             CV                S
                      KCal/Mol        Cal/Mol-Kelvin    Cal/Mol-Kelvin
 Total                  249.760             65.471            131.765
 Electronic               0.000              0.000              0.000
 Translational            0.889              2.981             41.989
 Rotational               0.889              2.981             32.494
 Vibrational            247.983             59.510             57.282
 Vibration     1          0.593              1.984              5.945
 Vibration     2          0.594              1.981              5.211
 Vibration     3          0.598              1.968              4.139
 Vibration     4          0.600              1.964              3.926
 Vibration     5          0.601              1.957              3.694
 Vibration     6          0.607              1.940              3.237
 Vibration     7          0.628              1.872              2.373
 Vibration     8          0.637              1.841              2.139
 Vibration     9          0.648              1.809              1.953
 Vibration    10          0.652              1.795              1.880
 Vibration    11          0.655              1.786              1.837
 Vibration    12          0.664              1.760              1.717
 Vibration    13          0.668              1.746              1.662
 Vibration    14          0.677              1.720              1.568
 Vibration    15          0.677              1.718              1.560
 Vibration    16          0.698              1.658              1.371
 Vibration    17          0.716              1.606              1.238
 Vibration    18          0.731              1.564              1.141
 Vibration    19          0.751              1.509              1.032
 Vibration    20          0.766              1.470              0.963
 Vibration    21          0.774              1.450              0.929
 Vibration    22          0.805              1.371              0.809
 Vibration    23          0.823              1.327              0.750
 Vibration    24          0.832              1.305              0.723
 Vibration    25          0.856              1.248              0.656
 Vibration    26          0.897              1.158              0.562
 Vibration    27          0.944              1.060              0.473
 Vibration    28          0.964              1.020              0.440

 Optimization completed.
    -- Stationary point found.
 Normal termination of Gaussian 16 at Thu Dec 10 18:02:53 2020.

 ----------------------------------------------------------------------
 # B3LYP/6-311++G(d,p) empiricaldispersion=gd3bj scf=xqc pop=npa geom=c
 heck
 ----------------------------------------------------------------------

 ---------------------------------------
 CID_105569825_JID_5999_Energie_neutraal
 ---------------------------------------
 Structure from the checkpoint file:  "JID_5999.chk"
 Charge =  0 Multiplicity = 1

 SCF Done:  E(RB3LYP) =  -657.886134229     A.U. after   13 cycles
 Normal termination of Gaussian 16 at Thu Dec 10 18:10:01 2020.

 ----------------------------------------------------------------------
 # B3LYP/6-311++G(d,p) empiricaldispersion=gd3bj scf=xqc pop=npa geom=c
 heck
 ----------------------------------------------------------------------

 -------------------------------------
 CID_105569825_JID_5999_Energie_kation
 -------------------------------------
 Structure from the checkpoint file:  "JID_5999.chk"
 Charge =  1 Multiplicity = 2

 SCF Done:  E(UB3LYP) =  -657.617898583     A.U. after   20 cycles
 Normal termination of Gaussian 16 at Thu Dec 10 18:22:46 2020.
 Gaussian 16:  ES64L-G16RevA.03 25-Dec-2016

 ----------------------------------------------------------------------
 # B3LYP/6-311++G(d,p) empiricaldispersion=gd3bj scf=xqc pop=npa geom=c
 heck
 ----------------------------------------------------------------------

 ------------------------------------
 CID_105569825_JID_5999_Energie_anion
 ------------------------------------
 Structure from the checkpoint file:  "JID_5999.chk"
 Charge = -1 Multiplicity = 2

                         Standard orientation:
 ---------------------------------------------------------------------
 Center     Atomic      Atomic             Coordinates (Angstroms)
 Number     Number       Type             X           Y           Z
 ---------------------------------------------------------------------
      1          6           0        3.379427   -1.176247    0.092780
      2          6           0        2.051236   -0.622988   -0.457826
      3          6           0        2.305875    0.657083   -1.288996
      4          6           0        2.792364    1.839116   -0.442632
      5          6           0        1.844505    2.071546    0.733279
      6          7           0        1.725725    0.831321    1.504567
      7          6           0        1.125245   -0.281180    0.747416
      8          6           0       -0.356031   -0.023123    0.367779
      9          7           0       -1.142594   -1.256699    0.320453
     10          6           0       -1.539219   -1.724826    1.636241
     11          6           0       -2.227711   -1.266702   -0.650591
     12          6           0       -3.419178   -0.340892   -0.395870
     13          8           0       -3.006429    1.004595   -0.545702
     14          6           0       -4.039567    1.924024   -0.273219
     15          6           0        1.428278   -1.690843   -1.368856
     16          1           0        3.812575   -0.506458    0.838375
     17          1           0        3.215265   -2.149166    0.572138
     18          1           0        4.104360   -1.322620   -0.717338
     19          1           0        3.027713    0.430765   -2.084569
     20          1           0        1.374178    0.946066   -1.795606
     21          1           0        3.797661    1.639562   -0.054254
     22          1           0        2.854914    2.745379   -1.057730
     23          1           0        2.242047    2.847179    1.398084
     24          1           0        0.875327    2.442962    0.348530
     25          1           0        1.163380    1.001617    2.335900
     26          1           0        1.144044   -1.150063    1.417132
     27          1           0       -0.785767    0.695820    1.089087
     28          1           0       -0.432043    0.465598   -0.605209
     29          1           0       -2.203965   -1.025367    2.178848
     30          1           0       -2.055804   -2.687123    1.546950
     31          1           0       -0.653699   -1.881222    2.260228
     32          1           0       -1.809502   -1.019539   -1.633583
     33          1           0       -2.613916   -2.293384   -0.713853
     34          1           0       -4.223068   -0.577221   -1.115656
     35          1           0       -3.833030   -0.502246    0.613640
     36          1           0       -4.406887    1.828319    0.761514
     37          1           0       -3.627766    2.926835   -0.413137
     38          1           0       -4.894664    1.789519   -0.955508
     39          1           0        1.153989   -2.587215   -0.804439
     40          1           0        0.524965   -1.330014   -1.869755
     41          1           0        2.147866   -1.976896   -2.146333
 ---------------------------------------------------------------------

 SCF Done:  E(UB3LYP) =  -657.872270996     A.U. after   26 cycles

 The electronic state is 2-A.
 Alpha  occ. eigenvalues --  -19.02521 -14.20119 -14.19458 -10.11165 -10.10927
 Alpha  occ. eigenvalues --  -10.09400 -10.09300 -10.09170 -10.08466 -10.08369
 Alpha  occ. eigenvalues --  -10.08215 -10.06960 -10.06937 -10.05889 -10.05821
 Alpha  occ. eigenvalues --   -0.93936  -0.82658  -0.80818  -0.71642  -0.67627
 Alpha  occ. eigenvalues --   -0.65559  -0.61749  -0.59048  -0.58613  -0.57544
 Alpha  occ. eigenvalues --   -0.54402  -0.51669  -0.49773  -0.47502  -0.42369
 Alpha  occ. eigenvalues --   -0.40902  -0.39832  -0.39179  -0.37661  -0.36850
 Alpha  occ. eigenvalues --   -0.36327  -0.34978  -0.34542  -0.33800  -0.32938
 Alpha  occ. eigenvalues --   -0.32320  -0.31312  -0.30370  -0.29186  -0.28382
 Alpha  occ. eigenvalues --   -0.28118  -0.27438  -0.27247  -0.26661  -0.26353
 Alpha  occ. eigenvalues --   -0.25976  -0.25215  -0.24045  -0.22639  -0.22295
 Alpha  occ. eigenvalues --   -0.21320  -0.20169  -0.16308  -0.13037  -0.10709
 Alpha  occ. eigenvalues --    0.04312
 Alpha virt. eigenvalues --    0.06319   0.06808   0.07126   0.07989   0.08530
 Alpha virt. eigenvalues --    0.08711   0.09265   0.09621   0.10375   0.10574
 Alpha virt. eigenvalues --    0.10843   0.11131   0.11671   0.12348   0.12511

  Beta  occ. eigenvalues --  -19.02510 -14.20118 -14.19446 -10.11136 -10.10886
  Beta  occ. eigenvalues --  -10.09386 -10.09295 -10.09156 -10.08467 -10.08332
  Beta  occ. eigenvalues --  -10.08205 -10.06951 -10.06928 -10.05882 -10.05815
  Beta  occ. eigenvalues --   -0.93919  -0.82644  -0.80800  -0.71631  -0.67607
  Beta  occ. eigenvalues --   -0.65525  -0.61721  -0.59007  -0.58580  -0.57507
  Beta  occ. eigenvalues --   -0.54344  -0.51618  -0.49743  -0.47448  -0.42338
  Beta  occ. eigenvalues --   -0.40871  -0.39787  -0.39136  -0.37629  -0.36825
  Beta  occ. eigenvalues --   -0.36306  -0.34946  -0.34512  -0.33785  -0.32911
  Beta  occ. eigenvalues --   -0.32299  -0.31288  -0.30345  -0.29155  -0.28364
  Beta  occ. eigenvalues --   -0.28106  -0.27394  -0.27222  -0.26639  -0.26331
  Beta  occ. eigenvalues --   -0.25957  -0.25195  -0.24025  -0.22571  -0.22282
  Beta  occ. eigenvalues --   -0.21299  -0.20153  -0.16283  -0.13020  -0.10693
  Beta virt. eigenvalues --    0.06220   0.07025   0.07304   0.07711   0.08367
  Beta virt. eigenvalues --    0.08834   0.09053   0.09614   0.09990   0.10620
  Beta virt. eigenvalues --    0.10889   0.11185   0.11442   0.11862   0.12572

 Mulliken charges and spin densities:
               1          2
     1  C   -0.326558  -0.129011
     2  C    0.648009   0.075318
     3  C   -0.377750   0.074031
     4  C   -0.124183  -0.436450
     5  C    0.062609  -0.321896
     6  N   -0.175393   0.044826
     7  C   -0.522717  -0.006117
     8  C   -1.163358   0.137438
     9  N    0.168892   0.096591
    10  C    0.878836  -1.180680
    11  C   -0.489843   0.257747
    12  C    0.597324  -0.888083
    13  O   -0.177274   0.080212
    14  C    0.731042  -0.996635
    15  C   -0.201622  -0.374048
    16  H    0.104174   0.048399
    17  H    0.047734   0.085793
    18  H    0.065316   0.062827
    19  H    0.018686   0.142640
    20  H   -0.049093   0.164732
    21  H    0.218822  -0.086335
    22  H   -0.174421   0.338440
    23  H   -0.288153   0.454636
    24  H    0.131569  -0.008489
    25  H   -0.039535   0.293718
    26  H    0.421791  -0.220869
    27  H    0.416609  -0.199676
    28  H    0.483367  -0.214058
    29  H   -0.266392   0.387907
    30  H   -0.203608   0.357873
    31  H   -0.274312   0.384934
    32  H    0.088947   0.057757
    33  H   -0.281774   0.443589
    34  H   -0.282426   0.430951
    35  H    0.006984   0.136906
    36  H   -0.338329   0.473680
    37  H   -0.332781   0.463074
    38  H   -0.298159   0.422556
    39  H    0.095408   0.058531
    40  H    0.117216   0.024930
    41  H    0.084348   0.062310
 Sum of Mulliken charges =  -1.00000   1.00000

 Dipole moment (field-independent basis, Debye):
    X=              6.2479    Y=             -1.6527    Z=             -2.1051  Tot=              6.7970
 Quadrupole moment (field-independent basis, Debye-Ang):
   XX=           -178.3763   YY=           -145.7742   ZZ=           -137.2316
   XY=              0.4893   XZ=             -1.0093   YZ=              1.7852

 Summary of Natural Population Analysis:

                                       Natural Population
                Natural  -----------------------------------------------
    Atom  No    Charge         Core      Valence    Rydberg      Total
 -----------------------------------------------------------------------
      C    1   -0.28624      0.99962     2.28059    0.00602     3.28624
      C    2   -0.04055      0.99955     2.03015    0.01085     3.04055
      C    3   -0.19059      0.99959     2.18119    0.00982     3.19059
      C    4   -0.19401      0.99962     2.18590    0.00849     3.19401
      C    5   -0.08870      0.99962     2.07803    0.01105     3.08870
      N    6   -0.34618      0.99974     2.83442    0.01202     3.84618
      C    7   -0.01061      0.99953     1.99619    0.01489     3.01061
      C    8   -0.09637      0.99958     2.08313    0.01367     3.09637
      N    9   -0.28506      0.99972     2.77151    0.01383     3.78506
      C   10   -0.17691      0.99963     2.16833    0.00895     3.17691
      C   11   -0.08665      0.99960     2.07454    0.01251     3.08665
      C   12   -0.01810      0.99958     2.00645    0.01206     3.01810
      O   13   -0.30097      0.99988     3.29060    0.01048     4.30097
      C   14   -0.09563      0.99962     2.08670    0.00930     3.09563
      C   15   -0.28275      0.99962     2.27676    0.00636     3.28275
      H   16    0.10868      0.00000     0.39017    0.00115     0.39132
      H   17    0.09762      0.00000     0.40155    0.00082     0.40238
      H   18    0.09362      0.00000     0.40560    0.00078     0.40638
      H   19    0.09758      0.00000     0.40155    0.00087     0.40242
      H   20    0.09774      0.00000     0.40096    0.00130     0.40226
      H   21    0.09489      0.00000     0.40395    0.00117     0.40511
      H   22    0.09791      0.00000     0.40114    0.00095     0.40209
      H   23    0.09437      0.00000     0.40457    0.00106     0.40563
      H   24    0.08018      0.00000     0.41816    0.00165     0.41982
      H   25    0.17557      0.00000     0.32181    0.00261     0.32443
      H   26    0.09721      0.00000     0.40087    0.00193     0.40279
      H   27    0.09002      0.00000     0.40807    0.00191     0.40998
      H   28    0.10184      0.00000     0.39565    0.00251     0.39816
      H   29    0.08317      0.00000     0.41494    0.00190     0.41683
      H   30    0.09554      0.00000     0.40332    0.00114     0.40446
      H   31    0.09389      0.00000     0.40481    0.00130     0.40611
      H   32    0.09518      0.00000     0.40336    0.00146     0.40482
      H   33    0.09600      0.00000     0.40290    0.00110     0.40400
      H   34    0.07986      0.00000     0.41827    0.00187     0.42014
      H   35    0.08136      0.00000     0.41664    0.00200     0.41864
      H   36    0.08003      0.00000     0.41820    0.00177     0.41997
      H   37    0.09024      0.00000     0.40842    0.00134     0.40976
      H   38    0.07755      0.00000     0.42048    0.00197     0.42245
      H   39    0.10469      0.00000     0.39419    0.00112     0.39531
      H   40    0.10100      0.00000     0.39800    0.00101     0.39900
      H   41    0.09357      0.00000     0.40557    0.00085     0.40643
 =======================================================================
   * Total *    0.00000     14.99452    44.80765    0.19783    60.00000

 Normal termination of Gaussian 16 at Thu Dec 10 18:37:58 2020.
