 Gaussian 16, Revision A.03,

 -----------------------------------------------------------
 # opt freq B3LYP/6-31G(d) empiricaldispersion=gd3bj scf=xqc
 -----------------------------------------------------------

 -------------------------------
 CID_149377434_JID_1151_neutraal
 -------------------------------
 Symbolic Z-matrix:
 Charge =  0 Multiplicity = 1

 SCF Done:  E(RB3LYP) =  -854.490305316     A.U. after   15 cycles
 SCF Done:  E(RB3LYP) =  -854.497399578     A.U. after   13 cycles
 SCF Done:  E(RB3LYP) =  -854.498511046     A.U. after   13 cycles
 SCF Done:  E(RB3LYP) =  -854.498586728     A.U. after   12 cycles
 SCF Done:  E(RB3LYP) =  -854.498929531     A.U. after   12 cycles
 SCF Done:  E(RB3LYP) =  -854.499060882     A.U. after   11 cycles
 SCF Done:  E(RB3LYP) =  -854.499110477     A.U. after   10 cycles
 SCF Done:  E(RB3LYP) =  -854.499126519     A.U. after    9 cycles
 SCF Done:  E(RB3LYP) =  -854.499148575     A.U. after   11 cycles
 SCF Done:  E(RB3LYP) =  -854.499153896     A.U. after   10 cycles
 SCF Done:  E(RB3LYP) =  -854.499182435     A.U. after    9 cycles
 SCF Done:  E(RB3LYP) =  -854.499182817     A.U. after    8 cycles
 SCF Done:  E(RB3LYP) =  -854.499182990     A.U. after    8 cycles
 SCF Done:  E(RB3LYP) =  -854.499183109     A.U. after    8 cycles
 SCF Done:  E(RB3LYP) =  -854.499183171     A.U. after    8 cycles
 Optimization completed.
    -- Stationary point found.
 Normal termination of Gaussian 16 at Tue Dec  8 19:16:12 2020.

 --------------------------------------------------------------------
 #N Geom=AllCheck Guess=TCheck SCRF=Check GenChk RB3LYP/6-31G(d) Freq
 --------------------------------------------------------------------

 Structure from the checkpoint file:  "JID_1151.chk"
 -------------------------------
 CID_149377434_JID_1151_neutraal
 -------------------------------
 Charge =  0 Multiplicity = 1

 SCF Done:  E(RB3LYP) =  -854.499183171     A.U. after    1 cycles

  Exact polarizability: 130.233   3.654 100.422  -5.039   1.145  61.056
 Approx polarizability: 187.659  12.009 181.660 -13.507   4.069  96.627

                      1                      2                      3
                      A                      A                      A
 Frequencies --     30.2176                44.6150               153.4906
 Red. masses --      5.9038                 6.3944                 5.6732
 Frc consts  --      0.0032                 0.0075                 0.0787
 IR Inten    --      3.2228                 0.7492                 2.1733

                      4                      5                      6
                      A                      A                      A
 Frequencies --    200.5650               227.0460               279.7843
 Red. masses --      3.4719                 3.8197                 1.6815
 Frc consts  --      0.0823                 0.1160                 0.0776
 IR Inten    --      7.4003                 9.2519                78.8300

                      7                      8                      9
                      A                      A                      A
 Frequencies --    328.9068               341.7733               438.3368
 Red. masses --      3.3439                 2.8702                 4.1574
 Frc consts  --      0.2131                 0.1975                 0.4706
 IR Inten    --     67.1848                42.9287                16.1686

                     10                     11                     12
                      A                      A                      A
 Frequencies --    484.7339               544.0827               549.0672
 Red. masses --      4.3520                 2.6918                 7.9695
 Frc consts  --      0.6025                 0.4695                 1.4156
 IR Inten    --      7.3982                 4.1121                19.1994

                     13                     14                     15
                      A                      A                      A
 Frequencies --    588.0694               596.9208               650.3110
 Red. masses --      2.3028                 5.2909                 1.5026
 Frc consts  --      0.4692                 1.1107                 0.3744
 IR Inten    --     25.1208                18.3530                25.8354

                     16                     17                     18
                      A                      A                      A
 Frequencies --    678.7838               682.0232               755.6452
 Red. masses --      1.7779                 2.2547                 5.0299
 Frc consts  --      0.4826                 0.6179                 1.6922
 IR Inten    --     14.5494                25.6883                47.1729

                     19                     20                     21
                      A                      A                      A
 Frequencies --    760.5032               819.6198               839.9842
 Red. masses --      2.7771                 3.8851                 3.2067
 Frc consts  --      0.9463                 1.5377                 1.3331
 IR Inten    --     12.1981                23.4722                11.3077

                     22                     23                     24
                      A                      A                      A
 Frequencies --    874.6846               889.1605               981.8001
 Red. masses --      1.2650                 1.8698                 2.7484
 Frc consts  --      0.5702                 0.8710                 1.5609
 IR Inten    --      1.8079                55.5473                 1.2847

                     25                     26                     27
                      A                      A                      A
 Frequencies --   1005.1094              1019.5410              1073.3393
 Red. masses --      3.6087                 2.1434                 2.3314
 Frc consts  --      2.1480                 1.3127                 1.5825
 IR Inten    --      6.5763                 5.4490                31.9894

                     28                     29                     30
                      A                      A                      A
 Frequencies --   1107.5885              1129.8676              1186.0363
 Red. masses --      1.7849                 1.3494                 1.2907
 Frc consts  --      1.2901                 1.0150                 1.0697
 IR Inten    --     14.1718                 9.4317                17.8609

                     31                     32                     33
                      A                      A                      A
 Frequencies --   1241.1914              1251.7679              1299.9692
 Red. masses --      1.4317                 3.2604                 1.4310
 Frc consts  --      1.2995                 3.0100                 1.4248
 IR Inten    --      8.2892                59.9232                 4.6982

                     34                     35                     36
                      A                      A                      A
 Frequencies --   1323.5644              1346.1617              1387.2740
 Red. masses --      1.1987                 1.5224                 3.1796
 Frc consts  --      1.2372                 1.6254                 3.6053
 IR Inten    --     29.5990                26.3074                66.0996

                     37                     38                     39
                      A                      A                      A
 Frequencies --   1427.8827              1446.1519              1510.8652
 Red. masses --      1.8958                 2.8755                 5.2994
 Frc consts  --      2.2773                 3.5432                 7.1273
 IR Inten    --     27.4480                10.3910                63.1754

                     40                     41                     42
                      A                      A                      A
 Frequencies --   1527.0085              1604.6797              1620.1433
 Red. masses --      1.1417                 1.5304                 3.9389
 Frc consts  --      1.5686                 2.3219                 6.0916
 IR Inten    --      3.0262               203.8281                16.8226

                     43                     44                     45
                      A                      A                      A
 Frequencies --   1811.6580              3050.4033              3071.0864
 Red. masses --      9.6792                 1.0685                 1.0857
 Frc consts  --     18.7173                 5.8579                 6.0333
 IR Inten    --    310.6032                28.2522                16.6222

                     46                     47                     48
                      A                      A                      A
 Frequencies --   3107.7736              3223.3657              3275.6396
 Red. masses --      1.0967                 1.0911                 1.0965
 Frc consts  --      6.2406                 6.6790                 6.9321
 IR Inten    --     24.0734                 7.6216                 0.9052

                     49                     50                     51
                      A                      A                      A
 Frequencies --   3512.2752              3574.7286              3713.5690
 Red. masses --      1.0756                 1.0446                 1.1053
 Frc consts  --      7.8179                 7.8647                 8.9807
 IR Inten    --      5.1466                39.8334                79.9579

 - Thermochemistry -
 -------------------
 Temperature   298.150 Kelvin.  Pressure   1.00000 Atm.
 Atom     1 has atomic number  6 and mass  12.00000

 Molecular mass:   168.03573 amu.
 Principal axes and moments of inertia in atomic units:
                           1         2         3
     Eigenvalues --   703.602693147.566743612.72773
           X            0.99983  -0.01850   0.00108
           Y            0.01850   0.99983  -0.00209
           Z           -0.00104   0.00211   1.00000
 This molecule is an asymmetric top.
 Rotational symmetry number  1.
 Warning -- assumption of classical behavior for rotation
           may cause significant error
 Rotational temperatures (Kelvin)      0.12310     0.02752     0.02397
 Rotational constants (GHZ):           2.56500     0.57338     0.49955
 Zero-point vibrational energy     386326.6 (Joules/Mol)
                                   92.33428 (Kcal/Mol)
 Warning -- explicit consideration of  14 degrees of freedom as
           vibrations may cause significant error
 Vibrational temperatures:     43.48    64.19   220.84   288.57   326.67
          (Kelvin)            402.55   473.22   491.74   630.67   697.42
                              782.81   789.99   846.10   858.84   935.65
                              976.62   981.28  1087.20  1094.19  1179.25
                             1208.55  1258.48  1279.30  1412.59  1446.13
                             1466.89  1544.30  1593.57  1625.63  1706.44
                             1785.80  1801.01  1870.37  1904.31  1936.83
                             1995.98  2054.40  2080.69  2173.80  2197.02
                             2308.78  2331.02  2606.57  4388.85  4418.61
                             4471.39  4637.70  4712.91  5053.38  5143.24
                             5343.00

 Zero-point correction=                           0.147144 (Hartree/Particle)
 Thermal correction to Energy=                    0.156952
 Thermal correction to Enthalpy=                  0.157896
 Thermal correction to Gibbs Free Energy=         0.110510
 Sum of electronic and zero-point Energies=           -854.352039
 Sum of electronic and thermal Energies=              -854.342231
 Sum of electronic and thermal Enthalpies=            -854.341287
 Sum of electronic and thermal Free Energies=         -854.388673

                     E (Thermal)             CV                S
                      KCal/Mol        Cal/Mol-Kelvin    Cal/Mol-Kelvin
 Total                   98.489             37.306             99.732
 Electronic               0.000              0.000              0.000
 Translational            0.889              2.981             41.265
 Rotational               0.889              2.981             30.460
 Vibrational             96.711             31.345             28.007
 Vibration     1          0.594              1.984              5.815
 Vibration     2          0.595              1.980              5.043
 Vibration     3          0.619              1.899              2.629
 Vibration     4          0.638              1.839              2.128
 Vibration     5          0.651              1.800              1.902
 Vibration     6          0.680              1.711              1.535
 Vibration     7          0.712              1.618              1.265
 Vibration     8          0.721              1.592              1.204
 Vibration     9          0.799              1.387              0.832
 Vibration    10          0.841              1.284              0.697
 Vibration    11          0.899              1.153              0.557
 Vibration    12          0.904              1.142              0.546
 Vibration    13          0.945              1.057              0.471
 Vibration    14          0.955              1.038              0.455

 Optimization completed.
    -- Stationary point found.
 Normal termination of Gaussian 16 at Tue Dec  8 19:19:59 2020.

 ----------------------------------------------------------------------
 # B3LYP/6-311++G(d,p) empiricaldispersion=gd3bj scf=xqc pop=npa geom=c
 heck
 ----------------------------------------------------------------------

 ---------------------------------------
 CID_149377434_JID_1151_Energie_neutraal
 ---------------------------------------
 Structure from the checkpoint file:  "JID_1151.chk"
 Charge =  0 Multiplicity = 1

 SCF Done:  E(RB3LYP) =  -854.664395085     A.U. after   15 cycles
 Normal termination of Gaussian 16 at Tue Dec  8 19:21:37 2020.

 ----------------------------------------------------------------------
 # B3LYP/6-311++G(d,p) empiricaldispersion=gd3bj scf=xqc pop=npa geom=c
 heck
 ----------------------------------------------------------------------

 -------------------------------------
 CID_149377434_JID_1151_Energie_kation
 -------------------------------------
 Structure from the checkpoint file:  "JID_1151.chk"
 Charge =  1 Multiplicity = 2

 SCF Done:  E(UB3LYP) =  -854.384498786     A.U. after   23 cycles
 Normal termination of Gaussian 16 at Tue Dec  8 19:25:14 2020.
 Gaussian 16:  ES64L-G16RevA.03 25-Dec-2016

 ----------------------------------------------------------------------
 # B3LYP/6-311++G(d,p) empiricaldispersion=gd3bj scf=xqc pop=npa geom=c
 heck
 ----------------------------------------------------------------------

 ------------------------------------
 CID_149377434_JID_1151_Energie_anion
 ------------------------------------
 Structure from the checkpoint file:  "JID_1151.chk"
 Charge = -1 Multiplicity = 2

                         Standard orientation:
 ---------------------------------------------------------------------
 Center     Atomic      Atomic             Coordinates (Angstroms)
 Number     Number       Type             X           Y           Z
 ---------------------------------------------------------------------
      1          6           0        0.597306    1.404046   -0.056348
      2          6           0        1.326907    0.143588   -0.644671
      3          7           0        0.380763   -1.004237   -0.466625
      4          6           0       -0.873235   -0.402801   -0.246247
      5          6           0       -0.833213    0.936505    0.011040
      6          6           0       -2.113069    1.465778    0.354863
      7          6           0       -3.091209    0.509000    0.338673
      8         16           0       -2.460755   -1.081280   -0.073556
      9          6           0        2.678082   -0.072370    0.036312
     10          8           0        3.611974    0.687151   -0.182622
     11          7           0        2.714620   -1.119085    0.898282
     12          1           0        0.993873    1.646566    0.937790
     13          1           0        0.764225    2.280297   -0.689297
     14          1           0        1.528469    0.308789   -1.708691
     15          1           0        0.402420   -1.642202   -1.258286
     16          1           0       -2.309939    2.506637    0.587087
     17          1           0       -4.151728    0.623541    0.513179
     18          1           0        1.880444   -1.673735    1.035626
     19          1           0        3.551430   -1.285837    1.437116
 ---------------------------------------------------------------------

 SCF Done:  E(UB3LYP) =  -854.652307358     A.U. after   33 cycles
 SCF Done:  E(UB3LYP) =  -854.652307358     a.u. after    1 cycles

 The electronic state is 2-A.
 Alpha  occ. eigenvalues --  -88.77559 -18.97878 -14.22289 -14.21943 -10.16333
 Alpha  occ. eigenvalues --  -10.12138 -10.11182 -10.09420 -10.08220 -10.08001
 Alpha  occ. eigenvalues --  -10.06650  -7.86120  -5.82420  -5.82070  -5.81685
 Alpha  occ. eigenvalues --   -0.92873  -0.84957  -0.79515  -0.75947  -0.67798
 Alpha  occ. eigenvalues --   -0.62108  -0.61685  -0.53365  -0.48118  -0.47025
 Alpha  occ. eigenvalues --   -0.43718  -0.43231  -0.40449  -0.37835  -0.36441
 Alpha  occ. eigenvalues --   -0.32961  -0.31562  -0.31062  -0.29434  -0.28238
 Alpha  occ. eigenvalues --   -0.27648  -0.27056  -0.24956  -0.24285  -0.20319
 Alpha  occ. eigenvalues --   -0.16491  -0.15049  -0.14990  -0.09614   0.04793
 Alpha virt. eigenvalues --    0.06890   0.07649   0.08340   0.08898   0.09700
 Alpha virt. eigenvalues --    0.10801   0.11487   0.12193   0.12306   0.12624
 Alpha virt. eigenvalues --    0.13145   0.13762   0.14750   0.15893   0.15992

  Beta  occ. eigenvalues --  -88.77553 -18.97871 -14.22213 -14.21885 -10.16328
  Beta  occ. eigenvalues --  -10.12125 -10.11156 -10.09400 -10.08201 -10.07992
  Beta  occ. eigenvalues --  -10.06651  -7.86113  -5.82407  -5.82065  -5.81681
  Beta  occ. eigenvalues --   -0.92856  -0.84888  -0.79440  -0.75889  -0.67738
  Beta  occ. eigenvalues --   -0.62050  -0.61629  -0.53298  -0.48042  -0.46940
  Beta  occ. eigenvalues --   -0.43645  -0.43171  -0.40357  -0.37782  -0.36398
  Beta  occ. eigenvalues --   -0.32892  -0.31521  -0.31031  -0.29374  -0.28211
  Beta  occ. eigenvalues --   -0.27614  -0.27006  -0.24908  -0.24220  -0.20248
  Beta  occ. eigenvalues --   -0.16444  -0.15031  -0.14954  -0.09555
  Beta virt. eigenvalues --    0.06966   0.07894   0.08468   0.08789   0.09589
  Beta virt. eigenvalues --    0.10370   0.11026   0.11890   0.12356   0.12600
  Beta virt. eigenvalues --    0.12888   0.13527   0.14073   0.15069   0.15866

 Mulliken charges and spin densities:
               1          2
     1  C    1.135877  -2.645516
     2  C    0.688488  -0.359934
     3  N   -0.135626   0.173423
     4  C   -0.418541   0.061719
     5  C    1.835037  -0.890260
     6  C   -1.529413   1.614780
     7  C    0.614192  -0.982264
     8  S   -0.625568   0.225701
     9  C   -0.124319   0.219185
    10  O   -0.380087   0.022020
    11  N   -0.243040  -0.130375
    12  H    0.049982   0.145011
    13  H   -0.069561   0.236059
    14  H   -0.263737   0.511697
    15  H   -0.835899   1.139875
    16  H   -0.432235   0.589698
    17  H    0.203378   0.006155
    18  H   -0.105124   0.389981
    19  H   -0.363804   0.673044
 Sum of Mulliken charges =  -1.00000   1.00000

 Dipole moment (field-independent basis, Debye):
    X=             -6.2867    Y=              3.0777    Z=              1.8933  Tot=              7.2512
 Quadrupole moment (field-independent basis, Debye-Ang):
   XX=           -122.2601   YY=           -110.4933   ZZ=           -102.1379
   XY=              4.5230   XZ=             -1.8642   YZ=             -1.8123

 Summary of Natural Population Analysis:

                                       Natural Population
                Natural  -----------------------------------------------
    Atom  No    Charge         Core      Valence    Rydberg      Total
 -----------------------------------------------------------------------
      C    1   -0.18325      0.99959     2.17621    0.00745     3.18325
      C    2   -0.03698      0.99956     2.02308    0.01434     3.03698
      N    3   -0.33579      0.99968     2.82066    0.01545     3.83579
      C    4    0.01021      0.99931     1.97400    0.01647     2.98979
      C    5   -0.07483      0.99937     2.06521    0.01025     3.07483
      C    6   -0.11600      0.99949     2.10674    0.00976     3.11600
      C    7   -0.20343      0.99954     2.19281    0.01108     3.20343
      S    8    0.19854      4.99941     2.77987    0.02219     7.80146
      C    9    0.33481      0.99966     1.64126    0.02427     2.66519
      O   10   -0.32960      0.99988     3.32366    0.00606     4.32960
      N   11   -0.39826      0.99970     2.89063    0.00794     3.89826
      H   12    0.10353      0.00000     0.39502    0.00145     0.39647
      H   13    0.10839      0.00000     0.39015    0.00146     0.39161
      H   14    0.10604      0.00000     0.39174    0.00223     0.39396
      H   15    0.20153      0.00000     0.27111    0.02736     0.29847
      H   16    0.10586      0.00000     0.39306    0.00107     0.39414
      H   17    0.10432      0.00000     0.39496    0.00072     0.39568
      H   18    0.20835      0.00000     0.28606    0.00559     0.29165
      H   19    0.19658      0.00000     0.29949    0.00393     0.30342
 =======================================================================
   * Total *    0.00000     14.99518    28.81572    0.18909    44.00000

 Normal termination of Gaussian 16 at Tue Dec  8 19:30:19 2020.
