 Gaussian 16, Revision A.03,

 -----------------------------------------------------------
 # opt freq B3LYP/6-31G(d) empiricaldispersion=gd3bj scf=xqc
 -----------------------------------------------------------

 -------------------------------
 CID_151484499_JID_5183_neutraal
 -------------------------------
 Symbolic Z-matrix:
 Charge =  0 Multiplicity = 1

 SCF Done:  E(RB3LYP) =  -703.563811262     A.U. after   14 cycles
 SCF Done:  E(RB3LYP) =  -703.568203449     A.U. after   12 cycles
 SCF Done:  E(RB3LYP) =  -703.568798412     A.U. after   12 cycles
 SCF Done:  E(RB3LYP) =  -703.569138321     A.U. after   11 cycles
 SCF Done:  E(RB3LYP) =  -703.569221714     A.U. after   10 cycles
 SCF Done:  E(RB3LYP) =  -703.569268417     A.U. after   10 cycles
 SCF Done:  E(RB3LYP) =  -703.569283784     A.U. after   10 cycles
 SCF Done:  E(RB3LYP) =  -703.569292171     A.U. after   10 cycles
 SCF Done:  E(RB3LYP) =  -703.569294863     A.U. after    9 cycles
 SCF Done:  E(RB3LYP) =  -703.569297155     A.U. after    9 cycles
 SCF Done:  E(RB3LYP) =  -703.571490787     A.U. after    6 cycles
 SCF Done:  E(RB3LYP) =  -703.571490867     A.U. after    7 cycles
 SCF Done:  E(RB3LYP) =  -703.571490929     A.U. after    6 cycles
 SCF Done:  E(RB3LYP) =  -703.571490993     A.U. after    7 cycles
 SCF Done:  E(RB3LYP) =  -703.571491030     A.U. after    7 cycles
 Optimization completed.
    -- Stationary point found.
 Normal termination of Gaussian 16 at Thu Dec 10 15:02:49 2020.

 --------------------------------------------------------------------
 #N Geom=AllCheck Guess=TCheck SCRF=Check GenChk RB3LYP/6-31G(d) Freq
 --------------------------------------------------------------------

 Structure from the checkpoint file:  "JID_5183.chk"
 -------------------------------
 CID_151484499_JID_5183_neutraal
 -------------------------------
 Charge =  0 Multiplicity = 1

 SCF Done:  E(RB3LYP) =  -703.571491030     A.U. after    1 cycles

  Exact polarizability: 157.830   0.287 146.687 -20.881   3.488  82.064
 Approx polarizability: 231.612   1.941 247.439 -45.529   5.726 126.107

                      1                      2                      3
                      A                      A                      A
 Frequencies --     29.0840                48.4522                88.9399
 Red. masses --      5.2663                 5.4681                 3.3812
 Frc consts  --      0.0026                 0.0076                 0.0158
 IR Inten    --      0.2970                 2.8583                 0.4673

                      4                      5                      6
                      A                      A                      A
 Frequencies --     98.2271               117.7854               124.1271
 Red. masses --      2.7004                 2.4170                 1.5858
 Frc consts  --      0.0154                 0.0198                 0.0144
 IR Inten    --      1.2317                 0.2570                 1.2972

                      7                      8                      9
                      A                      A                      A
 Frequencies --    173.6510               210.1010               240.9083
 Red. masses --      4.4566                 3.2624                 2.7908
 Frc consts  --      0.0792                 0.0848                 0.0954
 IR Inten    --      1.9949                 4.6409                10.7667

                     10                     11                     12
                      A                      A                      A
 Frequencies --    252.6282               278.0222               287.5467
 Red. masses --      1.3834                 4.5446                 2.7480
 Frc consts  --      0.0520                 0.2070                 0.1339
 IR Inten    --     64.5827                10.4339                 9.1345

                     13                     14                     15
                      A                      A                      A
 Frequencies --    310.6844               378.6883               479.6232
 Red. masses --      3.8928                 4.5434                 2.8792
 Frc consts  --      0.2214                 0.3839                 0.3902
 IR Inten    --      7.1885                12.4224                10.7419

                     16                     17                     18
                      A                      A                      A
 Frequencies --    486.8100               518.2940               525.1691
 Red. masses --      3.6413                 2.9661                 4.6009
 Frc consts  --      0.5084                 0.4694                 0.7476
 IR Inten    --     10.3892                 4.8929                 3.8995

                     19                     20                     21
                      A                      A                      A
 Frequencies --    549.1535               601.1299               635.0820
 Red. masses --      4.0537                 4.8278                 4.4791
 Frc consts  --      0.7203                 1.0279                 1.0644
 IR Inten    --      2.7828                 1.7807                 2.0255

                     22                     23                     24
                      A                      A                      A
 Frequencies --    642.3419               694.4085               741.3338
 Red. masses --      4.1048                 5.3487                 5.6330
 Frc consts  --      0.9979                 1.5196                 1.8240
 IR Inten    --      6.9476                 0.0272                13.6424

                     25                     26                     27
                      A                      A                      A
 Frequencies --    749.2598               778.5664               839.3278
 Red. masses --      1.7083                 2.9953                 1.4086
 Frc consts  --      0.5650                 1.0698                 0.5846
 IR Inten    --     33.6980                20.6565                 4.3755

                     28                     29                     30
                      A                      A                      A
 Frequencies --    841.5509               860.7434               882.1642
 Red. masses --      3.2961                 1.4277                 5.2213
 Frc consts  --      1.3753                 0.6232                 2.3940
 IR Inten    --      6.5983                 2.7287                 8.9909

                     31                     32                     33
                      A                      A                      A
 Frequencies --    910.5211               939.6189               944.1707
 Red. masses --      2.8867                 3.1254                 1.2503
 Frc consts  --      1.4100                 1.6258                 0.6567
 IR Inten    --     15.1814                14.4600                 0.3808

                     34                     35                     36
                      A                      A                      A
 Frequencies --   1005.3250              1066.4648              1077.7782
 Red. masses --      4.0649                 3.0414                 1.9122
 Frc consts  --      2.4205                 2.0381                 1.3087
 IR Inten    --     21.4719                24.9507                45.9185

                     37                     38                     39
                      A                      A                      A
 Frequencies --   1081.3495              1101.0750              1158.3854
 Red. masses --      2.1102                 2.7442                 2.2971
 Frc consts  --      1.4538                 1.9602                 1.8161
 IR Inten    --     19.0109                48.7421                 9.8881

                     40                     41                     42
                      A                      A                      A
 Frequencies --   1162.9330              1182.1041              1223.3975
 Red. masses --      1.2985                 1.2583                 2.7068
 Frc consts  --      1.0347                 1.0359                 2.3869
 IR Inten    --      0.1342                10.9702                24.5237

                     43                     44                     45
                      A                      A                      A
 Frequencies --   1236.1752              1273.6343              1293.5761
 Red. masses --      1.8759                 1.4583                 1.9070
 Frc consts  --      1.6890                 1.3938                 1.8801
 IR Inten    --      3.5660                48.1420               175.6524

                     46                     47                     48
                      A                      A                      A
 Frequencies --   1302.2430              1304.0087              1332.7016
 Red. masses --      1.1879                 2.0149                 1.3971
 Frc consts  --      1.1869                 2.0187                 1.4620
 IR Inten    --     19.4807                24.7590                53.6610

                     49                     50                     51
                      A                      A                      A
 Frequencies --   1356.9202              1366.7579              1395.6868
 Red. masses --      1.1554                 4.1276                 6.1619
 Frc consts  --      1.2534                 4.5429                 7.0720
 IR Inten    --      3.0133                74.6216                 1.4419

                     52                     53                     54
                      A                      A                      A
 Frequencies --   1413.4062              1423.2489              1437.3074
 Red. masses --      1.4547                 2.3618                 1.4142
 Frc consts  --      1.7123                 2.8187                 1.7213
 IR Inten    --      8.5883                 7.5596                 2.7558

                     55                     56                     57
                      A                      A                      A
 Frequencies --   1470.5923              1489.6870              1493.1931
 Red. masses --      1.9535                 1.8332                 1.0950
 Frc consts  --      2.4891                 2.3969                 1.4384
 IR Inten    --     34.2063                 6.2879                 1.8257

                     58                     59                     60
                      A                      A                      A
 Frequencies --   1508.5855              1523.1402              1541.8920
 Red. masses --      1.0408                 1.2642                 1.2444
 Frc consts  --      1.3955                 1.7281                 1.7430
 IR Inten    --      7.9436                 5.8801                23.2798

                     61                     62                     63
                      A                      A                      A
 Frequencies --   1550.4793              1560.1932              1639.7052
 Red. masses --      2.7131                 2.4640                 6.6561
 Frc consts  --      3.8428                 3.5338                10.5439
 IR Inten    --    153.7451                 0.6145               120.3433

                     64                     65                     66
                      A                      A                      A
 Frequencies --   1663.7954              1691.4758              3027.9621
 Red. masses --      7.0734                 1.0715                 1.0656
 Frc consts  --     11.5366                 1.8063                 5.7564
 IR Inten    --     29.4383                 8.8732                58.5063

                     67                     68                     69
                      A                      A                      A
 Frequencies --   3054.5372              3082.8277              3112.8173
 Red. masses --      1.0340                 1.0640                 1.0994
 Frc consts  --      5.6841                 5.9577                 6.2763
 IR Inten    --     55.0186                85.2280                11.2568

                     70                     71                     72
                      A                      A                      A
 Frequencies --   3113.1266              3155.4773              3157.9392
 Red. masses --      1.1060                 1.1023                 1.1032
 Frc consts  --      6.3157                 6.4667                 6.4820
 IR Inten    --     19.6689                 8.6212                 4.8928

                     73                     74                     75
                      A                      A                      A
 Frequencies --   3192.8444              3211.9982              3220.5447
 Red. masses --      1.0866                 1.0922                 1.0942
 Frc consts  --      6.5266                 6.6387                 6.6867
 IR Inten    --      7.4223                15.4310                 8.2318

                     76                     77                     78
                      A                      A                      A
 Frequencies --   3250.9267              3395.5756              3502.1642
 Red. masses --      1.0964                 1.0501                 1.0934
 Frc consts  --      6.8273                 7.1336                 7.9013
 IR Inten    --      3.4183                18.0345                 0.6138

 - Thermochemistry -
 -------------------
 Temperature   298.150 Kelvin.  Pressure   1.00000 Atm.
 Atom     1 has atomic number  6 and mass  12.00000

 Molecular mass:   207.10078 amu.
 Principal axes and moments of inertia in atomic units:
                           1         2         3
     Eigenvalues --  1815.241503922.870084530.44993
           X            0.99994  -0.00393  -0.01025
           Y            0.00411   0.99985   0.01682
           Z            0.01018  -0.01686   0.99981
 This molecule is an asymmetric top.
 Rotational symmetry number  1.
 Warning -- assumption of classical behavior for rotation
           may cause significant error
 Rotational temperatures (Kelvin)      0.04771     0.02208     0.01912
 Rotational constants (GHZ):           0.99422     0.46006     0.39836
 Zero-point vibrational energy     604497.4 (Joules/Mol)
                                  144.47835 (Kcal/Mol)
 Warning -- explicit consideration of  20 degrees of freedom as
           vibrations may cause significant error
 Vibrational temperatures:     41.85    69.71   127.96   141.33   169.47
          (Kelvin)            178.59   249.85   302.29   346.61   363.48
                              400.01   413.72   447.01   544.85   690.07
                              700.41   745.71   755.60   790.11   864.89
                              913.74   924.19   999.10  1066.61  1078.02
                             1120.18  1207.61  1210.80  1238.42  1269.24
                             1310.04  1351.90  1358.45  1446.44  1534.40
                             1550.68  1555.82  1584.20  1666.66  1673.20
                             1700.78  1760.20  1778.58  1832.48  1861.17
                             1873.64  1876.18  1917.46  1952.31  1966.46
                             2008.08  2033.58  2047.74  2067.96  2115.85
                             2143.33  2148.37  2170.52  2191.46  2218.44
                             2230.79  2244.77  2359.17  2393.83  2433.66
                             4356.56  4394.80  4435.50  4478.65  4479.09
                             4540.03  4543.57  4593.79  4621.35  4633.65
                             4677.36  4885.48  5038.83

 Zero-point correction=                           0.230241 (Hartree/Particle)
 Thermal correction to Energy=                    0.244114
 Thermal correction to Enthalpy=                  0.245058
 Thermal correction to Gibbs Free Energy=         0.188693
 Sum of electronic and zero-point Energies=           -703.341250
 Sum of electronic and thermal Energies=              -703.327377
 Sum of electronic and thermal Enthalpies=            -703.326433
 Sum of electronic and thermal Free Energies=         -703.382798

                     E (Thermal)             CV                S
                      KCal/Mol        Cal/Mol-Kelvin    Cal/Mol-Kelvin
 Total                  153.184             51.891            118.631
 Electronic               0.000              0.000              0.000
 Translational            0.889              2.981             41.888
 Rotational               0.889              2.981             31.845
 Vibrational            151.407             45.929             44.898
 Vibration     1          0.593              1.984              5.891
 Vibration     2          0.595              1.978              4.880
 Vibration     3          0.602              1.957              3.683
 Vibration     4          0.604              1.950              3.489
 Vibration     5          0.608              1.935              3.136
 Vibration     6          0.610              1.929              3.035
 Vibration     7          0.627              1.875              2.396
 Vibration     8          0.642              1.825              2.043
 Vibration     9          0.658              1.778              1.796
 Vibration    10          0.664              1.758              1.712
 Vibration    11          0.679              1.714              1.546
 Vibration    12          0.685              1.697              1.488
 Vibration    13          0.700              1.653              1.359
 Vibration    14          0.749              1.516              1.044
 Vibration    15          0.836              1.295              0.711
 Vibration    16          0.843              1.279              0.692
 Vibration    17          0.873              1.209              0.614
 Vibration    18          0.880              1.194              0.598
 Vibration    19          0.904              1.142              0.546
 Vibration    20          0.959              1.029              0.448

 Optimization completed.
    -- Stationary point found.
 Normal termination of Gaussian 16 at Thu Dec 10 15:11:41 2020.

 ----------------------------------------------------------------------
 # B3LYP/6-311++G(d,p) empiricaldispersion=gd3bj scf=xqc pop=npa geom=c
 heck
 ----------------------------------------------------------------------

 ---------------------------------------
 CID_151484499_JID_5183_Energie_neutraal
 ---------------------------------------
 Structure from the checkpoint file:  "JID_5183.chk"
 Charge =  0 Multiplicity = 1

 SCF Done:  E(RB3LYP) =  -703.769924400     A.U. after   16 cycles
 Normal termination of Gaussian 16 at Thu Dec 10 15:15:49 2020.

 ----------------------------------------------------------------------
 # B3LYP/6-311++G(d,p) empiricaldispersion=gd3bj scf=xqc pop=npa geom=c
 heck
 ----------------------------------------------------------------------

 -------------------------------------
 CID_151484499_JID_5183_Energie_kation
 -------------------------------------
 Structure from the checkpoint file:  "JID_5183.chk"
 Charge =  1 Multiplicity = 2

 SCF Done:  E(UB3LYP) =  -703.493502022     A.U. after   22 cycles
 Normal termination of Gaussian 16 at Thu Dec 10 15:24:05 2020.
 Gaussian 16:  ES64L-G16RevA.03 25-Dec-2016

 ----------------------------------------------------------------------
 # B3LYP/6-311++G(d,p) empiricaldispersion=gd3bj scf=xqc pop=npa geom=c
 heck
 ----------------------------------------------------------------------

 ------------------------------------
 CID_151484499_JID_5183_Energie_anion
 ------------------------------------
 Structure from the checkpoint file:  "JID_5183.chk"
 Charge = -1 Multiplicity = 2

                         Standard orientation:
 ---------------------------------------------------------------------
 Center     Atomic      Atomic             Coordinates (Angstroms)
 Number     Number       Type             X           Y           Z
 ---------------------------------------------------------------------
      1          6           0       -3.908828   -0.560887    0.758056
      2          7           0       -2.563208   -0.693451    0.242122
      3          6           0       -1.901568   -1.856583   -0.080007
      4          7           0       -0.689871   -1.665676   -0.535729
      5          6           0       -0.515936   -0.284706   -0.520024
      6          6           0       -1.688690    0.345839   -0.035614
      7          6           0       -1.839119    1.730132    0.077869
      8          6           0       -0.745913    2.494225   -0.317720
      9          6           0        0.438884    1.902360   -0.790500
     10          6           0        0.582516    0.516103   -0.901034
     11          8           0        1.750225    0.056175   -1.424266
     12          6           0        2.306219   -1.168721   -0.915311
     13          6           0        3.103099   -0.922650    0.357429
     14          8           0        2.263692   -0.507266    1.431454
     15          7           0        2.451692    0.899513    1.697246
     16          1           0       -3.901368   -0.067586    1.736117
     17          1           0       -4.530298    0.024588    0.071686
     18          1           0       -4.346688   -1.555261    0.868643
     19          1           0       -2.377556   -2.821079    0.046968
     20          1           0       -2.752504    2.185482    0.446018
     21          1           0       -0.799843    3.577242   -0.255279
     22          1           0        1.283071    2.517231   -1.084135
     23          1           0        1.516579   -1.903640   -0.751178
     24          1           0        2.976329   -1.528410   -1.703233
     25          1           0        3.579791   -1.867218    0.657949
     26          1           0        3.875971   -0.165504    0.195503
     27          1           0        1.580650    1.329793    1.371446
     28          1           0        2.410254    0.929723    2.717637
 ---------------------------------------------------------------------

 SCF Done:  E(UB3LYP) =  -703.759227743     A.U. after   33 cycles
 SCF Done:  E(UB3LYP) =  -703.759227743     a.u. after    1 cycles

 The electronic state is 2-A.
 Alpha  occ. eigenvalues --  -19.06207 -19.05681 -14.27302 -14.25960 -14.20383
 Alpha  occ. eigenvalues --  -10.14104 -10.13824 -10.13126 -10.13046 -10.11269
 Alpha  occ. eigenvalues --  -10.10551 -10.10094 -10.08128 -10.07662 -10.07258
 Alpha  occ. eigenvalues --   -0.98204  -0.96689  -0.92455  -0.79764  -0.75384
 Alpha  occ. eigenvalues --   -0.74050  -0.67110  -0.64900  -0.62789  -0.61474
 Alpha  occ. eigenvalues --   -0.54543  -0.53413  -0.50624  -0.47927  -0.43308
 Alpha  occ. eigenvalues --   -0.42906  -0.42500  -0.41183  -0.39196  -0.38647
 Alpha  occ. eigenvalues --   -0.37770  -0.37328  -0.36388  -0.34777  -0.32741
 Alpha  occ. eigenvalues --   -0.32339  -0.30949  -0.30599  -0.29056  -0.28251
 Alpha  occ. eigenvalues --   -0.27552  -0.27071  -0.24098  -0.22693  -0.20087
 Alpha  occ. eigenvalues --   -0.18606  -0.17829  -0.16994  -0.13931  -0.11732
 Alpha  occ. eigenvalues --    0.04367
 Alpha virt. eigenvalues --    0.06456   0.06957   0.07100   0.07750   0.08375
 Alpha virt. eigenvalues --    0.09280   0.09928   0.10073   0.10526   0.10751
 Alpha virt. eigenvalues --    0.11129   0.12169   0.12747   0.13045   0.13301

  Beta  occ. eigenvalues --  -19.06203 -19.05680 -14.27301 -14.25946 -14.20382
  Beta  occ. eigenvalues --  -10.14103 -10.13804 -10.13124 -10.13045 -10.11266
  Beta  occ. eigenvalues --  -10.10456 -10.10092 -10.08120 -10.07639 -10.07255
  Beta  occ. eigenvalues --   -0.98197  -0.96684  -0.92444  -0.79749  -0.75368
  Beta  occ. eigenvalues --   -0.74025  -0.67093  -0.64874  -0.62754  -0.61400
  Beta  occ. eigenvalues --   -0.54524  -0.53390  -0.50604  -0.47880  -0.43256
  Beta  occ. eigenvalues --   -0.42893  -0.42469  -0.41160  -0.39172  -0.38600
  Beta  occ. eigenvalues --   -0.37746  -0.37295  -0.36367  -0.34761  -0.32703
  Beta  occ. eigenvalues --   -0.32322  -0.30905  -0.30526  -0.29032  -0.28226
  Beta  occ. eigenvalues --   -0.27534  -0.27059  -0.24086  -0.22684  -0.20074
  Beta  occ. eigenvalues --   -0.18592  -0.17818  -0.16982  -0.13923  -0.11719
  Beta virt. eigenvalues --    0.06389   0.07154   0.07186   0.07922   0.08058
  Beta virt. eigenvalues --    0.09334   0.09459   0.09971   0.10156   0.11131
  Beta virt. eigenvalues --    0.11333   0.11791   0.12343   0.13050   0.13173

 Mulliken charges and spin densities:
               1          2
     1  C    2.382627  -2.686894
     2  N   -0.368096   0.362101
     3  C    0.300697   0.060501
     4  N   -0.158271   0.049089
     5  C   -0.191827  -0.032589
     6  C   -0.213794   0.209124
     7  C    0.978301  -1.279225
     8  C   -0.399875  -0.005940
     9  C    0.082621  -0.094416
    10  C    0.040961  -0.330760
    11  O   -0.104438   0.001388
    12  C   -0.338650   0.028003
    13  C   -0.113618  -0.125585
    14  O   -0.063247   0.025472
    15  N   -0.450745  -0.089483
    16  H   -0.703687   0.892381
    17  H   -0.651405   0.838797
    18  H   -0.877691   1.032489
    19  H   -0.576042   0.788715
    20  H   -0.453898   0.628111
    21  H   -0.309839   0.486410
    22  H    0.175480  -0.002091
    23  H    0.231526   0.008167
    24  H    0.096884   0.027681
    25  H    0.104517   0.039963
    26  H    0.153718   0.016401
    27  H    0.328171  -0.017594
    28  H    0.099619   0.169785
 Sum of Mulliken charges =  -1.00000   1.00000

 Dipole moment (field-independent basis, Debye):
    X=             12.0185    Y=              0.3368    Z=             -2.7861  Tot=             12.3418
 Quadrupole moment (field-independent basis, Debye-Ang):
   XX=           -179.2266   YY=           -130.1545   ZZ=           -121.4428
   XY=            -10.0717   XZ=             10.6900   YZ=              2.1377

 Summary of Natural Population Analysis:

                                       Natural Population
                Natural  -----------------------------------------------
    Atom  No    Charge         Core      Valence    Rydberg      Total
 -----------------------------------------------------------------------
      C    1   -0.17532      0.99964     2.16698    0.00871     3.17532
      N    2   -0.20670      0.99963     2.69606    0.01101     3.70670
      C    3    0.13874      0.99962     1.84490    0.01674     2.86126
      N    4   -0.26704      0.99970     2.75705    0.01030     3.76704
      C    5    0.02913      0.99941     1.95809    0.01337     2.97087
      C    6    0.07643      0.99947     1.91194    0.01215     2.92357
      C    7   -0.12650      0.99952     2.11713    0.00985     3.12650
      C    8   -0.09899      0.99958     2.08895    0.01046     3.09899
      C    9   -0.14668      0.99953     2.13616    0.01099     3.14668
      C   10    0.15494      0.99933     1.82989    0.01585     2.84506
      O   11   -0.28075      0.99985     3.27151    0.00939     4.28075
      C   12   -0.02984      0.99955     2.01940    0.01089     3.02984
      C   13   -0.02272      0.99959     2.01096    0.01217     3.02272
      O   14   -0.23721      0.99990     3.22611    0.01121     4.23721
      N   15   -0.25738      0.99976     2.74623    0.01139     3.75738
      H   16    0.10437      0.00000     0.39122    0.00441     0.39563
      H   17    0.10373      0.00000     0.39245    0.00383     0.39627
      H   18    0.10927      0.00000     0.38364    0.00709     0.39073
      H   19    0.09695      0.00000     0.40147    0.00158     0.40305
      H   20    0.11098      0.00000     0.38711    0.00192     0.38902
      H   21    0.10115      0.00000     0.39795    0.00090     0.39885
      H   22    0.10590      0.00000     0.39305    0.00105     0.39410
      H   23    0.10870      0.00000     0.38930    0.00200     0.39130
      H   24    0.08695      0.00000     0.41210    0.00095     0.41305
      H   25    0.08500      0.00000     0.41366    0.00134     0.41500
      H   26    0.09253      0.00000     0.40573    0.00175     0.40747
      H   27    0.17673      0.00000     0.32092    0.00235     0.32327
      H   28    0.16765      0.00000     0.33047    0.00188     0.33235
 =======================================================================
   * Total *   -0.00000     14.99408    39.80042    0.20550    55.00000

 Normal termination of Gaussian 16 at Thu Dec 10 15:36:08 2020.
