 Gaussian 16, Revision A.03,

 -----------------------------------------------------------
 # opt freq B3LYP/6-31G(d) empiricaldispersion=gd3bj scf=xqc
 -----------------------------------------------------------

 -------------------------------
 CID_134097056_JID_8264_neutraal
 -------------------------------
 Symbolic Z-matrix:
 Charge =  0 Multiplicity = 1

 SCF Done:  E(RB3LYP) =  -819.155483675     A.U. after   16 cycles
 SCF Done:  E(RB3LYP) =  -819.161804636     A.U. after   13 cycles
 SCF Done:  E(RB3LYP) =  -819.163196402     A.U. after   13 cycles
 SCF Done:  E(RB3LYP) =  -819.163930254     A.U. after   12 cycles
 SCF Done:  E(RB3LYP) =  -819.164464907     A.U. after   12 cycles
 SCF Done:  E(RB3LYP) =  -819.164616055     A.U. after   12 cycles
 SCF Done:  E(RB3LYP) =  -819.164928013     A.U. after   11 cycles
 SCF Done:  E(RB3LYP) =  -819.165015122     A.U. after   11 cycles
 SCF Done:  E(RB3LYP) =  -819.165040583     A.U. after   11 cycles
 SCF Done:  E(RB3LYP) =  -819.165053652     A.U. after   10 cycles
 SCF Done:  E(RB3LYP) =  -819.165060037     A.U. after   10 cycles
 SCF Done:  E(RB3LYP) =  -819.165061905     A.U. after    9 cycles
 SCF Done:  E(RB3LYP) =  -819.165062317     A.U. after    8 cycles
 Optimization completed.
    -- Stationary point found.
 Normal termination of Gaussian 16 at Fri Dec 11 19:44:50 2020.

 --------------------------------------------------------------------
 #N Geom=AllCheck Guess=TCheck SCRF=Check GenChk RB3LYP/6-31G(d) Freq
 --------------------------------------------------------------------

 Structure from the checkpoint file:  "JID_8264.chk"
 -------------------------------
 CID_134097056_JID_8264_neutraal
 -------------------------------
 Charge =  0 Multiplicity = 1

 SCF Done:  E(RB3LYP) =  -819.165062317     A.U. after    1 cycles

  Exact polarizability: 285.814   4.617 163.945  -7.457  -0.458  74.715
 Approx polarizability: 381.415   8.725 279.948 -16.430  -0.284 113.332

                      1                      2                      3
                      A                      A                      A
 Frequencies --     25.6749                34.9660                46.5242
 Red. masses --      4.0166                 3.8253                 4.6684
 Frc consts  --      0.0016                 0.0028                 0.0060
 IR Inten    --      1.5161                 0.7627                 1.1102

                      4                      5                      6
                      A                      A                      A
 Frequencies --     72.3083               112.3788               117.3723
 Red. masses --      4.0236                 5.0259                 4.8167
 Frc consts  --      0.0124                 0.0374                 0.0391
 IR Inten    --      2.4867                 0.2533                 1.1676

                      7                      8                      9
                      A                      A                      A
 Frequencies --    138.0426               192.5575               221.9859
 Red. masses --      2.7074                 2.0263                 3.2904
 Frc consts  --      0.0304                 0.0443                 0.0955
 IR Inten    --      2.3588                 4.2099                 1.0998

                     10                     11                     12
                      A                      A                      A
 Frequencies --    231.6965               237.4837               251.5422
 Red. masses --      1.4156                 1.3636                 3.9029
 Frc consts  --      0.0448                 0.0453                 0.1455
 IR Inten    --      1.1985                 2.4047                 1.4740

                     13                     14                     15
                      A                      A                      A
 Frequencies --    271.3857               321.1349               349.7985
 Red. masses --      5.6266                 2.5616                 3.3808
 Frc consts  --      0.2442                 0.1556                 0.2437
 IR Inten    --      4.0741                 5.1316                 1.8027

                     16                     17                     18
                      A                      A                      A
 Frequencies --    364.9152               368.2861               393.2094
 Red. masses --      5.3009                 4.2589                 3.9402
 Frc consts  --      0.4159                 0.3403                 0.3589
 IR Inten    --      4.1699                12.5203                 8.6639

                     19                     20                     21
                      A                      A                      A
 Frequencies --    418.9031               420.4635               436.1091
 Red. masses --      2.3982                 2.8843                 2.1724
 Frc consts  --      0.2479                 0.3004                 0.2434
 IR Inten    --     20.6536                 7.9092                18.7499

                     22                     23                     24
                      A                      A                      A
 Frequencies --    470.3242               523.4890               548.3448
 Red. masses --      3.3207                 3.2281                 2.9886
 Frc consts  --      0.4328                 0.5212                 0.5295
 IR Inten    --     15.4734                10.8482                17.2163

                     25                     26                     27
                      A                      A                      A
 Frequencies --    587.5788               621.3528               635.0542
 Red. masses --      2.4719                 2.4037                 6.2680
 Frc consts  --      0.5028                 0.5468                 1.4894
 IR Inten    --     95.0787               120.8503                 3.3296

                     28                     29                     30
                      A                      A                      A
 Frequencies --    666.3734               674.8276               681.6761
 Red. masses --      7.3912                 5.1515                 3.9822
 Frc consts  --      1.9338                 1.3822                 1.0903
 IR Inten    --     53.3039                25.0926                 9.0620

                     31                     32                     33
                      A                      A                      A
 Frequencies --    706.5950               743.5104               760.9961
 Red. masses --      2.3058                 6.8581                10.0249
 Frc consts  --      0.6783                 2.2337                 3.4206
 IR Inten    --     13.3372                 0.8620                22.8408

                     34                     35                     36
                      A                      A                      A
 Frequencies --    770.6313               819.7823               842.4531
 Red. masses --      1.5907                 1.2363                 3.7542
 Frc consts  --      0.5566                 0.4895                 1.5699
 IR Inten    --     46.1782                 4.1586                25.5404

                     37                     38                     39
                      A                      A                      A
 Frequencies --    856.4704               897.8436               917.5613
 Red. masses --      1.2459                 3.4217                 1.4189
 Frc consts  --      0.5385                 1.6251                 0.7038
 IR Inten    --      0.0013                51.3035                 6.9993

                     40                     41                     42
                      A                      A                      A
 Frequencies --    972.4879               981.6938               992.6490
 Red. masses --      1.3135                 2.2474                 1.2313
 Frc consts  --      0.7319                 1.2761                 0.7148
 IR Inten    --      0.0025                 4.2005                 1.4377

                     43                     44                     45
                      A                      A                      A
 Frequencies --   1019.2008              1050.0195              1060.8515
 Red. masses --      6.0716                 3.3678                 2.5804
 Frc consts  --      3.7160                 2.1877                 1.7110
 IR Inten    --      1.9574                72.7902                17.5769

                     46                     47                     48
                      A                      A                      A
 Frequencies --   1076.8925              1085.5916              1103.0144
 Red. masses --      1.6173                 2.9483                 2.3825
 Frc consts  --      1.1051                 2.0472                 1.7078
 IR Inten    --      3.9691                46.1202                 9.2961

                     49                     50                     51
                      A                      A                      A
 Frequencies --   1114.7837              1124.9085              1147.9034
 Red. masses --      2.1935                 1.8664                 2.7608
 Frc consts  --      1.6061                 1.3915                 2.1433
 IR Inten    --     11.1056               125.4863                68.1990

                     52                     53                     54
                      A                      A                      A
 Frequencies --   1186.9970              1192.3151              1204.8181
 Red. masses --      2.5954                 1.0882                 1.6863
 Frc consts  --      2.1545                 0.9115                 1.4422
 IR Inten    --    131.9386                 1.3708                 5.8492

                     55                     56                     57
                      A                      A                      A
 Frequencies --   1213.2883              1245.5349              1296.3145
 Red. masses --      1.1835                 4.5001                 2.4222
 Frc consts  --      1.0264                 4.1133                 2.3981
 IR Inten    --      0.9599                 5.1108               320.6089

                     58                     59                     60
                      A                      A                      A
 Frequencies --   1341.7780              1356.2720              1368.0432
 Red. masses --      1.3035                 3.1104                 2.0674
 Frc consts  --      1.3827                 3.3710                 2.2797
 IR Inten    --    207.8377                10.3700                12.7923

                     61                     62                     63
                      A                      A                      A
 Frequencies --   1394.2514              1422.8106              1436.5612
 Red. masses --      3.7319                 1.3619                 1.2614
 Frc consts  --      4.2742                 1.6244                 1.5337
 IR Inten    --    156.5102                 4.6665                26.8936

                     64                     65                     66
                      A                      A                      A
 Frequencies --   1445.3187              1486.0758              1502.8516
 Red. masses --      1.2920                 1.8525                 1.6350
 Frc consts  --      1.5901                 2.4104                 2.1758
 IR Inten    --     14.9068               113.3357                 1.5583

                     67                     68                     69
                      A                      A                      A
 Frequencies --   1511.7565              1514.8506              1524.7360
 Red. masses --      2.3572                 1.0486                 1.0526
 Frc consts  --      3.1740                 1.4177                 1.4418
 IR Inten    --     30.8851                 3.7463                 2.4651

                     70                     71                     72
                      A                      A                      A
 Frequencies --   1534.7048              1547.1335              1549.7698
 Red. masses --      1.0496                 1.1487                 2.2945
 Frc consts  --      1.4566                 1.6200                 3.2470
 IR Inten    --     10.5830                 5.9862               223.0310

                     73                     74                     75
                      A                      A                      A
 Frequencies --   1631.8551              1644.4087              1663.8563
 Red. masses --      2.0333                 3.2790                 5.4643
 Frc consts  --      3.1902                 5.2241                 8.9129
 IR Inten    --     26.6230                 5.8874               160.9114

                     76                     77                     78
                      A                      A                      A
 Frequencies --   1688.1582              1703.9184              1762.0130
 Red. masses --      3.3579                 6.5754                11.7689
 Frc consts  --      5.6382                11.2478                21.5280
 IR Inten    --    311.3010               363.0339               373.8845

                     79                     80                     81
                      A                      A                      A
 Frequencies --   3048.4183              3062.9034              3093.2998
 Red. masses --      1.0386                 1.0356                 1.0597
 Frc consts  --      5.6866                 5.7239                 5.9742
 IR Inten    --     33.6577                11.5340                45.1884

                     82                     83                     84
                      A                      A                      A
 Frequencies --   3105.0600              3128.0606              3137.1412
 Red. masses --      1.0997                 1.1046                 1.1017
 Frc consts  --      6.2470                 6.3683                 6.3882
 IR Inten    --     10.1531                 6.5691                29.0423

                     85                     86                     87
                      A                      A                      A
 Frequencies --   3152.5229              3165.8123              3180.5558
 Red. masses --      1.1070                 1.1010                 1.0853
 Frc consts  --      6.4819                 6.5012                 6.4683
 IR Inten    --     29.7591                14.3425                 1.1337

                     88                     89                     90
                      A                      A                      A
 Frequencies --   3189.7067              3206.6264              3255.0038
 Red. masses --      1.0905                 1.0963                 1.0914
 Frc consts  --      6.5372                 6.6418                 6.8129
 IR Inten    --     29.5796                44.4095                 1.0610

                     91                     92                     93
                      A                      A                      A
 Frequencies --   3273.7014              3563.6413              3683.7504
 Red. masses --      1.0918                 1.0474                 1.0991
 Frc consts  --      6.8941                 7.8368                 8.7872
 IR Inten    --      4.8680                23.3681                33.2513

 - Thermochemistry -
 -------------------
 Temperature   298.150 Kelvin.  Pressure   1.00000 Atm.
 Atom     1 has atomic number  6 and mass  12.00000

 Molecular mass:   245.11643 amu.
 Principal axes and moments of inertia in atomic units:
                           1         2         3
     Eigenvalues --  1550.543028828.20958**********
           X            0.99998   0.00410   0.00445
           Y           -0.00410   0.99999   0.00052
           Z           -0.00445  -0.00054   0.99999
 This molecule is an asymmetric top.
 Rotational symmetry number  1.
 Warning -- assumption of classical behavior for rotation
           may cause significant error
 Rotational temperatures (Kelvin)      0.05586     0.00981     0.00860
 Rotational constants (GHZ):           1.16394     0.20443     0.17918
 Zero-point vibrational energy     706384.1 (Joules/Mol)
                                  168.82985 (Kcal/Mol)
 Warning -- explicit consideration of  25 degrees of freedom as
           vibrations may cause significant error
 Vibrational temperatures:     36.94    50.31    66.94   104.04   161.69
          (Kelvin)            168.87   198.61   277.05   319.39   333.36
                              341.69   361.91   390.46   462.04   503.28
                              525.03   529.88   565.74   602.71   604.95
                              627.46   676.69   753.18   788.95   845.39
                              893.99   913.70   958.76   970.93   980.78
                             1016.63  1069.75  1094.90  1108.77  1179.48
                             1212.10  1232.27  1291.80  1320.17  1399.19
                             1412.44  1428.20  1466.40  1510.74  1526.33
                             1549.41  1561.92  1586.99  1603.93  1618.49
                             1651.58  1707.82  1715.48  1733.46  1745.65
                             1792.05  1865.11  1930.52  1951.37  1968.31
                             2006.02  2047.11  2066.89  2079.49  2138.13
                             2162.27  2175.08  2179.53  2193.75  2208.10
                             2225.98  2229.77  2347.88  2365.94  2393.92
                             2428.88  2451.56  2535.14  4385.99  4406.83
                             4450.57  4467.49  4500.58  4513.65  4535.78
                             4554.90  4576.11  4589.28  4613.62  4683.22
                             4710.13  5127.29  5300.10

 Zero-point correction=                           0.269047 (Hartree/Particle)
 Thermal correction to Energy=                    0.285735
 Thermal correction to Enthalpy=                  0.286679
 Thermal correction to Gibbs Free Energy=         0.223772
 Sum of electronic and zero-point Energies=           -818.896015
 Sum of electronic and thermal Energies=              -818.879328
 Sum of electronic and thermal Enthalpies=            -818.878383
 Sum of electronic and thermal Free Energies=         -818.941290

                     E (Thermal)             CV                S
                      KCal/Mol        Cal/Mol-Kelvin    Cal/Mol-Kelvin
 Total                  179.301             63.961            132.399
 Electronic               0.000              0.000              0.000
 Translational            0.889              2.981             42.390
 Rotational               0.889              2.981             33.288
 Vibrational            177.524             57.999             56.720
 Vibration     1          0.593              1.985              6.138
 Vibration     2          0.594              1.982              5.526
 Vibration     3          0.595              1.979              4.960
 Vibration     4          0.598              1.967              4.090
 Vibration     5          0.607              1.939              3.227
 Vibration     6          0.608              1.935              3.143
 Vibration     7          0.614              1.915              2.831
 Vibration     8          0.635              1.850              2.203
 Vibration     9          0.648              1.808              1.943
 Vibration    10          0.653              1.793              1.866
 Vibration    11          0.656              1.783              1.822
 Vibration    12          0.664              1.760              1.720
 Vibration    13          0.675              1.726              1.587
 Vibration    14          0.707              1.633              1.304
 Vibration    15          0.727              1.576              1.167
 Vibration    16          0.738              1.544              1.101
 Vibration    17          0.741              1.537              1.087
 Vibration    18          0.760              1.485              0.988
 Vibration    19          0.782              1.429              0.896
 Vibration    20          0.783              1.426              0.890
 Vibration    21          0.797              1.391              0.839
 Vibration    22          0.827              1.316              0.737
 Vibration    23          0.878              1.198              0.602
 Vibration    24          0.904              1.143              0.548
 Vibration    25          0.945              1.058              0.472

                           ! Non-Optimized Parameters !
 Normal termination of Gaussian 16 at Fri Dec 11 19:55:36 2020.

 ----------------------------------------------------------------------
 # B3LYP/6-311++G(d,p) empiricaldispersion=gd3bj scf=xqc pop=npa geom=c
 heck
 ----------------------------------------------------------------------

 ---------------------------------------
 CID_134097056_JID_8264_Energie_neutraal
 ---------------------------------------
 Structure from the checkpoint file:  "JID_8264.chk"
 Charge =  0 Multiplicity = 1

 SCF Done:  E(RB3LYP) =  -819.392430573     A.U. after   16 cycles
 Normal termination of Gaussian 16 at Fri Dec 11 20:00:27 2020.

 ----------------------------------------------------------------------
 # B3LYP/6-311++G(d,p) empiricaldispersion=gd3bj scf=xqc pop=npa geom=c
 heck
 ----------------------------------------------------------------------

 -------------------------------------
 CID_134097056_JID_8264_Energie_kation
 -------------------------------------
 Structure from the checkpoint file:  "JID_8264.chk"
 Charge =  1 Multiplicity = 2

 SCF Done:  E(UB3LYP) =  -819.138651219     A.U. after   22 cycles
 Normal termination of Gaussian 16 at Fri Dec 11 20:09:45 2020.
 Gaussian 16:  ES64L-G16RevA.03 25-Dec-2016

 ----------------------------------------------------------------------
 # B3LYP/6-311++G(d,p) empiricaldispersion=gd3bj scf=xqc pop=npa geom=c
 heck
 ----------------------------------------------------------------------

 ------------------------------------
 CID_134097056_JID_8264_Energie_anion
 ------------------------------------
 Structure from the checkpoint file:  "JID_8264.chk"
 Charge = -1 Multiplicity = 2

                         Standard orientation:
 ---------------------------------------------------------------------
 Center     Atomic      Atomic             Coordinates (Angstroms)
 Number     Number       Type             X           Y           Z
 ---------------------------------------------------------------------
      1          6           0        5.021029   -0.099600    1.319602
      2          6           0        4.771065    0.039449   -0.174060
      3          8           0        3.416227   -0.322409   -0.507821
      4          6           0        2.399855    0.553474   -0.312801
      5          6           0        1.150923    0.030306   -0.211637
      6          6           0        0.737778   -1.368412   -0.193411
      7          7           0       -0.553644   -1.501893   -0.116646
      8          7           0       -1.093122   -0.197818   -0.064111
      9          6           0       -0.124076    0.791470   -0.118406
     10          8           0       -0.306730    2.009815   -0.095558
     11          6           0       -2.492749   -0.058125    0.029414
     12          6           0       -3.288376   -1.212766    0.084676
     13          6           0       -4.672562   -1.096884    0.176428
     14          6           0       -5.283577    0.156966    0.214662
     15          6           0       -4.485900    1.300182    0.159599
     16          6           0       -3.098705    1.208480    0.067314
     17          7           0        1.586955   -2.451284   -0.171673
     18          6           0        2.684569    2.022059   -0.282331
     19          1           0        4.412166    0.606830    1.892832
     20          1           0        6.075324    0.096666    1.543284
     21          1           0        4.774165   -1.111752    1.653439
     22          1           0        4.992560    1.047549   -0.534843
     23          1           0        5.381667   -0.664918   -0.743498
     24          1           0       -2.809149   -2.182065    0.055266
     25          1           0       -5.276362   -1.999567    0.218663
     26          1           0       -6.364049    0.241656    0.286476
     27          1           0       -4.944439    2.285096    0.188357
     28          1           0       -2.483614    2.095481    0.025231
     29          1           0        2.472229   -2.305085   -0.635451
     30          1           0        1.132489   -3.331794   -0.381667
     31          1           0        3.223106    2.327475   -1.187653
     32          1           0        1.737411    2.560316   -0.221915
     33          1           0        3.303562    2.292235    0.581231
 ---------------------------------------------------------------------

 SCF Done:  E(UB3LYP) =  -819.405590305     A.U. after   31 cycles

 The electronic state is 2-A.
 Alpha  occ. eigenvalues --  -19.02686 -18.92967 -14.23102 -14.19251 -14.16656
 Alpha  occ. eigenvalues --  -10.12570 -10.10766 -10.09469 -10.08891 -10.07373
 Alpha  occ. eigenvalues --  -10.06910 -10.06043 -10.05933 -10.05393 -10.04780
 Alpha  occ. eigenvalues --  -10.04437 -10.03465 -10.01470  -0.94434  -0.90231
 Alpha  occ. eigenvalues --   -0.85342  -0.79157  -0.74032  -0.68653  -0.67749
 Alpha  occ. eigenvalues --   -0.63730  -0.62945  -0.61079  -0.58516  -0.54862
 Alpha  occ. eigenvalues --   -0.50557  -0.49458  -0.46538  -0.44307  -0.43353
 Alpha  occ. eigenvalues --   -0.41184  -0.38553  -0.37795  -0.35766  -0.34844
 Alpha  occ. eigenvalues --   -0.34199  -0.33139  -0.32216  -0.31907  -0.31291
 Alpha  occ. eigenvalues --   -0.30830  -0.29895  -0.29586  -0.29104  -0.27610
 Alpha  occ. eigenvalues --   -0.26407  -0.25418  -0.25184  -0.24246  -0.23129
 Alpha  occ. eigenvalues --   -0.22887  -0.22490  -0.20165  -0.18845  -0.15751
 Alpha  occ. eigenvalues --   -0.13948  -0.13412  -0.10317  -0.10245  -0.06080
 Alpha  occ. eigenvalues --    0.03938
 Alpha virt. eigenvalues --    0.06372   0.07842   0.08535   0.09072   0.09518
 Alpha virt. eigenvalues --    0.09703   0.10303   0.10758   0.10924   0.11267
 Alpha virt. eigenvalues --    0.12596   0.12873   0.13366   0.13708   0.14315

  Beta  occ. eigenvalues --  -19.02537 -18.92743 -14.23142 -14.19222 -14.16534
  Beta  occ. eigenvalues --  -10.12561 -10.10556 -10.09466 -10.08764 -10.06882
  Beta  occ. eigenvalues --  -10.06533 -10.06037 -10.05939 -10.05376 -10.04782
  Beta  occ. eigenvalues --  -10.04420 -10.03531 -10.01562  -0.93987  -0.89977
  Beta  occ. eigenvalues --   -0.85020  -0.79068  -0.73995  -0.68455  -0.67452
  Beta  occ. eigenvalues --   -0.63337  -0.62874  -0.60913  -0.58310  -0.54653
  Beta  occ. eigenvalues --   -0.50461  -0.49408  -0.46236  -0.44207  -0.43103
  Beta  occ. eigenvalues --   -0.41066  -0.38464  -0.37636  -0.35319  -0.34788
  Beta  occ. eigenvalues --   -0.33820  -0.32982  -0.31859  -0.31551  -0.31113
  Beta  occ. eigenvalues --   -0.30738  -0.29794  -0.29304  -0.28575  -0.27472
  Beta  occ. eigenvalues --   -0.26278  -0.25238  -0.25069  -0.24126  -0.22927
  Beta  occ. eigenvalues --   -0.22352  -0.21711  -0.19703  -0.18236  -0.15521
  Beta  occ. eigenvalues --   -0.13866  -0.13098  -0.10143  -0.08995  -0.05349
  Beta virt. eigenvalues --    0.06505   0.07838   0.08530   0.08931   0.09509
  Beta virt. eigenvalues --    0.09700   0.10260   0.10565   0.10935   0.11201
  Beta virt. eigenvalues --    0.11851   0.12697   0.13060   0.13334   0.13629

 Mulliken charges and spin densities:
               1          2
     1  C   -0.041332  -0.366405
     2  C   -0.262731   0.125615
     3  O   -0.131785   0.029018
     4  C   -0.134057   0.526895
     5  C    0.763901  -0.041011
     6  C   -0.663767   0.063801
     7  N   -0.174525   0.066616
     8  N    0.022825  -0.030465
     9  C   -0.286957   0.130684
    10  O   -0.383675   0.081601
    11  C    0.034586   0.001143
    12  C   -0.192098   0.005706
    13  C   -0.132860   0.002235
    14  C   -0.415502   0.014160
    15  C   -0.291152  -0.006738
    16  C    0.070876   0.007369
    17  N   -0.329565   0.009272
    18  C   -0.443899  -0.144409
    19  H    0.105288   0.037200
    20  H   -0.137637   0.255209
    21  H    0.127235   0.019526
    22  H    0.092209   0.033620
    23  H    0.114417   0.031021
    24  H    0.214388  -0.000494
    25  H    0.139683  -0.000343
    26  H    0.101598  -0.001102
    27  H    0.143155   0.000321
    28  H    0.229912  -0.001730
    29  H    0.285617   0.000075
    30  H    0.212987   0.005224
    31  H    0.126265   0.020533
    32  H    0.232399  -0.010056
    33  H    0.004203   0.135910
 Sum of Mulliken charges =  -1.00000   1.00000

 Dipole moment (field-independent basis, Debye):
    X=              1.1307    Y=             -2.2678    Z=             -1.1386  Tot=              2.7781
 Quadrupole moment (field-independent basis, Debye-Ang):
   XX=           -152.8429   YY=           -123.2357   ZZ=           -120.0339
   XY=             -3.8774   XZ=             -6.7952   YZ=              1.4583

 Summary of Natural Population Analysis:

                                       Natural Population
                Natural  -----------------------------------------------
    Atom  No    Charge         Core      Valence    Rydberg      Total
 -----------------------------------------------------------------------
      C    1   -0.29980      0.99966     2.29473    0.00541     3.29980
      C    2   -0.00999      0.99959     1.99811    0.01229     3.00999
      O    3   -0.27423      0.99985     3.26498    0.00939     4.27423
      C    4    0.36928      0.99940     1.61836    0.01295     2.63072
      C    5   -0.17233      0.99941     2.16456    0.00836     3.17233
      C    6    0.22630      0.99958     1.75987    0.01424     2.77370
      N    7   -0.19651      0.99965     2.68408    0.01279     3.69651
      N    8   -0.15859      0.99960     2.64711    0.01189     3.65859
      C    9    0.36135      0.99961     1.61910    0.01994     2.63865
      O   10   -0.32652      0.99987     3.32092    0.00572     4.32652
      C   11    0.09409      0.99949     1.89590    0.01051     2.90591
      C   12   -0.12044      0.99954     2.11225    0.00865     3.12044
      C   13   -0.10318      0.99958     2.09450    0.00910     3.10318
      C   14   -0.13085      0.99957     2.12096    0.01032     3.13085
      C   15   -0.10379      0.99958     2.09516    0.00905     3.10379
      C   16   -0.11794      0.99954     2.10977    0.00863     3.11794
      N   17   -0.40007      0.99970     2.89097    0.00939     3.90007
      C   18   -0.33944      0.99963     2.33446    0.00535     3.33944
      H   19    0.10398      0.00000     0.39512    0.00090     0.39602
      H   20    0.09590      0.00000     0.40270    0.00141     0.40410
      H   21    0.10152      0.00000     0.39740    0.00108     0.39848
      H   22    0.08538      0.00000     0.41352    0.00111     0.41462
      H   23    0.08332      0.00000     0.41564    0.00104     0.41668
      H   24    0.11651      0.00000     0.38256    0.00093     0.38349
      H   25    0.09251      0.00000     0.40651    0.00098     0.40749
      H   26    0.09204      0.00000     0.40695    0.00101     0.40796
      H   27    0.09343      0.00000     0.40561    0.00096     0.40657
      H   28    0.12497      0.00000     0.37378    0.00125     0.37503
      H   29    0.19488      0.00000     0.30375    0.00137     0.30512
      H   30    0.17957      0.00000     0.31773    0.00270     0.32043
      H   31    0.10150      0.00000     0.39762    0.00088     0.39850
      H   32    0.13335      0.00000     0.36561    0.00104     0.36665
      H   33    0.10391      0.00000     0.39472    0.00137     0.39609
 =======================================================================
   * Total *    0.00012     17.99286    46.80503    0.20200    64.99988

 Normal termination of Gaussian 16 at Fri Dec 11 20:22:55 2020.
