 Gaussian 16, Revision A.03,

 -----------------------------------------------------------
 # opt freq B3LYP/6-31G(d) empiricaldispersion=gd3bj scf=xqc
 -----------------------------------------------------------

 -------------------------------
 CID_152341174_JID_2513_neutraal
 -------------------------------
 Symbolic Z-matrix:
 Charge =  0 Multiplicity = 1

 SCF Done:  E(RB3LYP) =  -921.981359844     A.U. after   16 cycles
 SCF Done:  E(RB3LYP) =  -921.984875518     A.U. after   15 cycles
 SCF Done:  E(RB3LYP) =  -921.986867383     A.U. after   14 cycles
 SCF Done:  E(RB3LYP) =  -921.987497681     A.U. after   13 cycles
 SCF Done:  E(RB3LYP) =  -921.987776224     A.U. after   13 cycles
 SCF Done:  E(RB3LYP) =  -921.987975364     A.U. after   13 cycles
 SCF Done:  E(RB3LYP) =  -921.988237800     A.U. after   13 cycles
 SCF Done:  E(RB3LYP) =  -921.989006836     A.U. after   14 cycles
 SCF Done:  E(RB3LYP) =  -921.989758996     A.U. after   15 cycles
 SCF Done:  E(RB3LYP) =  -921.990535013     A.U. after   14 cycles
 SCF Done:  E(RB3LYP) =  -921.995052081     A.U. after    9 cycles
 SCF Done:  E(RB3LYP) =  -921.995054742     A.U. after   10 cycles
 SCF Done:  E(RB3LYP) =  -921.995057509     A.U. after   10 cycles
 SCF Done:  E(RB3LYP) =  -921.995058273     A.U. after    9 cycles
 SCF Done:  E(RB3LYP) =  -921.995058363     A.U. after    8 cycles
 Optimization completed.
    -- Stationary point found.
 Normal termination of Gaussian 16 at Wed Dec  9 17:40:41 2020.

 --------------------------------------------------------------------
 #N Geom=AllCheck Guess=TCheck SCRF=Check GenChk RB3LYP/6-31G(d) Freq
 --------------------------------------------------------------------

 Structure from the checkpoint file:  "JID_2513.chk"
 -------------------------------
 CID_152341174_JID_2513_neutraal
 -------------------------------
 Charge =  0 Multiplicity = 1

 SCF Done:  E(RB3LYP) =  -921.995058364     A.U. after    1 cycles

  Exact polarizability: 132.638   0.678  98.766   5.181  -5.406  85.107
 Approx polarizability: 173.030   2.608 186.821   8.228 -23.082 152.428

                      1                      2                      3
                      A                      A                      A
 Frequencies --     31.1775                38.2061                61.2715
 Red. masses --      9.9804                 3.9249                 5.0041
 Frc consts  --      0.0057                 0.0034                 0.0111
 IR Inten    --      0.4333                 0.3013                 8.9398

                      4                      5                      6
                      A                      A                      A
 Frequencies --    101.8647               119.4165               139.5820
 Red. masses --      3.9919                 1.1387                 1.3394
 Frc consts  --      0.0244                 0.0096                 0.0154
 IR Inten    --      1.3303                 0.3822                 0.1867

                      7                      8                      9
                      A                      A                      A
 Frequencies --    151.8952               187.6934               222.7165
 Red. masses --      3.1270                 4.0675                 4.9271
 Frc consts  --      0.0425                 0.0844                 0.1440
 IR Inten    --      1.0842                13.8261                 2.2366

                     10                     11                     12
                      A                      A                      A
 Frequencies --    260.5179               263.7016               296.3074
 Red. masses --      5.6966                 3.0617                 2.7132
 Frc consts  --      0.2278                 0.1254                 0.1404
 IR Inten    --      1.9818                 0.2551                 2.2782

                     13                     14                     15
                      A                      A                      A
 Frequencies --    407.1008               477.8545               491.8575
 Red. masses --      9.3865                 5.8157                 5.5433
 Frc consts  --      0.9166                 0.7824                 0.7901
 IR Inten    --      1.7122                 7.7345                 0.2660

                     16                     17                     18
                      A                      A                      A
 Frequencies --    576.3339               665.4520               673.5668
 Red. masses --     13.5525                 6.6404                 7.6871
 Frc consts  --      2.6523                 1.7325                 2.0548
 IR Inten    --     13.3100                15.2839                 6.8337

                     19                     20                     21
                      A                      A                      A
 Frequencies --    691.3548               709.4580               724.2776
 Red. masses --     12.0182                 6.5243                 5.6846
 Frc consts  --      3.3845                 1.9348                 1.7570
 IR Inten    --      2.2793                 5.3946                 9.1725

                     22                     23                     24
                      A                      A                      A
 Frequencies --    789.5929               902.0866               987.8142
 Red. masses --      5.5487                 5.4344                 3.2251
 Frc consts  --      2.0382                 2.6055                 1.8541
 IR Inten    --     16.9230                29.7078                 5.5071

                     25                     26                     27
                      A                      A                      A
 Frequencies --   1004.7843              1009.2873              1020.6370
 Red. masses --      1.1947                 2.2483                 1.4297
 Frc consts  --      0.7106                 1.3494                 0.8775
 IR Inten    --      3.2882                13.6902                 2.9592

                     28                     29                     30
                      A                      A                      A
 Frequencies --   1077.4151              1159.5980              1163.4026
 Red. masses --      8.8961                 1.9658                 1.3100
 Frc consts  --      6.0843                 1.5574                 1.0447
 IR Inten    --      4.4440                32.5586                 2.7435

                     31                     32                     33
                      A                      A                      A
 Frequencies --   1232.5539              1272.1661              1310.9517
 Red. masses --      1.7270                 2.7921                 3.3219
 Frc consts  --      1.5458                 2.6624                 3.3637
 IR Inten    --      4.6170                 8.1160               158.1547

                     34                     35                     36
                      A                      A                      A
 Frequencies --   1382.9478              1387.8648              1393.1698
 Red. masses --      2.1365                 1.2732                 2.3718
 Frc consts  --      2.4074                 1.4450                 2.7123
 IR Inten    --      1.7794                16.9853                 3.6791

                     37                     38                     39
                      A                      A                      A
 Frequencies --   1428.4874              1471.9032              1485.8461
 Red. masses --      4.3494                 2.1150                 1.0515
 Frc consts  --      5.2292                 2.6997                 1.3678
 IR Inten    --     77.1038                35.3083                 8.4177

                     40                     41                     42
                      A                      A                      A
 Frequencies --   1503.4641              1507.9216              1518.0807
 Red. masses --      1.0795                 1.0929                 1.7705
 Frc consts  --      1.4377                 1.4641                 2.4040
 IR Inten    --     26.0956                13.4582                41.9555

                     43                     44                     45
                      A                      A                      A
 Frequencies --   1527.5705              1537.9093              1568.0728
 Red. masses --      1.0526                 1.3107                 5.6540
 Frc consts  --      1.4472                 1.8265                 8.1910
 IR Inten    --      9.5537                23.5059                 9.2022

                     46                     47                     48
                      A                      A                      A
 Frequencies --   2265.5475              3068.1983              3083.2226
 Red. masses --     13.7116                 1.0350                 1.0598
 Frc consts  --     41.4652                 5.7408                 5.9359
 IR Inten    --    441.3427                23.7607                19.9192

                     49                     50                     51
                      A                      A                      A
 Frequencies --   3089.3898              3135.4647              3137.1814
 Red. masses --      1.0287                 1.1064                 1.1044
 Frc consts  --      5.7847                 6.4086                 6.4042
 IR Inten    --     13.9826                 4.9033                 8.5895

                     52                     53                     54
                      A                      A                      A
 Frequencies --   3174.9340              3184.6767              3192.1272
 Red. masses --      1.1040                 1.1066                 1.1084
 Frc consts  --      6.5570                 6.6123                 6.6545
 IR Inten    --      0.8179                 3.4700                 1.3600

 - Thermochemistry -
 -------------------
 Temperature   298.150 Kelvin.  Pressure   1.00000 Atm.
 Atom     1 has atomic number  6 and mass  12.00000

 Molecular mass:   184.05312 amu.
 Principal axes and moments of inertia in atomic units:
                           1         2         3
     Eigenvalues --  1062.405943970.215114166.35498
           X            0.99970  -0.01719   0.01719
           Y            0.01782   0.99914  -0.03731
           Z           -0.01654   0.03760   0.99916
 This molecule is an asymmetric top.
 Rotational symmetry number  1.
 Warning -- assumption of classical behavior for rotation
           may cause significant error
 Rotational temperatures (Kelvin)      0.08153     0.02182     0.02079
 Rotational constants (GHZ):           1.69873     0.45457     0.43317
 Zero-point vibrational energy     390376.6 (Joules/Mol)
                                   93.30225 (Kcal/Mol)
 Warning -- explicit consideration of  16 degrees of freedom as
           vibrations may cause significant error
 Vibrational temperatures:     44.86    54.97    88.16   146.56   171.81
          (Kelvin)            200.83   218.54   270.05   320.44   374.83
                              379.41   426.32   585.73   687.53   707.67
                              829.22   957.44   969.11   994.71  1020.75
                             1042.07  1136.05  1297.90  1421.24  1445.66
                             1452.14  1468.47  1550.16  1668.40  1673.88
                             1773.37  1830.36  1886.17  1989.75  1996.83
                             2004.46  2055.27  2117.74  2137.80  2163.15
                             2169.56  2184.18  2197.83  2212.71  2256.11
                             3259.62  4414.45  4436.07  4444.94  4511.23
                             4513.70  4568.02  4582.04  4592.76

 Zero-point correction=                           0.148687 (Hartree/Particle)
 Thermal correction to Energy=                    0.161244
 Thermal correction to Enthalpy=                  0.162189
 Thermal correction to Gibbs Free Energy=         0.107669
 Sum of electronic and zero-point Energies=           -921.846372
 Sum of electronic and thermal Energies=              -921.833814
 Sum of electronic and thermal Enthalpies=            -921.832870
 Sum of electronic and thermal Free Energies=         -921.887390

                     E (Thermal)             CV                S
                      KCal/Mol        Cal/Mol-Kelvin    Cal/Mol-Kelvin
 Total                  101.182             42.651            114.747
 Electronic               0.000              0.000              0.000
 Translational            0.889              2.981             41.536
 Rotational               0.889              2.981             31.242
 Vibrational             99.405             36.689             41.969
 Vibration     1          0.594              1.983              5.753
 Vibration     2          0.594              1.982              5.350
 Vibration     3          0.597              1.973              4.416
 Vibration     4          0.604              1.948              3.418
 Vibration     5          0.609              1.933              3.110
 Vibration     6          0.615              1.914              2.810
 Vibration     7          0.619              1.901              2.648
 Vibration     8          0.632              1.857              2.250
 Vibration     9          0.648              1.806              1.937
 Vibration    10          0.669              1.745              1.658
 Vibration    11          0.670              1.739              1.637
 Vibration    12          0.690              1.681              1.438
 Vibration    13          0.772              1.455              0.937
 Vibration    14          0.834              1.299              0.716
 Vibration    15          0.848              1.268              0.679
 Vibration    16          0.933              1.082              0.492

 Optimization completed.
    -- Stationary point found.
 Normal termination of Gaussian 16 at Wed Dec  9 17:45:37 2020.

 ----------------------------------------------------------------------
 # B3LYP/6-311++G(d,p) empiricaldispersion=gd3bj scf=xqc pop=npa geom=c
 heck
 ----------------------------------------------------------------------

 ---------------------------------------
 CID_152341174_JID_2513_Energie_neutraal
 ---------------------------------------
 Structure from the checkpoint file:  "JID_2513.chk"
 Charge =  0 Multiplicity = 1

 SCF Done:  E(RB3LYP) =  -922.162869080     A.U. after   15 cycles
 Normal termination of Gaussian 16 at Wed Dec  9 17:47:56 2020.

 ----------------------------------------------------------------------
 # B3LYP/6-311++G(d,p) empiricaldispersion=gd3bj scf=xqc pop=npa geom=c
 heck
 ----------------------------------------------------------------------

 -------------------------------------
 CID_152341174_JID_2513_Energie_kation
 -------------------------------------
 Structure from the checkpoint file:  "JID_2513.chk"
 Charge =  1 Multiplicity = 2

 SCF Done:  E(UB3LYP) =  -921.855494439     A.U. after   25 cycles
 Normal termination of Gaussian 16 at Wed Dec  9 17:52:27 2020.
 Gaussian 16:  ES64L-G16RevA.03 25-Dec-2016

 ----------------------------------------------------------------------
 # B3LYP/6-311++G(d,p) empiricaldispersion=gd3bj scf=xqc pop=npa geom=c
 heck
 ----------------------------------------------------------------------

 ------------------------------------
 CID_152341174_JID_2513_Energie_anion
 ------------------------------------
 Structure from the checkpoint file:  "JID_2513.chk"
 Charge = -1 Multiplicity = 2

                         Standard orientation:
 ---------------------------------------------------------------------
 Center     Atomic      Atomic             Coordinates (Angstroms)
 Number     Number       Type             X           Y           Z
 ---------------------------------------------------------------------
      1          6           0        0.094667   -2.076495   -0.036439
      2          7           0       -0.092138   -0.678317    0.320784
      3          6           0        0.823741    0.198514    0.862564
      4          7           0        0.279862    1.380177    1.034141
      5          7           0       -1.038061    1.303279    0.618237
      6          6           0       -1.235278    0.070842    0.197306
      7         16           0       -2.726413   -0.597697   -0.448942
      8          6           0       -3.708988    0.944106   -0.481247
      9          6           0        2.241099   -0.140638    1.179044
     10          7           0        3.032403   -0.560682   -0.011257
     11          7           0        3.150473    0.310228   -0.886018
     12          7           0        3.327474    1.020471   -1.759740
     13          1           0       -0.422896   -2.281120   -0.977406
     14          1           0        1.160120   -2.264876   -0.174229
     15          1           0       -0.303753   -2.735910    0.741397
     16          1           0       -3.790531    1.355101    0.525245
     17          1           0       -3.237500    1.675729   -1.138307
     18          1           0       -4.693267    0.664913   -0.862825
     19          1           0        2.686324    0.733958    1.664372
     20          1           0        2.312566   -0.988689    1.864424
 ---------------------------------------------------------------------

 SCF Done:  E(UB3LYP) =  -922.159093484     A.U. after   33 cycles
 SCF Done:  E(UB3LYP) =  -922.159093484     a.u. after    1 cycles

 The electronic state is 2-A.
 Alpha  occ. eigenvalues --  -88.77410 -14.33048 -14.28085 -14.23719 -14.22953
 Alpha  occ. eigenvalues --  -14.21900 -14.21801 -10.15700 -10.13163 -10.11354
 Alpha  occ. eigenvalues --  -10.11313 -10.11184  -7.86023  -5.82430  -5.82028
 Alpha  occ. eigenvalues --   -5.81394  -1.00299  -0.96202  -0.84769  -0.82535
 Alpha  occ. eigenvalues --   -0.74677  -0.69060  -0.63579  -0.62670  -0.58235
 Alpha  occ. eigenvalues --   -0.50818  -0.47783  -0.43518  -0.40709  -0.39067
 Alpha  occ. eigenvalues --   -0.38453  -0.37698  -0.35956  -0.34561  -0.33721
 Alpha  occ. eigenvalues --   -0.32757  -0.32017  -0.31487  -0.29979  -0.29727
 Alpha  occ. eigenvalues --   -0.25936  -0.21669  -0.20373  -0.18841  -0.18046
 Alpha  occ. eigenvalues --   -0.16139  -0.13409  -0.12521   0.04489
 Alpha virt. eigenvalues --    0.05783   0.07454   0.08844   0.09635   0.09807
 Alpha virt. eigenvalues --    0.10679   0.10881   0.11415   0.11730   0.12185
 Alpha virt. eigenvalues --    0.12833   0.13129   0.13653   0.14470   0.15704

  Beta  occ. eigenvalues --  -88.77404 -14.32753 -14.28081 -14.23310 -14.23017
  Beta  occ. eigenvalues --  -14.21890 -14.21797 -10.15698 -10.13164 -10.11341
  Beta  occ. eigenvalues --  -10.11197 -10.11122  -7.86016  -5.82424  -5.82020
  Beta  occ. eigenvalues --   -5.81390  -0.99718  -0.96187  -0.84486  -0.82514
  Beta  occ. eigenvalues --   -0.74651  -0.69008  -0.63459  -0.62517  -0.58202
  Beta  occ. eigenvalues --   -0.50754  -0.47716  -0.43381  -0.40477  -0.38684
  Beta  occ. eigenvalues --   -0.38080  -0.37324  -0.35852  -0.34543  -0.33511
  Beta  occ. eigenvalues --   -0.32427  -0.31683  -0.31175  -0.29879  -0.29258
  Beta  occ. eigenvalues --   -0.25902  -0.21563  -0.20344  -0.18733  -0.17461
  Beta  occ. eigenvalues --   -0.16115  -0.13319  -0.12483
  Beta virt. eigenvalues --    0.06101   0.07761   0.09086   0.09965   0.10063
  Beta virt. eigenvalues --    0.10407   0.10880   0.11289   0.11505   0.12042
  Beta virt. eigenvalues --    0.12752   0.13064   0.13282   0.13819   0.14703

 Mulliken charges and spin densities:
               1          2
     1  C    1.525648  -1.858017
     2  N   -0.099857   0.219057
     3  C   -0.522751   1.167199
     4  N    0.005024  -0.033189
     5  N   -0.146633   0.047801
     6  C    0.050946  -0.002200
     7  S   -0.265971  -0.163728
     8  C   -0.324939  -0.312711
     9  C    0.636133  -1.594084
    10  N   -0.620823   0.376770
    11  N    0.372960   0.045289
    12  N   -0.044504   0.023194
    13  H   -0.284905   0.431423
    14  H   -0.297022   0.484432
    15  H   -0.662928   0.865704
    16  H    0.123530   0.076808
    17  H    0.169134   0.034517
    18  H   -0.148354   0.305338
    19  H    0.076834   0.115485
    20  H   -0.541521   0.770914
 Sum of Mulliken charges =  -1.00000   1.00000

 Dipole moment (field-independent basis, Debye):
    X=             -4.4269    Y=              2.2519    Z=             -0.7977  Tot=              5.0304
 Quadrupole moment (field-independent basis, Debye-Ang):
   XX=           -124.7379   YY=           -119.2616   ZZ=           -106.7002
   XY=              0.2026   XZ=              4.7236   YZ=              5.2919

 Summary of Natural Population Analysis:

                                       Natural Population
                Natural  -----------------------------------------------
    Atom  No    Charge         Core      Valence    Rydberg      Total
 -----------------------------------------------------------------------
      C    1   -0.18183      0.99963     2.17395    0.00826     3.18183
      N    2   -0.21730      0.99957     2.70607    0.01166     3.71730
      C    3    0.17930      0.99958     1.80306    0.01806     2.82070
      N    4   -0.15739      0.99968     2.64502    0.01268     3.65739
      N    5   -0.18692      0.99966     2.67361    0.01365     3.68692
      C    6    0.10673      0.99954     1.87308    0.02064     2.89327
      S    7    0.12695      4.99954     2.85379    0.01972     7.87305
      C    8   -0.34207      0.99961     2.33591    0.00655     3.34207
      C    9   -0.11040      0.99954     2.09834    0.01251     3.11040
      N   10   -0.21822      0.99972     2.70375    0.01475     3.71822
      N   11    0.13661      0.99970     2.34792    0.01577     3.36339
      N   12    0.00067      0.99981     2.48669    0.01282     3.49933
      H   13    0.10315      0.00000     0.39493    0.00192     0.39685
      H   14    0.11825      0.00000     0.37932    0.00244     0.38175
      H   15    0.10417      0.00000     0.39156    0.00427     0.39583
      H   16    0.11084      0.00000     0.38731    0.00185     0.38916
      H   17    0.10940      0.00000     0.38892    0.00167     0.39060
      H   18    0.10409      0.00000     0.39469    0.00122     0.39591
      H   19    0.10460      0.00000     0.39396    0.00144     0.39540
      H   20    0.10938      0.00000     0.38776    0.00287     0.39062
 =======================================================================
   * Total *    0.00000     15.99560    31.81962    0.18478    48.00000

 Normal termination of Gaussian 16 at Wed Dec  9 17:58:28 2020.
