 Gaussian 16, Revision A.03,

 -----------------------------------------------------------
 # opt freq B3LYP/6-31G(d) empiricaldispersion=gd3bj scf=xqc
 -----------------------------------------------------------

 ------------------------------
 CID_62339836_JID_4407_neutraal
 ------------------------------
 Symbolic Z-matrix:
 Charge =  0 Multiplicity = 1

 SCF Done:  E(RB3LYP) =  -643.207152274     A.U. after   15 cycles
 SCF Done:  E(RB3LYP) =  -643.211306396     A.U. after   12 cycles
 SCF Done:  E(RB3LYP) =  -643.211676063     A.U. after   12 cycles
 SCF Done:  E(RB3LYP) =  -643.211820126     A.U. after   11 cycles
 SCF Done:  E(RB3LYP) =  -643.211889101     A.U. after   11 cycles
 SCF Done:  E(RB3LYP) =  -643.211934508     A.U. after   11 cycles
 SCF Done:  E(RB3LYP) =  -643.211959857     A.U. after   11 cycles
 SCF Done:  E(RB3LYP) =  -643.211982308     A.U. after   11 cycles
 SCF Done:  E(RB3LYP) =  -643.212020715     A.U. after   12 cycles
 SCF Done:  E(RB3LYP) =  -643.212047716     A.U. after   12 cycles
 SCF Done:  E(RB3LYP) =  -643.212498927     A.U. after   11 cycles
 SCF Done:  E(RB3LYP) =  -643.212501321     A.U. after   11 cycles
 SCF Done:  E(RB3LYP) =  -643.212502303     A.U. after   10 cycles
 SCF Done:  E(RB3LYP) =  -643.212502386     A.U. after    8 cycles
 SCF Done:  E(RB3LYP) =  -643.212502431     A.U. after    8 cycles
 SCF Done:  E(RB3LYP) =  -643.212502444     A.U. after    7 cycles
 Optimization completed.
    -- Stationary point found.
 Normal termination of Gaussian 16 at Thu Dec 10 09:43:02 2020.

 --------------------------------------------------------------------
 #N Geom=AllCheck Guess=TCheck SCRF=Check GenChk RB3LYP/6-31G(d) Freq
 --------------------------------------------------------------------

 Structure from the checkpoint file:  "JID_4407.chk"
 ------------------------------
 CID_62339836_JID_4407_neutraal
 ------------------------------
 Charge =  0 Multiplicity = 1

 SCF Done:  E(RB3LYP) =  -643.212502444     A.U. after    1 cycles

  Exact polarizability: 182.579  -1.132 122.092   1.109  -0.618  58.484
 Approx polarizability: 255.133  -8.429 214.301   4.357  -6.783  93.521

                      1                      2                      3
                      A                      A                      A
 Frequencies --     23.4410                61.5766                84.7348
 Red. masses --      4.4957                 3.5626                 6.4668
 Frc consts  --      0.0015                 0.0080                 0.0274
 IR Inten    --      1.3508                 2.2197                 0.3017

                      4                      5                      6
                      A                      A                      A
 Frequencies --     96.0269               168.3875               179.5249
 Red. masses --      3.8789                 2.7936                 3.3627
 Frc consts  --      0.0211                 0.0467                 0.0639
 IR Inten    --      3.1048                 8.3076                 6.0218

                      7                      8                      9
                      A                      A                      A
 Frequencies --    198.5726               223.0004               281.1112
 Red. masses --      1.1363                 1.3588                 2.6833
 Frc consts  --      0.0264                 0.0398                 0.1249
 IR Inten    --      4.2367                43.6606                19.4637

                     10                     11                     12
                      A                      A                      A
 Frequencies --    318.2118               334.6689               380.7504
 Red. masses --      4.0631                 5.3492                 3.7015
 Frc consts  --      0.2424                 0.3530                 0.3162
 IR Inten    --      1.5932                 1.1682                10.0915

                     13                     14                     15
                      A                      A                      A
 Frequencies --    431.1116               467.9949               505.9890
 Red. masses --      5.2136                 3.8521                 5.0548
 Frc consts  --      0.5709                 0.4971                 0.7625
 IR Inten    --      2.4143                 0.6404                 1.4864

                     16                     17                     18
                      A                      A                      A
 Frequencies --    546.1711               569.8629               660.8921
 Red. masses --      3.8239                 5.5707                 5.5274
 Frc consts  --      0.6721                 1.0659                 1.4224
 IR Inten    --      0.8807                 0.4571                 5.7103

                     19                     20                     21
                      A                      A                      A
 Frequencies --    686.0866               720.8371               748.9526
 Red. masses --      6.8395                 6.6508                 4.5449
 Frc consts  --      1.8969                 2.0361                 1.5020
 IR Inten    --      7.3223                 6.7365                29.4046

                     22                     23                     24
                      A                      A                      A
 Frequencies --    791.1559               813.6524               836.1619
 Red. masses --      4.7909                 1.3610                 5.8872
 Frc consts  --      1.7668                 0.5309                 2.4252
 IR Inten    --      1.7687                17.6094                 5.8109

                     25                     26                     27
                      A                      A                      A
 Frequencies --    866.4476               959.7885               980.0894
 Red. masses --      1.2982                 1.3264                 8.6944
 Frc consts  --      0.5742                 0.7199                 4.9206
 IR Inten    --    114.7581                 0.0464                13.0846

                     28                     29                     30
                      A                      A                      A
 Frequencies --    992.1378               995.0316              1019.7108
 Red. masses --      1.3496                 6.3218                 2.5782
 Frc consts  --      0.7827                 3.6878                 1.5795
 IR Inten    --      0.5703                 5.3001                23.3018

                     31                     32                     33
                      A                      A                      A
 Frequencies --   1030.1881              1040.8200              1073.2360
 Red. masses --      1.6127                 7.1883                 2.5431
 Frc consts  --      1.0084                 4.5880                 1.7259
 IR Inten    --      7.9975                30.6357                32.0188

                     34                     35                     36
                      A                      A                      A
 Frequencies --   1079.7785              1091.7019              1124.0876
 Red. masses --      1.5204                 2.5217                 3.9611
 Frc consts  --      1.0444                 1.7707                 2.9490
 IR Inten    --      3.4884                 1.3796                17.7802

                     37                     38                     39
                      A                      A                      A
 Frequencies --   1158.2832              1174.3121              1219.3838
 Red. masses --      1.6360                 1.5088                 2.1155
 Frc consts  --      1.2932                 1.2259                 1.8533
 IR Inten    --      7.2088                 5.1432                 8.1293

                     40                     41                     42
                      A                      A                      A
 Frequencies --   1276.6204              1311.3635              1317.4114
 Red. masses --      3.1535                 2.0056                 6.8355
 Frc consts  --      3.0281                 2.0320                 6.9898
 IR Inten    --      2.9557                 6.9004                 1.5724

                     43                     44                     45
                      A                      A                      A
 Frequencies --   1329.2158              1392.1793              1437.3937
 Red. masses --      1.2029                 2.8049                 1.6535
 Frc consts  --      1.2522                 3.2030                 2.0128
 IR Inten    --     10.6449                10.3653                48.9903

                     46                     47                     48
                      A                      A                      A
 Frequencies --   1449.1138              1468.7962              1499.2355
 Red. masses --      1.2224                 2.8216                 2.1932
 Frc consts  --      1.5125                 3.5864                 2.9044
 IR Inten    --      1.0038                25.6183                13.9714

                     49                     50                     51
                      A                      A                      A
 Frequencies --   1516.4666              1522.7593              1525.9989
 Red. masses --      1.0541                 1.0831                 1.1598
 Frc consts  --      1.4283                 1.4797                 1.5913
 IR Inten    --      7.9556                 1.1257                21.3189

                     52                     53                     54
                      A                      A                      A
 Frequencies --   1583.8587              1623.2930              1628.8285
 Red. masses --      8.7512                 6.2055                 8.5167
 Frc consts  --     12.9345                 9.6343                13.3129
 IR Inten    --     18.0846                 8.6323                28.6888

                     55                     56                     57
                      A                      A                      A
 Frequencies --   1651.6138              1696.4131              2959.0519
 Red. masses --      6.1781                 1.0912                 1.0735
 Frc consts  --      9.9294                 1.8502                 5.5382
 IR Inten    --      6.1519                31.1261                62.6968

                     58                     59                     60
                      A                      A                      A
 Frequencies --   3060.9052              3121.8076              3128.6907
 Red. masses --      1.0362                 1.1004                 1.0883
 Frc consts  --      5.7199                 6.3183                 6.2764
 IR Inten    --     16.6071                13.2432                 7.0508

                     61                     62                     63
                      A                      A                      A
 Frequencies --   3137.2222              3179.6104              3189.9065
 Red. masses --      1.1034                 1.0889                 1.0900
 Frc consts  --      6.3982                 6.4862                 6.5346
 IR Inten    --     16.2157                18.5254                17.0862

                     64                     65                     66
                      A                      A                      A
 Frequencies --   3216.3764              3477.4939              3564.5989
 Red. masses --      1.0964                 1.0498                 1.0929
 Frc consts  --      6.6829                 7.4796                 8.1816
 IR Inten    --     21.7712                 0.3895                 0.0422

 - Thermochemistry -
 -------------------
 Temperature   298.150 Kelvin.  Pressure   1.00000 Atm.
 Atom     1 has atomic number  6 and mass  12.00000

 Molecular mass:   190.08546 amu.
 Principal axes and moments of inertia in atomic units:
                           1         2         3
     Eigenvalues --  1112.126934214.173875224.71554
           X            0.99996   0.00834  -0.00426
           Y           -0.00831   0.99994   0.00700
           Z            0.00432  -0.00696   0.99997
 This molecule is an asymmetric top.
 Rotational symmetry number  1.
 Warning -- assumption of classical behavior for rotation
           may cause significant error
 Rotational temperatures (Kelvin)      0.07788     0.02055     0.01658
 Rotational constants (GHZ):           1.62278     0.42826     0.34542
 Zero-point vibrational energy     497647.1 (Joules/Mol)
                                  118.94051 (Kcal/Mol)
 Warning -- explicit consideration of  17 degrees of freedom as
           vibrations may cause significant error
 Vibrational temperatures:     33.73    88.59   121.91   138.16   242.27
          (Kelvin)            258.30   285.70   320.85   404.46   457.84
                              481.51   547.81   620.27   673.34   728.01
                              785.82   819.91   950.88   987.13  1037.12
                             1077.58  1138.30  1170.66  1203.05  1246.62
                             1380.92  1410.13  1427.47  1431.63  1467.14
                             1482.21  1497.51  1544.15  1553.56  1570.72
                             1617.31  1666.51  1689.57  1754.42  1836.77
                             1886.76  1895.46  1912.45  2003.04  2068.09
                             2084.95  2113.27  2157.07  2181.86  2190.91
                             2195.57  2278.82  2335.56  2343.52  2376.30
                             2440.76  4257.42  4403.96  4491.58  4501.49
                             4513.76  4574.75  4589.56  4627.65  5003.34
                             5128.66

 Zero-point correction=                           0.189544 (Hartree/Particle)
 Thermal correction to Energy=                    0.201795
 Thermal correction to Enthalpy=                  0.202739
 Thermal correction to Gibbs Free Energy=         0.149629
 Sum of electronic and zero-point Energies=           -643.022959
 Sum of electronic and thermal Energies=              -643.010708
 Sum of electronic and thermal Enthalpies=            -643.009764
 Sum of electronic and thermal Free Energies=         -643.062874

                     E (Thermal)             CV                S
                      KCal/Mol        Cal/Mol-Kelvin    Cal/Mol-Kelvin
 Total                  126.628             45.515            111.779
 Electronic               0.000              0.000              0.000
 Translational            0.889              2.981             41.633
 Rotational               0.889              2.981             31.571
 Vibrational            124.851             39.553             38.575
 Vibration     1          0.593              1.985              6.319
 Vibration     2          0.597              1.973              4.406
 Vibration     3          0.601              1.960              3.778
 Vibration     4          0.603              1.952              3.533
 Vibration     5          0.625              1.881              2.453
 Vibration     6          0.629              1.867              2.333
 Vibration     7          0.637              1.842              2.146
 Vibration     8          0.649              1.806              1.935
 Vibration     9          0.681              1.709              1.527
 Vibration    10          0.705              1.639              1.319
 Vibration    11          0.716              1.606              1.237
 Vibration    12          0.750              1.511              1.036
 Vibration    13          0.792              1.402              0.855
 Vibration    14          0.825              1.321              0.743
 Vibration    15          0.861              1.237              0.643
 Vibration    16          0.901              1.148              0.552
 Vibration    17          0.926              1.096              0.505

                           ! Non-Optimized Parameters !
 Normal termination of Gaussian 16 at Thu Dec 10 09:48:45 2020.

 ----------------------------------------------------------------------
 # B3LYP/6-311++G(d,p) empiricaldispersion=gd3bj scf=xqc pop=npa geom=c
 heck
 ----------------------------------------------------------------------

 --------------------------------------
 CID_62339836_JID_4407_Energie_neutraal
 --------------------------------------
 Structure from the checkpoint file:  "JID_4407.chk"
 Charge =  0 Multiplicity = 1

 SCF Done:  E(RB3LYP) =  -643.388883642     A.U. after   16 cycles
 Normal termination of Gaussian 16 at Thu Dec 10 09:50:56 2020.

 ----------------------------------------------------------------------
 # B3LYP/6-311++G(d,p) empiricaldispersion=gd3bj scf=xqc pop=npa geom=c
 heck
 ----------------------------------------------------------------------

 ------------------------------------
 CID_62339836_JID_4407_Energie_kation
 ------------------------------------
 Structure from the checkpoint file:  "JID_4407.chk"
 Charge =  1 Multiplicity = 2

 SCF Done:  E(UB3LYP) =  -643.070744286     A.U. after   27 cycles
 Normal termination of Gaussian 16 at Thu Dec 10 09:55:50 2020.
 Gaussian 16:  ES64L-G16RevA.03 25-Dec-2016

 ----------------------------------------------------------------------
 # B3LYP/6-311++G(d,p) empiricaldispersion=gd3bj scf=xqc pop=npa geom=c
 heck
 ----------------------------------------------------------------------

 -----------------------------------
 CID_62339836_JID_4407_Energie_anion
 -----------------------------------
 Structure from the checkpoint file:  "JID_4407.chk"
 Charge = -1 Multiplicity = 2

                         Standard orientation:
 ---------------------------------------------------------------------
 Center     Atomic      Atomic             Coordinates (Angstroms)
 Number     Number       Type             X           Y           Z
 ---------------------------------------------------------------------
      1          6           0       -0.636120    2.191408    0.227549
      2          6           0       -1.586915    1.029500    0.073330
      3          6           0       -1.183095   -0.322513   -0.002953
      4          7           0       -2.042269   -1.349898   -0.112921
      5          6           0       -3.345292   -1.084410   -0.158268
      6          6           0       -3.861332    0.210935   -0.103215
      7          6           0       -2.964672    1.266217    0.016123
      8          6           0        0.227430   -0.733646    0.057791
      9          7           0        0.722896   -1.876789    0.428941
     10          7           0        2.111295   -1.763866    0.319735
     11          6           0        2.353557   -0.567473   -0.111812
     12          8           0        1.211408    0.151423   -0.308572
     13          6           0        3.656454    0.084449   -0.424208
     14          7           0        3.749795    1.385381    0.248502
     15          1           0        0.091694    2.020795    1.026333
     16          1           0       -0.065059    2.367818   -0.690171
     17          1           0       -1.193806    3.103364    0.459933
     18          1           0       -4.005331   -1.945018   -0.246008
     19          1           0       -4.932000    0.384208   -0.147148
     20          1           0       -3.326932    2.289279    0.075166
     21          1           0        4.437020   -0.577357   -0.040733
     22          1           0        3.774559    0.127454   -1.522288
     23          1           0        4.680282    1.770891    0.100508
     24          1           0        3.096198    2.036583   -0.182837
 ---------------------------------------------------------------------

 SCF Done:  E(UB3LYP) =  -643.399438153     A.U. after   29 cycles

 The electronic state is 2-A.
 Alpha  occ. eigenvalues --  -19.06220 -14.19989 -14.19743 -14.18098 -14.15930
 Alpha  occ. eigenvalues --  -10.12514 -10.11202 -10.10417 -10.07028 -10.06958
 Alpha  occ. eigenvalues --  -10.06061 -10.05388 -10.04991 -10.03707  -1.01565
 Alpha  occ. eigenvalues --   -0.83586  -0.80729  -0.78929  -0.70285  -0.68410
 Alpha  occ. eigenvalues --   -0.64267  -0.58970  -0.57355  -0.53283  -0.48633
 Alpha  occ. eigenvalues --   -0.47805  -0.45084  -0.40699  -0.38523  -0.37868
 Alpha  occ. eigenvalues --   -0.35705  -0.35356  -0.33607  -0.32969  -0.30654
 Alpha  occ. eigenvalues --   -0.30085  -0.29563  -0.28003  -0.27733  -0.26729
 Alpha  occ. eigenvalues --   -0.25891  -0.23154  -0.20723  -0.18417  -0.17167
 Alpha  occ. eigenvalues --   -0.15111  -0.14751  -0.14103  -0.11795  -0.11108
 Alpha  occ. eigenvalues --    0.03944
 Alpha virt. eigenvalues --    0.06157   0.08113   0.09158   0.09678   0.10114
 Alpha virt. eigenvalues --    0.10327   0.11140   0.12367   0.12981   0.13340
 Alpha virt. eigenvalues --    0.13912   0.14456   0.15879   0.16083   0.16633

  Beta  occ. eigenvalues --  -19.06028 -14.20065 -14.19697 -14.17897 -14.15628
  Beta  occ. eigenvalues --  -10.12379 -10.11085 -10.10420 -10.07114 -10.06736
  Beta  occ. eigenvalues --  -10.06044 -10.05388 -10.04918 -10.03436  -1.01280
  Beta  occ. eigenvalues --   -0.83366  -0.80247  -0.78823  -0.69985  -0.68113
  Beta  occ. eigenvalues --   -0.63883  -0.58798  -0.57236  -0.52898  -0.48359
  Beta  occ. eigenvalues --   -0.47631  -0.44860  -0.40565  -0.38397  -0.37473
  Beta  occ. eigenvalues --   -0.35552  -0.35188  -0.33115  -0.32722  -0.30470
  Beta  occ. eigenvalues --   -0.29973  -0.29409  -0.27919  -0.27631  -0.26564
  Beta  occ. eigenvalues --   -0.24976  -0.22995  -0.20012  -0.18338  -0.15924
  Beta  occ. eigenvalues --   -0.14864  -0.14052  -0.13717  -0.11420  -0.10050
  Beta virt. eigenvalues --    0.06703   0.08070   0.09130   0.09225   0.09940
  Beta virt. eigenvalues --    0.10178   0.10604   0.11113   0.12369   0.12920
  Beta virt. eigenvalues --    0.13547   0.14354   0.14549   0.16023   0.16103

 Mulliken charges and spin densities:
               1          2
     1  C   -0.288010  -0.247871
     2  C    1.873801   0.129134
     3  C   -1.900784   0.157834
     4  N    0.067813   0.142008
     5  C    0.145350  -0.050829
     6  C   -0.117384   0.206605
     7  C   -1.008631   0.137054
     8  C   -0.552453   0.165080
     9  N   -0.095537   0.073142
    10  N   -0.126193  -0.015947
    11  C    0.405635   0.323242
    12  O   -0.045067   0.040393
    13  C    0.125843  -0.758570
    14  N   -0.322794  -0.073235
    15  H    0.150907   0.044559
    16  H    0.130006   0.042245
    17  H    0.115854  -0.005069
    18  H    0.149822   0.004936
    19  H    0.121459  -0.017226
    20  H    0.081096  -0.000100
    21  H    0.132413   0.043327
    22  H   -0.091976   0.235575
    23  H   -0.079647   0.319729
    24  H    0.128478   0.103987
 Sum of Mulliken charges =  -1.00000   1.00000

 Dipole moment (field-independent basis, Debye):
    X=             -1.7953    Y=              4.0577    Z=             -1.3803  Tot=              4.6469
 Quadrupole moment (field-independent basis, Debye-Ang):
   XX=           -124.1128   YY=           -109.1543   ZZ=            -95.1250
   XY=             -4.6895   XZ=             -3.2649   YZ=              2.5210

 Summary of Natural Population Analysis:

                                       Natural Population
                Natural  -----------------------------------------------
    Atom  No    Charge         Core      Valence    Rydberg      Total
 -----------------------------------------------------------------------
      C    1   -0.29340      0.99964     2.28841    0.00535     3.29340
      C    2   -0.01664      0.99950     2.00954    0.00760     3.01664
      C    3    0.09540      0.99945     1.89163    0.01352     2.90460
      N    4   -0.17190      0.99969     2.66250    0.00972     3.67190
      C    5    0.00023      0.99960     1.98568    0.01448     2.99977
      C    6   -0.07864      0.99957     2.06999    0.00908     3.07864
      C    7   -0.08443      0.99953     2.07628    0.00862     3.08443
      C    8    0.25891      0.99957     1.72087    0.02065     2.74109
      N    9   -0.12722      0.99967     2.61578    0.01177     3.62722
      N   10   -0.18429      0.99967     2.67322    0.01140     3.68429
      C   11    0.26649      0.99961     1.71126    0.02265     2.73351
      O   12   -0.23527      0.99985     3.22799    0.00743     4.23527
      C   13   -0.11845      0.99959     2.10617    0.01269     3.11845
      N   14   -0.41620      0.99977     2.90547    0.01095     3.91620
      H   15    0.10804      0.00000     0.39067    0.00129     0.39196
      H   16    0.10412      0.00000     0.39435    0.00153     0.39588
      H   17    0.09291      0.00000     0.40594    0.00115     0.40709
      H   18    0.08071      0.00000     0.41796    0.00133     0.41929
      H   19    0.08982      0.00000     0.40895    0.00123     0.41018
      H   20    0.08911      0.00000     0.40946    0.00143     0.41089
      H   21    0.10348      0.00000     0.39496    0.00157     0.39652
      H   22    0.08796      0.00000     0.41035    0.00169     0.41204
      H   23    0.17373      0.00000     0.32348    0.00280     0.32627
      H   24    0.17554      0.00000     0.32242    0.00204     0.32446
 =======================================================================
   * Total *   -0.00000     13.99470    35.82331    0.18199    50.00000

 Normal termination of Gaussian 16 at Thu Dec 10 10:01:18 2020.
