 Gaussian 16, Revision A.03,

 -----------------------------------------------------------
 # opt freq B3LYP/6-31G(d) empiricaldispersion=gd3bj scf=xqc
 -----------------------------------------------------------

 -------------------------------
 CID_106310244_JID_3366_neutraal
 -------------------------------
 Symbolic Z-matrix:
 Charge =  0 Multiplicity = 1

 SCF Done:  E(RB3LYP) =  -959.009307936     A.U. after   13 cycles
 SCF Done:  E(RB3LYP) =  -959.009199884     A.U. after   12 cycles
 SCF Done:  E(RB3LYP) =  -959.013896388     A.U. after   11 cycles
 SCF Done:  E(RB3LYP) =  -959.014574647     A.U. after   11 cycles
 SCF Done:  E(RB3LYP) =  -959.014209884     A.U. after   11 cycles
 SCF Done:  E(RB3LYP) =  -959.014976173     A.U. after   11 cycles
 SCF Done:  E(RB3LYP) =  -959.015296900     A.U. after   11 cycles
 SCF Done:  E(RB3LYP) =  -959.015372395     A.U. after   10 cycles
 SCF Done:  E(RB3LYP) =  -959.015403265     A.U. after   10 cycles
 SCF Done:  E(RB3LYP) =  -959.015424455     A.U. after    9 cycles
 SCF Done:  E(RB3LYP) =  -959.015431798     A.U. after    9 cycles
 SCF Done:  E(RB3LYP) =  -959.015434475     A.U. after    9 cycles
 SCF Done:  E(RB3LYP) =  -959.015434595     A.U. after    6 cycles
 SCF Done:  E(RB3LYP) =  -959.015434622     A.U. after    6 cycles
 Optimization completed.
    -- Stationary point found.
 Normal termination of Gaussian 16 at Wed Dec  9 23:05:02 2020.

 --------------------------------------------------------------------
 #N Geom=AllCheck Guess=TCheck SCRF=Check GenChk RB3LYP/6-31G(d) Freq
 --------------------------------------------------------------------

 Structure from the checkpoint file:  "JID_3366.chk"
 -------------------------------
 CID_106310244_JID_3366_neutraal
 -------------------------------
 Charge =  0 Multiplicity = 1

 SCF Done:  E(RB3LYP) =  -959.015434622     A.U. after    1 cycles

  Exact polarizability: 136.377  -0.202 124.738  -4.168   6.491 117.483
 Approx polarizability: 169.551   3.465 179.305  -6.898   7.062 178.497

                      1                      2                      3
                      A                      A                      A
 Frequencies --     29.4122                33.4863                55.3426
 Red. masses --      3.7542                 4.7630                 3.8828
 Frc consts  --      0.0019                 0.0031                 0.0070
 IR Inten    --      0.5536                 0.5853                 0.5768

                      4                      5                      6
                      A                      A                      A
 Frequencies --     70.8758                84.2540                93.8176
 Red. masses --      3.6305                 4.1041                 2.8372
 Frc consts  --      0.0107                 0.0172                 0.0147
 IR Inten    --      1.3849                 1.3032                 4.4664

                      7                      8                      9
                      A                      A                      A
 Frequencies --    119.1905               159.0646               185.5797
 Red. masses --      4.5367                 5.0586                 2.5977
 Frc consts  --      0.0380                 0.0754                 0.0527
 IR Inten    --      3.4903                 1.0365                 7.2008

                     10                     11                     12
                      A                      A                      A
 Frequencies --    208.6474               216.4115               240.1227
 Red. masses --      2.6781                 3.4385                 2.2596
 Frc consts  --      0.0687                 0.0949                 0.0768
 IR Inten    --      2.1124                 2.5939                34.4013

                     13                     14                     15
                      A                      A                      A
 Frequencies --    248.3409               281.7226               298.2280
 Red. masses --      1.2193                 2.4363                 1.9980
 Frc consts  --      0.0443                 0.1139                 0.1047
 IR Inten    --     10.3680                24.6346                16.1003

                     16                     17                     18
                      A                      A                      A
 Frequencies --    311.4964               315.0259               362.6668
 Red. masses --      1.2563                 1.1669                 2.2153
 Frc consts  --      0.0718                 0.0682                 0.1717
 IR Inten    --    151.4368                25.5288                 2.9124

                     19                     20                     21
                      A                      A                      A
 Frequencies --    372.4097               384.3536               449.4631
 Red. masses --      1.8798                 2.1815                 2.4220
 Frc consts  --      0.1536                 0.1899                 0.2883
 IR Inten    --     20.1363                 4.7908                 4.7784

                     22                     23                     24
                      A                      A                      A
 Frequencies --    486.9670               515.5097               614.6922
 Red. masses --      2.4152                 2.5961                 3.0384
 Frc consts  --      0.3374                 0.4065                 0.6764
 IR Inten    --      1.4324                 5.0260                 1.0869

                     25                     26                     27
                      A                      A                      A
 Frequencies --    652.5265               674.9834               770.9365
 Red. masses --      3.8298                 3.8731                 1.5166
 Frc consts  --      0.9608                 1.0397                 0.5311
 IR Inten    --      1.1584                 3.4532                19.7593

                     28                     29                     30
                      A                      A                      A
 Frequencies --    780.0931               819.7106               844.4730
 Red. masses --      1.6336                 1.9586                 2.0056
 Frc consts  --      0.5857                 0.7754                 0.8427
 IR Inten    --     98.8119                 9.9719                20.9261

                     31                     32                     33
                      A                      A                      A
 Frequencies --    878.5652               908.7639               924.6233
 Red. masses --      2.5001                 1.3650                 1.9698
 Frc consts  --      1.1370                 0.6642                 0.9922
 IR Inten    --      3.3156                 2.9357                11.3340

                     34                     35                     36
                      A                      A                      A
 Frequencies --    939.1745               957.5841               975.7345
 Red. masses --      1.9919                 1.6580                 2.1021
 Frc consts  --      1.0352                 0.8957                 1.1791
 IR Inten    --     24.9619                20.4151                 6.8287

                     37                     38                     39
                      A                      A                      A
 Frequencies --   1005.1469              1047.7577              1062.3858
 Red. masses --      1.6819                 1.6341                 1.7433
 Frc consts  --      1.0011                 1.0569                 1.1593
 IR Inten    --     17.9244                11.6640                25.8228

                     40                     41                     42
                      A                      A                      A
 Frequencies --   1074.6530              1075.2505              1099.6388
 Red. masses --      4.4608                 1.9128                 2.8348
 Frc consts  --      3.0353                 1.3030                 2.0197
 IR Inten    --     92.3127                18.2965                37.9457

                     43                     44                     45
                      A                      A                      A
 Frequencies --   1117.0661              1123.6845              1157.7101
 Red. masses --      2.2050                 1.6662                 1.8175
 Frc consts  --      1.6211                 1.2396                 1.4352
 IR Inten    --      3.5458                11.2599                42.2993

                     46                     47                     48
                      A                      A                      A
 Frequencies --   1174.2876              1178.6930              1239.9418
 Red. masses --      1.4520                 1.3562                 1.3067
 Frc consts  --      1.1797                 1.1101                 1.1837
 IR Inten    --      0.7692                 6.4714                 4.4974

                     49                     50                     51
                      A                      A                      A
 Frequencies --   1248.5167              1255.3440              1257.7211
 Red. masses --      1.2283                 1.4074                 1.2720
 Frc consts  --      1.1281                 1.3068                 1.1855
 IR Inten    --      3.5264                 1.9721                 8.3996

                     52                     53                     54
                      A                      A                      A
 Frequencies --   1278.8196              1305.6621              1317.0887
 Red. masses --      1.2062                 1.2621                 1.2213
 Frc consts  --      1.1622                 1.2677                 1.2482
 IR Inten    --     37.9099                 3.5596                 8.0046

                     55                     56                     57
                      A                      A                      A
 Frequencies --   1333.6983              1352.4863              1362.7964
 Red. masses --      1.2849                 1.2123                 1.2195
 Frc consts  --      1.3466                 1.3065                 1.3345
 IR Inten    --     20.2590                22.6113                10.1805

                     58                     59                     60
                      A                      A                      A
 Frequencies --   1389.7458              1406.6209              1408.4770
 Red. masses --      1.3583                 1.3642                 1.2834
 Frc consts  --      1.5457                 1.5903                 1.5000
 IR Inten    --     14.0062                 2.6596                10.3662

                     61                     62                     63
                      A                      A                      A
 Frequencies --   1410.4799              1421.2740              1427.0154
 Red. masses --      1.2867                 1.3089                 1.2940
 Frc consts  --      1.5082                 1.5578                 1.5526
 IR Inten    --     14.9573                 9.5946                26.8957

                     64                     65                     66
                      A                      A                      A
 Frequencies --   1451.1281              1467.7234              1486.5211
 Red. masses --      1.3055                 1.4295                 1.0943
 Frc consts  --      1.6198                 1.8143                 1.4248
 IR Inten    --      6.5332                 3.2956                 5.5502

                     67                     68                     69
                      A                      A                      A
 Frequencies --   1499.4851              1501.8080              1504.4100
 Red. masses --      1.0951                 1.1020                 1.1045
 Frc consts  --      1.4507                 1.4644                 1.4728
 IR Inten    --      3.5052                 8.5512                 3.7101

                     70                     71                     72
                      A                      A                      A
 Frequencies --   1514.4649              1527.5288              1536.9411
 Red. masses --      1.2023                 1.0648                 1.0737
 Frc consts  --      1.6247                 1.4639                 1.4943
 IR Inten    --     26.8871                 3.8711                 0.4707

                     73                     74                     75
                      A                      A                      A
 Frequencies --   1547.3257              1553.3582              1555.3647
 Red. masses --      1.0687                 1.0827                 1.0747
 Frc consts  --      1.5076                 1.5392                 1.5318
 IR Inten    --     12.3797                 4.7712                 1.8029

                     76                     77                     78
                      A                      A                      A
 Frequencies --   2973.4388              3012.2642              3031.0069
 Red. masses --      1.0699                 1.0567                 1.0647
 Frc consts  --      5.5735                 5.6490                 5.7633
 IR Inten    --     39.4204                58.5780                30.4855

                     79                     80                     81
                      A                      A                      A
 Frequencies --   3033.9932              3037.0294              3038.7285
 Red. masses --      1.0804                 1.0792                 1.0416
 Frc consts  --      5.8596                 5.8648                 5.6670
 IR Inten    --      4.6215                 4.8417                26.5544

                     82                     83                     84
                      A                      A                      A
 Frequencies --   3043.9398              3045.6134              3052.8324
 Red. masses --      1.0879                 1.0615                 1.0900
 Frc consts  --      5.9388                 5.8012                 5.9854
 IR Inten    --     48.4479                42.0151                78.5254

                     85                     86                     87
                      A                      A                      A
 Frequencies --   3072.4609              3081.7895              3088.6412
 Red. masses --      1.0642                 1.1014                 1.0684
 Frc consts  --      5.9191                 6.1634                 6.0049
 IR Inten    --     31.1781                25.7305                13.9535

                     88                     89                     90
                      A                      A                      A
 Frequencies --   3092.9325              3097.7290              3104.2939
 Red. masses --      1.0989                 1.1036                 1.1000
 Frc consts  --      6.1938                 6.2393                 6.2457
 IR Inten    --     27.4287                40.5718                45.9722

                     91                     92                     93
                      A                      A                      A
 Frequencies --   3113.8091              3143.2874              3163.2691
 Red. masses --      1.1015                 1.1015                 1.0977
 Frc consts  --      6.2926                 6.4119                 6.4718
 IR Inten    --     40.1951                 3.5606                 5.5301

                     94                     95                     96
                      A                      A                      A
 Frequencies --   3495.9185              3757.8110              3761.0067
 Red. masses --      1.0727                 1.0665                 1.0662
 Frc consts  --      7.7239                 8.8735                 8.8859
 IR Inten    --      0.3191                19.9814                10.3013

 - Thermochemistry -
 -------------------
 Temperature   298.150 Kelvin.  Pressure   1.00000 Atm.
 Atom     1 has atomic number  6 and mass  12.00000

 Molecular mass:   207.12930 amu.
 Principal axes and moments of inertia in atomic units:
                           1         2         3
     Eigenvalues --  1814.101365536.053306136.28819
           X            0.99990  -0.01131   0.00848
           Y            0.01070   0.99754   0.06921
           Z           -0.00924  -0.06911   0.99757
 This molecule is an asymmetric top.
 Rotational symmetry number  1.
 Warning -- assumption of classical behavior for rotation
           may cause significant error
 Rotational temperatures (Kelvin)      0.04774     0.01565     0.01412
 Rotational constants (GHZ):           0.99484     0.32600     0.29411
 Zero-point vibrational energy     802598.9 (Joules/Mol)
                                  191.82575 (Kcal/Mol)
 Warning -- explicit consideration of  24 degrees of freedom as
           vibrations may cause significant error
 Vibrational temperatures:     42.32    48.18    79.63   101.97   121.22
          (Kelvin)            134.98   171.49   228.86   267.01   300.20
                              311.37   345.48   357.31   405.34   429.08
                              448.17   453.25   521.80   535.81   553.00
                              646.68   700.64   741.70   884.41   938.84
                              971.15  1109.21  1122.38  1179.38  1215.01
                             1264.06  1307.51  1330.33  1351.26  1377.75
                             1403.86  1446.18  1507.49  1528.54  1546.19
                             1547.05  1582.13  1607.21  1616.73  1665.69
                             1689.54  1695.88  1784.00  1796.34  1806.16
                             1809.58  1839.94  1878.56  1895.00  1918.89
                             1945.93  1960.76  1999.53  2023.81  2026.48
                             2029.37  2044.90  2053.16  2087.85  2111.73
                             2138.77  2157.42  2160.77  2164.51  2178.98
                             2197.77  2211.32  2226.26  2234.94  2237.82
                             4278.12  4333.98  4360.94  4365.24  4369.61
                             4372.05  4379.55  4381.96  4392.34  4420.59
                             4434.01  4443.87  4450.04  4456.94  4466.39
                             4480.08  4522.49  4551.24  5029.85  5406.65
                             5411.25

 Zero-point correction=                           0.305694 (Hartree/Particle)
 Thermal correction to Energy=                    0.322282
 Thermal correction to Enthalpy=                  0.323226
 Thermal correction to Gibbs Free Energy=         0.260330
 Sum of electronic and zero-point Energies=           -958.709741
 Sum of electronic and thermal Energies=              -958.693153
 Sum of electronic and thermal Enthalpies=            -958.692209
 Sum of electronic and thermal Free Energies=         -958.755104

                     E (Thermal)             CV                S
                      KCal/Mol        Cal/Mol-Kelvin    Cal/Mol-Kelvin
 Total                  202.235             60.026            132.375
 Electronic               0.000              0.000              0.000
 Translational            0.889              2.981             41.889
 Rotational               0.889              2.981             32.488
 Vibrational            200.457             54.065             57.998
 Vibration     1          0.593              1.984              5.869
 Vibration     2          0.594              1.983              5.611
 Vibration     3          0.596              1.975              4.617
 Vibration     4          0.598              1.968              4.129
 Vibration     5          0.601              1.960              3.789
 Vibration     6          0.603              1.954              3.579
 Vibration     7          0.609              1.933              3.113
 Vibration     8          0.621              1.892              2.561
 Vibration     9          0.632              1.860              2.272
 Vibration    10          0.642              1.828              2.055
 Vibration    11          0.645              1.816              1.989
 Vibration    12          0.657              1.779              1.802
 Vibration    13          0.662              1.766              1.742
 Vibration    14          0.681              1.707              1.523
 Vibration    15          0.691              1.677              1.427
 Vibration    16          0.700              1.652              1.354
 Vibration    17          0.702              1.645              1.336
 Vibration    18          0.737              1.549              1.111
 Vibration    19          0.744              1.529              1.070
 Vibration    20          0.753              1.504              1.022
 Vibration    21          0.808              1.362              0.797
 Vibration    22          0.843              1.279              0.692
 Vibration    23          0.871              1.216              0.620
 Vibration    24          0.974              1.001              0.425

 Optimization completed.
    -- Stationary point found.
 Normal termination of Gaussian 16 at Wed Dec  9 23:15:07 2020.

 ----------------------------------------------------------------------
 # B3LYP/6-311++G(d,p) empiricaldispersion=gd3bj scf=xqc pop=npa geom=c
 heck
 ----------------------------------------------------------------------

 ---------------------------------------
 CID_106310244_JID_3366_Energie_neutraal
 ---------------------------------------
 Structure from the checkpoint file:  "JID_3366.chk"
 Charge =  0 Multiplicity = 1

 SCF Done:  E(RB3LYP) =  -959.229111102     A.U. after   13 cycles
 Normal termination of Gaussian 16 at Wed Dec  9 23:20:00 2020.

 ----------------------------------------------------------------------
 # B3LYP/6-311++G(d,p) empiricaldispersion=gd3bj scf=xqc pop=npa geom=c
 heck
 ----------------------------------------------------------------------

 -------------------------------------
 CID_106310244_JID_3366_Energie_kation
 -------------------------------------
 Structure from the checkpoint file:  "JID_3366.chk"
 Charge =  1 Multiplicity = 2

 SCF Done:  E(UB3LYP) =  -958.941600943     A.U. after   22 cycles
 Normal termination of Gaussian 16 at Wed Dec  9 23:31:41 2020.
 Gaussian 16:  ES64L-G16RevA.03 25-Dec-2016

 ----------------------------------------------------------------------
 # B3LYP/6-311++G(d,p) empiricaldispersion=gd3bj scf=xqc pop=npa geom=c
 heck
 ----------------------------------------------------------------------

 ------------------------------------
 CID_106310244_JID_3366_Energie_anion
 ------------------------------------
 Structure from the checkpoint file:  "JID_3366.chk"
 Charge = -1 Multiplicity = 2

                         Standard orientation:
 ---------------------------------------------------------------------
 Center     Atomic      Atomic             Coordinates (Angstroms)
 Number     Number       Type             X           Y           Z
 ---------------------------------------------------------------------
      1          6           0       -2.179948   -1.262023   -1.120636
      2          6           0       -2.491010   -0.693826    0.270551
      3          6           0       -1.314449    0.107143    0.848097
      4          7           0       -1.025752    1.303853    0.055821
      5          6           0       -0.007221    2.178565    0.616402
      6          6           0        1.423330    1.614669    0.684650
      7         16           0        2.143320    1.278331   -0.980064
      8          6           0        1.841777   -0.524403   -1.200623
      9          6           0        2.965145   -1.437153   -0.699169
     10          6           0        3.234842   -1.337296    0.793634
     11          8           0        2.015879   -1.619240    1.487374
     12          6           0       -3.777421    0.143244    0.264628
     13          8           0       -4.926026   -0.602297   -0.136530
     14          1           0       -2.065637   -0.466407   -1.868418
     15          1           0       -2.985081   -1.923252   -1.458963
     16          1           0       -1.256571   -1.852324   -1.111259
     17          1           0       -2.660695   -1.543808    0.945923
     18          1           0       -1.579973    0.449643    1.857992
     19          1           0       -0.450494   -0.569824    0.968987
     20          1           0       -0.743734    1.046195   -0.888377
     21          1           0        0.006679    3.103188    0.027334
     22          1           0       -0.319305    2.451247    1.634625
     23          1           0        2.087324    2.344122    1.161462
     24          1           0        1.463184    0.691197    1.266783
     25          1           0        0.898162   -0.783604   -0.719451
     26          1           0        1.709603   -0.663850   -2.278030
     27          1           0        2.695010   -2.473907   -0.941966
     28          1           0        3.895499   -1.207026   -1.231851
     29          1           0        4.017091   -2.057671    1.075099
     30          1           0        3.599921   -0.328862    1.035913
     31          1           0        2.191085   -1.564506    2.438689
     32          1           0       -3.991120    0.489964    1.281548
     33          1           0       -3.636854    1.034796   -0.360955
     34          1           0       -4.876040   -0.716805   -1.096765
 ---------------------------------------------------------------------

 SCF Done:  E(UB3LYP) =  -959.219290848     A.U. after   29 cycles

 The electronic state is 2-A.
 Alpha  occ. eigenvalues --  -88.73943 -19.03139 -19.01846 -14.20164 -10.11696
 Alpha  occ. eigenvalues --  -10.11160 -10.10161 -10.10065 -10.09480 -10.09368
 Alpha  occ. eigenvalues --  -10.07945 -10.07469 -10.06997  -7.82555  -5.78941
 Alpha  occ. eigenvalues --   -5.78575  -5.77945  -0.93086  -0.91790  -0.81524
 Alpha  occ. eigenvalues --   -0.71676  -0.70071  -0.66446  -0.61391  -0.59491
 Alpha  occ. eigenvalues --   -0.57429  -0.54768  -0.49990  -0.47672  -0.46550
 Alpha  occ. eigenvalues --   -0.42628  -0.41938  -0.40154  -0.37719  -0.37182
 Alpha  occ. eigenvalues --   -0.36226  -0.34642  -0.34504  -0.33487  -0.32188
 Alpha  occ. eigenvalues --   -0.31678  -0.29867  -0.29233  -0.28944  -0.28537
 Alpha  occ. eigenvalues --   -0.27733  -0.26574  -0.25411  -0.24822  -0.24009
 Alpha  occ. eigenvalues --   -0.23043  -0.22795  -0.20290  -0.18586  -0.17668
 Alpha  occ. eigenvalues --   -0.13726  -0.12539   0.04172
 Alpha virt. eigenvalues --    0.05689   0.06918   0.07586   0.08110   0.08707
 Alpha virt. eigenvalues --    0.09118   0.09532   0.10286   0.10508   0.10952
 Alpha virt. eigenvalues --    0.11637   0.11875   0.12113   0.12741   0.13426

  Beta  occ. eigenvalues --  -88.73940 -19.03121 -19.01791 -14.20161 -10.11689
  Beta  occ. eigenvalues --  -10.11124 -10.10153 -10.10056 -10.09463 -10.09358
  Beta  occ. eigenvalues --  -10.07940 -10.07457 -10.06971  -7.82553  -5.78940
  Beta  occ. eigenvalues --   -5.78571  -5.77943  -0.93048  -0.91671  -0.81514
  Beta  occ. eigenvalues --   -0.71650  -0.70044  -0.66407  -0.61343  -0.59447
  Beta  occ. eigenvalues --   -0.57389  -0.54722  -0.49939  -0.47629  -0.46506
  Beta  occ. eigenvalues --   -0.42591  -0.41799  -0.40136  -0.37688  -0.37144
  Beta  occ. eigenvalues --   -0.36200  -0.34609  -0.34476  -0.33466  -0.32160
  Beta  occ. eigenvalues --   -0.31642  -0.29832  -0.29209  -0.28913  -0.28513
  Beta  occ. eigenvalues --   -0.27708  -0.26543  -0.25383  -0.24787  -0.23989
  Beta  occ. eigenvalues --   -0.23018  -0.22744  -0.20268  -0.18567  -0.17611
  Beta  occ. eigenvalues --   -0.13719  -0.12530
  Beta virt. eigenvalues --    0.06190   0.06986   0.07318   0.08094   0.08532
  Beta virt. eigenvalues --    0.08996   0.09727   0.09818   0.10304   0.10917
  Beta virt. eigenvalues --    0.11169   0.11858   0.12044   0.12358   0.12715

 Mulliken charges and spin densities:
               1          2
     1  C    0.181116  -0.832407
     2  C   -0.280184   0.466828
     3  C   -0.391120  -0.181298
     4  N    0.017644  -0.050664
     5  C   -0.421477  -0.071962
     6  C    0.161881  -0.273856
     7  S    0.159463  -0.197453
     8  C    0.025127  -0.030042
     9  C   -0.919035   0.463906
    10  C    1.188419  -1.578134
    11  O   -0.269473   0.002712
    12  C    0.035768  -0.487352
    13  O   -0.256301   0.000619
    14  H   -0.041377   0.199369
    15  H   -0.146922   0.270202
    16  H   -0.265901   0.412296
    17  H    0.031924   0.157445
    18  H   -0.229463   0.387703
    19  H    0.471160  -0.322785
    20  H    0.222453  -0.040462
    21  H    0.104270   0.050364
    22  H   -0.036510   0.178478
    23  H   -0.258173   0.508506
    24  H    0.114963   0.018387
    25  H    0.807106  -0.787136
    26  H   -0.017683   0.263882
    27  H    0.036062   0.126047
    28  H   -0.128328   0.265959
    29  H   -0.678498   0.845111
    30  H   -0.131120   0.273247
    31  H   -0.385526   0.665447
    32  H    0.147763   0.011512
    33  H    0.098689   0.094519
    34  H    0.053282   0.191012
 Sum of Mulliken charges =  -1.00000   1.00000

 Dipole moment (field-independent basis, Debye):
    X=             -2.4231    Y=              3.6266    Z=             -3.9649  Tot=              5.8944
 Quadrupole moment (field-independent basis, Debye-Ang):
   XX=           -174.5460   YY=           -130.6186   ZZ=           -133.0096
   XY=              3.4229   XZ=            -13.1998   YZ=              6.4873

 Summary of Natural Population Analysis:

                                       Natural Population
                Natural  -----------------------------------------------
    Atom  No    Charge         Core      Valence    Rydberg      Total
 -----------------------------------------------------------------------
      C    1   -0.29490      0.99965     2.28827    0.00698     3.29490
      C    2   -0.12691      0.99960     2.11704    0.01028     3.12691
      C    3   -0.09227      0.99960     2.08150    0.01117     3.09227
      N    4   -0.34792      0.99975     2.83735    0.01082     3.84792
      C    5   -0.08911      0.99962     2.07644    0.01306     3.08911
      C    6   -0.26562      0.99958     2.25528    0.01075     3.26562
      S    7    0.06963      4.99962     2.91453    0.01621     7.93037
      C    8   -0.25238      0.99957     2.24202    0.01079     3.25238
      C    9   -0.20361      0.99961     2.19338    0.01062     3.20361
      C   10   -0.01291      0.99959     2.00006    0.01326     3.01291
      O   11   -0.37839      0.99989     3.37083    0.00767     4.37839
      C   12   -0.00792      0.99956     1.99635    0.01201     3.00792
      O   13   -0.37180      0.99990     3.36554    0.00636     4.37180
      H   14    0.09447      0.00000     0.40437    0.00116     0.40553
      H   15    0.10047      0.00000     0.39837    0.00116     0.39953
      H   16    0.10422      0.00000     0.39456    0.00121     0.39578
      H   17    0.09992      0.00000     0.39896    0.00112     0.40008
      H   18    0.09202      0.00000     0.40656    0.00142     0.40798
      H   19    0.09366      0.00000     0.40435    0.00200     0.40634
      H   20    0.17467      0.00000     0.32208    0.00326     0.32533
      H   21    0.09202      0.00000     0.40681    0.00117     0.40798
      H   22    0.09282      0.00000     0.40602    0.00116     0.40718
      H   23    0.10406      0.00000     0.39476    0.00118     0.39594
      H   24    0.11631      0.00000     0.38103    0.00267     0.38369
      H   25    0.10833      0.00000     0.38936    0.00231     0.39167
      H   26    0.10351      0.00000     0.39540    0.00108     0.39649
      H   27    0.10091      0.00000     0.39787    0.00121     0.39909
      H   28    0.10006      0.00000     0.39864    0.00130     0.39994
      H   29    0.08226      0.00000     0.41532    0.00243     0.41774
      H   30    0.07968      0.00000     0.41809    0.00223     0.42032
      H   31    0.24036      0.00000     0.24279    0.01685     0.25964
      H   32    0.08429      0.00000     0.41446    0.00125     0.41571
      H   33    0.08321      0.00000     0.41523    0.00155     0.41679
      H   34    0.22687      0.00000     0.26992    0.00320     0.27313
 =======================================================================
   * Total *   -0.00000     16.99554    39.81355    0.19091    57.00000

 Normal termination of Gaussian 16 at Wed Dec  9 23:46:47 2020.
