 Gaussian 16, Revision A.03,

 -----------------------------------------------------------
 # opt freq B3LYP/6-31G(d) empiricaldispersion=gd3bj scf=xqc
 -----------------------------------------------------------

 -------------------------------
 CID_112756675_JID_1034_neutraal
 -------------------------------
 Symbolic Z-matrix:
 Charge =  0 Multiplicity = 1

 SCF Done:  E(RB3LYP) =  -483.187529226     A.U. after   13 cycles
 SCF Done:  E(RB3LYP) =  -483.191832157     A.U. after   11 cycles
 SCF Done:  E(RB3LYP) =  -483.192440456     A.U. after   10 cycles
 SCF Done:  E(RB3LYP) =  -483.192740509     A.U. after   10 cycles
 SCF Done:  E(RB3LYP) =  -483.192810003     A.U. after   10 cycles
 SCF Done:  E(RB3LYP) =  -483.192908907     A.U. after   10 cycles
 SCF Done:  E(RB3LYP) =  -483.192919503     A.U. after   10 cycles
 SCF Done:  E(RB3LYP) =  -483.192958792     A.U. after   10 cycles
 SCF Done:  E(RB3LYP) =  -483.193062706     A.U. after   11 cycles
 SCF Done:  E(RB3LYP) =  -483.193008119     A.U. after   11 cycles
 SCF Done:  E(RB3LYP) =  -483.193248444     A.U. after   10 cycles
 SCF Done:  E(RB3LYP) =  -483.193234050     A.U. after   10 cycles
 SCF Done:  E(RB3LYP) =  -483.193249184     A.U. after   10 cycles
 SCF Done:  E(RB3LYP) =  -483.193249107     A.U. after    7 cycles
 SCF Done:  E(RB3LYP) =  -483.193249215     A.U. after    8 cycles
 SCF Done:  E(RB3LYP) =  -483.193249261     A.U. after    7 cycles
 Optimization completed on the basis of negligible forces.
    -- Stationary point found.
 Normal termination of Gaussian 16 at Tue Dec  8 19:22:33 2020.

 --------------------------------------------------------------------
 #N Geom=AllCheck Guess=TCheck SCRF=Check GenChk RB3LYP/6-31G(d) Freq
 --------------------------------------------------------------------

 Structure from the checkpoint file:  "JID_1034.chk"
 -------------------------------
 CID_112756675_JID_1034_neutraal
 -------------------------------
 Charge =  0 Multiplicity = 1

 SCF Done:  E(RB3LYP) =  -483.193249261     A.U. after    1 cycles

  Exact polarizability: 117.532  -0.965  93.908  -0.543  -0.355  86.240
 Approx polarizability: 139.022  -2.056 132.886  -2.781  -1.049 134.921

                      1                      2                      3
                      A                      A                      A
 Frequencies --     39.0944                59.5982                73.0993
 Red. masses --      3.0920                 2.0137                 2.8968
 Frc consts  --      0.0028                 0.0042                 0.0091
 IR Inten    --      1.1160                 0.1088                 0.5177

                      4                      5                      6
                      A                      A                      A
 Frequencies --    116.4209               202.6924               264.0834
 Red. masses --      2.1654                 1.7920                 1.4923
 Frc consts  --      0.0173                 0.0434                 0.0613
 IR Inten    --      1.2872                 0.3185                 0.3112

                      7                      8                      9
                      A                      A                      A
 Frequencies --    314.4259               365.4218               387.7650
 Red. masses --      2.2158                 3.0121                 2.3117
 Frc consts  --      0.1291                 0.2370                 0.2048
 IR Inten    --      1.2053                 2.6630                 2.1549

                     10                     11                     12
                      A                      A                      A
 Frequencies --    411.8779               450.3150               488.2263
 Red. masses --      2.4124                 3.9484                 3.9557
 Frc consts  --      0.2411                 0.4717                 0.5555
 IR Inten    --      1.0072                 6.8532                 1.0485

                     13                     14                     15
                      A                      A                      A
 Frequencies --    505.7790               575.0993               722.1788
 Red. masses --      2.6214                 2.4997                 2.7215
 Frc consts  --      0.3951                 0.4871                 0.8363
 IR Inten    --      3.3566                19.0186                 0.7121

                     16                     17                     18
                      A                      A                      A
 Frequencies --    762.5893               802.6280               813.4270
 Red. masses --      3.2028                 1.5878                 1.1621
 Frc consts  --      1.0974                 0.6027                 0.4530
 IR Inten    --     14.5445                 8.8075                 2.4524

                     19                     20                     21
                      A                      A                      A
 Frequencies --    820.5462               847.9051               880.2793
 Red. masses --      2.8659                 2.5557                 2.4628
 Frc consts  --      1.1369                 1.0826                 1.1244
 IR Inten    --      0.6441                 8.3172                35.2545

                     22                     23                     24
                      A                      A                      A
 Frequencies --    898.5818               911.7351               930.9069
 Red. masses --      2.4354                 1.6846                 1.9000
 Frc consts  --      1.1586                 0.8250                 0.9701
 IR Inten    --      2.6467                 0.2417                16.1314

                     25                     26                     27
                      A                      A                      A
 Frequencies --    959.0939               987.6862               999.4209
 Red. masses --      3.0929                 2.0201                 2.3961
 Frc consts  --      1.6763                 1.1611                 1.4101
 IR Inten    --     21.8590                 0.2564                 1.8527

                     28                     29                     30
                      A                      A                      A
 Frequencies --   1021.0293              1048.5160              1057.6883
 Red. masses --      2.2359                 3.1758                 1.4247
 Frc consts  --      1.3733                 2.0571                 0.9391
 IR Inten    --      1.6556                27.0159                 9.4022

                     31                     32                     33
                      A                      A                      A
 Frequencies --   1103.8263              1111.7053              1113.2504
 Red. masses --      2.3441                 2.1737                 2.1627
 Frc consts  --      1.6828                 1.5828                 1.5792
 IR Inten    --     40.1462                26.2632                25.9852

                     34                     35                     36
                      A                      A                      A
 Frequencies --   1136.4958              1147.4257              1193.3150
 Red. masses --      2.4148                 3.2079                 1.1984
 Frc consts  --      1.8376                 2.4884                 1.0054
 IR Inten    --     11.9950               161.2359                 1.2020

                     37                     38                     39
                      A                      A                      A
 Frequencies --   1203.2612              1212.9588              1240.8610
 Red. masses --      1.2447                 1.7287                 1.3679
 Frc consts  --      1.0618                 1.4985                 1.2409
 IR Inten    --      0.6959                41.6256                 6.8735

                     40                     41                     42
                      A                      A                      A
 Frequencies --   1255.4479              1274.9723              1293.8591
 Red. masses --      1.2822                 1.2155                 1.3354
 Frc consts  --      1.1907                 1.1641                 1.3171
 IR Inten    --      2.8571                 3.1245                 1.5689

                     43                     44                     45
                      A                      A                      A
 Frequencies --   1308.2007              1331.0730              1334.2930
 Red. masses --      1.3369                 1.3033                 1.2389
 Frc consts  --      1.3480                 1.3605                 1.2995
 IR Inten    --      0.5762                 1.8428                 6.1230

                     46                     47                     48
                      A                      A                      A
 Frequencies --   1349.6780              1355.9914              1365.9396
 Red. masses --      1.3329                 1.2822                 1.3632
 Frc consts  --      1.4306                 1.3890                 1.4986
 IR Inten    --      3.8114                 3.6315                 8.1728

                     49                     50                     51
                      A                      A                      A
 Frequencies --   1395.4000              1405.2365              1415.6316
 Red. masses --      1.4734                 1.3643                 1.3477
 Frc consts  --      1.6903                 1.5873                 1.5913
 IR Inten    --     40.9246                 9.1137                 9.3704

                     52                     53                     54
                      A                      A                      A
 Frequencies --   1432.5406              1440.2964              1454.1520
 Red. masses --      1.3254                 1.3187                 1.3447
 Frc consts  --      1.6026                 1.6117                 1.6754
 IR Inten    --      6.9469                21.4893                 2.9653

                     55                     56                     57
                      A                      A                      A
 Frequencies --   1513.7031              1518.6173              1522.6259
 Red. masses --      1.0808                 1.0437                 1.0580
 Frc consts  --      1.4591                 1.4181                 1.4451
 IR Inten    --      0.2632                 4.4493                 0.1981

                     58                     59                     60
                      A                      A                      A
 Frequencies --   1528.0895              1528.6536              1541.2228
 Red. masses --      1.0921                 1.0884                 1.0806
 Frc consts  --      1.5025                 1.4986                 1.5123
 IR Inten    --      0.4163                 1.0958                 1.9370

                     61                     62                     63
                      A                      A                      A
 Frequencies --   1545.9051              3010.9074              3050.1183
 Red. masses --      1.0917                 1.0682                 1.0395
 Frc consts  --      1.5372                 5.7055                 5.6979
 IR Inten    --      5.0952                43.0043                11.2970

                     64                     65                     66
                      A                      A                      A
 Frequencies --   3052.6357              3056.1324              3060.4642
 Red. masses --      1.0651                 1.0608                 1.0803
 Frc consts  --      5.8480                 5.8378                 5.9618
 IR Inten    --     22.9241                25.9326                16.6031

                     67                     68                     69
                      A                      A                      A
 Frequencies --   3061.7601              3068.6982              3083.5748
 Red. masses --      1.0619                 1.0643                 1.0959
 Frc consts  --      5.8652                 5.9053                 6.1393
 IR Inten    --     21.4079                31.5505                27.4954

                     70                     71                     72
                      A                      A                      A
 Frequencies --   3089.0562              3094.2260              3097.5614
 Red. masses --      1.0960                 1.0925                 1.0957
 Frc consts  --      6.1616                 6.1629                 6.1943
 IR Inten    --     21.3536                55.8719                25.9888

                     73                     74                     75
                      A                      A                      A
 Frequencies --   3103.7552              3106.8232              3117.9798
 Red. masses --      1.0993                 1.1007                 1.1012
 Frc consts  --      6.2396                 6.2599                 6.3078
 IR Inten    --     45.1669                17.1067                27.6300

                     76                     77                     78
                      A                      A                      A
 Frequencies --   3119.0731              3131.4620              3457.1747
 Red. masses --      1.1032                 1.1036                 1.0744
 Frc consts  --      6.3234                 6.3763                 7.5661
 IR Inten    --     92.4961                42.4515                 5.5797

 - Thermochemistry -
 -------------------
 Temperature   298.150 Kelvin.  Pressure   1.00000 Atm.
 Atom     1 has atomic number  6 and mass  12.00000

 Molecular mass:   155.13101 amu.
 Principal axes and moments of inertia in atomic units:
                           1         2         3
     Eigenvalues --   715.532532829.346972988.99367
           X            0.99991   0.00132   0.01352
           Y           -0.00135   1.00000   0.00273
           Z           -0.01352  -0.00275   0.99990
 This molecule is an asymmetric top.
 Rotational symmetry number  1.
 Warning -- assumption of classical behavior for rotation
           may cause significant error
 Rotational temperatures (Kelvin)      0.12105     0.03061     0.02898
 Rotational constants (GHZ):           2.52224     0.63786     0.60380
 Zero-point vibrational energy     676213.9 (Joules/Mol)
                                  161.61901 (Kcal/Mol)
 Warning -- explicit consideration of  14 degrees of freedom as
           vibrations may cause significant error
 Vibrational temperatures:     56.25    85.75   105.17   167.50   291.63
          (Kelvin)            379.96   452.39   525.76   557.91   592.60
                              647.90   702.45   727.70   827.44  1039.05
                             1097.20  1154.80  1170.34  1180.58  1219.95
                             1266.53  1292.86  1311.78  1339.37  1379.92
                             1421.06  1437.94  1469.03  1508.58  1521.78
                             1588.16  1599.50  1601.72  1635.16  1650.89
                             1716.91  1731.22  1745.18  1785.32  1806.31
                             1834.40  1861.57  1882.21  1915.12  1919.75
                             1941.89  1950.97  1965.28  2007.67  2021.82
                             2036.78  2061.11  2072.27  2092.20  2177.88
                             2184.95  2190.72  2198.58  2199.39  2217.48
                             2224.21  4332.02  4388.44  4392.06  4397.09
                             4403.33  4405.19  4415.17  4436.58  4444.46
                             4451.90  4456.70  4465.61  4470.03  4486.08
                             4487.65  4505.48  4974.10

 Zero-point correction=                           0.257556 (Hartree/Particle)
 Thermal correction to Energy=                    0.268086
 Thermal correction to Enthalpy=                  0.269030
 Thermal correction to Gibbs Free Energy=         0.220492
 Sum of electronic and zero-point Energies=           -482.935693
 Sum of electronic and thermal Energies=              -482.925163
 Sum of electronic and thermal Enthalpies=            -482.924219
 Sum of electronic and thermal Free Energies=         -482.972758

                     E (Thermal)             CV                S
                      KCal/Mol        Cal/Mol-Kelvin    Cal/Mol-Kelvin
 Total                  168.227             41.038            102.158
 Electronic               0.000              0.000              0.000
 Translational            0.889              2.981             41.027
 Rotational               0.889              2.981             30.182
 Vibrational            166.449             35.076             30.949
 Vibration     1          0.594              1.981              5.304
 Vibration     2          0.597              1.974              4.470
 Vibration     3          0.599              1.967              4.068
 Vibration     4          0.608              1.936              3.159
 Vibration     5          0.639              1.836              2.109
 Vibration     6          0.671              1.739              1.635
 Vibration     7          0.702              1.646              1.339
 Vibration     8          0.739              1.543              1.099
 Vibration     9          0.756              1.496              1.009
 Vibration    10          0.776              1.444              0.920
 Vibration    11          0.809              1.360              0.795
 Vibration    12          0.844              1.276              0.688
 Vibration    13          0.861              1.237              0.644
 Vibration    14          0.931              1.085              0.495

 Optimization completed on the basis of negligible forces.
    -- Stationary point found.
 Normal termination of Gaussian 16 at Tue Dec  8 19:28:34 2020.

 ----------------------------------------------------------------------
 # B3LYP/6-311++G(d,p) empiricaldispersion=gd3bj scf=xqc pop=npa geom=c
 heck
 ----------------------------------------------------------------------

 ---------------------------------------
 CID_112756675_JID_1034_Energie_neutraal
 ---------------------------------------
 Structure from the checkpoint file:  "JID_1034.chk"
 Charge =  0 Multiplicity = 1

 SCF Done:  E(RB3LYP) =  -483.330745573     A.U. after   13 cycles
 Normal termination of Gaussian 16 at Tue Dec  8 19:30:50 2020.

 ----------------------------------------------------------------------
 # B3LYP/6-311++G(d,p) empiricaldispersion=gd3bj scf=xqc pop=npa geom=c
 heck
 ----------------------------------------------------------------------

 -------------------------------------
 CID_112756675_JID_1034_Energie_kation
 -------------------------------------
 Structure from the checkpoint file:  "JID_1034.chk"
 Charge =  1 Multiplicity = 2

 SCF Done:  E(UB3LYP) =  -483.024130846     A.U. after   20 cycles
 Normal termination of Gaussian 16 at Tue Dec  8 19:35:06 2020.
 Gaussian 16:  ES64L-G16RevA.03 25-Dec-2016

 ----------------------------------------------------------------------
 # B3LYP/6-311++G(d,p) empiricaldispersion=gd3bj scf=xqc pop=npa geom=c
 heck
 ----------------------------------------------------------------------

 ------------------------------------
 CID_112756675_JID_1034_Energie_anion
 ------------------------------------
 Structure from the checkpoint file:  "JID_1034.chk"
 Charge = -1 Multiplicity = 2

                         Standard orientation:
 ---------------------------------------------------------------------
 Center     Atomic      Atomic             Coordinates (Angstroms)
 Number     Number       Type             X           Y           Z
 ---------------------------------------------------------------------
      1          6           0        3.803573    0.396498    0.536575
      2          6           0        2.996986   -0.591311   -0.302369
      3          8           0        1.830909    0.001202   -0.858111
      4          6           0        0.709280    0.046442    0.023325
      5          6           0       -0.106398    1.296275   -0.322619
      6          6           0       -1.538456    1.200964    0.261074
      7          6           0       -2.574642    0.644206   -0.765963
      8          6           0       -2.655779   -0.869957   -0.435215
      9          6           0       -1.518290   -1.064804    0.596360
     10          6           0       -0.136308   -1.231889   -0.096040
     11          7           0       -1.494501    0.205524    1.359313
     12          1           0        4.078039    1.267163   -0.067756
     13          1           0        4.721128   -0.072104    0.912047
     14          1           0        3.227715    0.748568    1.399519
     15          1           0        3.592277   -0.935606   -1.155336
     16          1           0        2.736742   -1.479959    0.292838
     17          1           0        1.050149    0.137698    1.060402
     18          1           0        0.418262    2.175463    0.066168
     19          1           0       -0.138234    1.400924   -1.412849
     20          1           0       -1.847678    2.171504    0.658246
     21          1           0       -2.263294    0.829774   -1.798510
     22          1           0       -3.548242    1.127640   -0.632904
     23          1           0       -2.547175   -1.510306   -1.316254
     24          1           0       -3.619932   -1.113112    0.026971
     25          1           0       -1.713501   -1.897494    1.278007
     26          1           0       -0.263634   -1.453055   -1.161915
     27          1           0        0.413632   -2.074977    0.336469
     28          1           0       -2.361811    0.271043    1.893775
 ---------------------------------------------------------------------

 SCF Done:  E(UB3LYP) =  -483.315698223     A.U. after   28 cycles

 The electronic state is 2-A.
 Alpha  occ. eigenvalues --  -19.01467 -14.18367 -10.11525 -10.10763 -10.08661
 Alpha  occ. eigenvalues --  -10.08643 -10.06326 -10.05392 -10.05381 -10.05368
 Alpha  occ. eigenvalues --  -10.05314  -0.92785  -0.81763  -0.68066  -0.64836
 Alpha  occ. eigenvalues --   -0.64525  -0.63505  -0.54314  -0.53113  -0.48702
 Alpha  occ. eigenvalues --   -0.45893  -0.43362  -0.41530  -0.39695  -0.36595
 Alpha  occ. eigenvalues --   -0.34347  -0.34256  -0.33089  -0.31237  -0.30976
 Alpha  occ. eigenvalues --   -0.29030  -0.28383  -0.27513  -0.26783  -0.24805
 Alpha  occ. eigenvalues --   -0.23846  -0.22802  -0.22307  -0.21616  -0.20444
 Alpha  occ. eigenvalues --   -0.19845  -0.14982  -0.12566   0.04618
 Alpha virt. eigenvalues --    0.06405   0.07708   0.08469   0.09124   0.09241
 Alpha virt. eigenvalues --    0.09581   0.10798   0.10957   0.11342   0.11826
 Alpha virt. eigenvalues --    0.12421   0.13074   0.13933   0.14764   0.15261

  Beta  occ. eigenvalues --  -19.01460 -14.18343 -10.11508 -10.10757 -10.08647
  Beta  occ. eigenvalues --  -10.08629 -10.06301 -10.05386 -10.05361 -10.05355
  Beta  occ. eigenvalues --  -10.05291  -0.92770  -0.81714  -0.68039  -0.64790
  Beta  occ. eigenvalues --   -0.64478  -0.63469  -0.54267  -0.53068  -0.48647
  Beta  occ. eigenvalues --   -0.45842  -0.43306  -0.41455  -0.39664  -0.36564
  Beta  occ. eigenvalues --   -0.34320  -0.34217  -0.33050  -0.31193  -0.30939
  Beta  occ. eigenvalues --   -0.28993  -0.28341  -0.27483  -0.26755  -0.24769
  Beta  occ. eigenvalues --   -0.23813  -0.22761  -0.22276  -0.21575  -0.20405
  Beta  occ. eigenvalues --   -0.19816  -0.14957  -0.12537
  Beta virt. eigenvalues --    0.06778   0.07567   0.08344   0.08836   0.09628
  Beta virt. eigenvalues --    0.09895   0.09984   0.11125   0.11444   0.11806
  Beta virt. eigenvalues --    0.12316   0.12868   0.13235   0.14109   0.15038

 Mulliken charges and spin densities:
               1          2
     1  C    0.509658  -0.929876
     2  C    0.000422  -0.120906
     3  O   -0.038375   0.015490
     4  C   -1.453805   0.678382
     5  C    0.271222  -0.546837
     6  C    0.237079  -0.017335
     7  C    0.274952  -0.821899
     8  C    0.608938  -1.316744
     9  C   -1.328673   1.724243
    10  C    2.040428  -2.364580
    11  N    0.063221  -0.298009
    12  H    0.049403   0.085663
    13  H   -0.295524   0.426456
    14  H   -0.157692   0.284129
    15  H   -0.162019   0.313675
    16  H   -0.028825   0.136226
    17  H    0.213399  -0.008438
    18  H    0.141806  -0.000672
    19  H    0.019550   0.159505
    20  H   -0.520279   0.768884
    21  H    0.100114   0.002685
    22  H   -0.401553   0.563310
    23  H   -0.055908   0.171287
    24  H   -0.466160   0.640913
    25  H   -0.554488   0.797108
    26  H    0.040073   0.144479
    27  H    0.024650   0.114389
    28  H   -0.131613   0.398469
 Sum of Mulliken charges =  -1.00000   1.00000

 Dipole moment (field-independent basis, Debye):
    X=              3.4584    Y=              0.3873    Z=             -3.0117  Tot=              4.6023
 Quadrupole moment (field-independent basis, Debye-Ang):
   XX=           -147.1078   YY=           -104.1627   ZZ=           -102.1562
   XY=              2.8483   XZ=              5.3485   YZ=              0.7643

 Summary of Natural Population Analysis:

                                       Natural Population
                Natural  -----------------------------------------------
    Atom  No    Charge         Core      Valence    Rydberg      Total
 -----------------------------------------------------------------------
      C    1   -0.29812      0.99967     2.29408    0.00437     3.29812
      C    2   -0.00875      0.99959     1.99662    0.01254     3.00875
      O    3   -0.30715      0.99988     3.29713    0.01014     4.30715
      C    4    0.06714      0.99951     1.91850    0.01485     2.93286
      C    5   -0.19508      0.99959     2.18459    0.01090     3.19508
      C    6   -0.01627      0.99961     2.00235    0.01431     3.01627
      C    7   -0.20134      0.99962     2.19314    0.00857     3.20134
      C    8   -0.19848      0.99962     2.19015    0.00871     3.19848
      C    9   -0.01476      0.99961     2.00076    0.01440     3.01476
      C   10   -0.20430      0.99959     2.19420    0.01051     3.20430
      N   11   -0.34224      0.99976     2.83050    0.01199     3.84224
      H   12    0.09753      0.00000     0.40114    0.00133     0.40247
      H   13    0.09809      0.00000     0.40041    0.00150     0.40191
      H   14    0.09876      0.00000     0.40002    0.00123     0.40124
      H   15    0.08508      0.00000     0.41376    0.00116     0.41492
      H   16    0.07924      0.00000     0.41928    0.00148     0.42076
      H   17    0.08879      0.00000     0.40891    0.00231     0.41121
      H   18    0.10046      0.00000     0.39844    0.00110     0.39954
      H   19    0.09878      0.00000     0.39975    0.00147     0.40122
      H   20    0.09983      0.00000     0.39846    0.00171     0.40017
      H   21    0.09518      0.00000     0.40369    0.00113     0.40482
      H   22    0.10262      0.00000     0.39528    0.00211     0.39738
      H   23    0.09656      0.00000     0.40234    0.00110     0.40344
      H   24    0.10089      0.00000     0.39640    0.00271     0.39911
      H   25    0.09948      0.00000     0.39863    0.00189     0.40052
      H   26    0.09778      0.00000     0.40080    0.00142     0.40222
      H   27    0.10121      0.00000     0.39740    0.00140     0.39879
      H   28    0.17908      0.00000     0.31627    0.00465     0.32092
 =======================================================================
   * Total *   -0.00000     10.99604    31.85300    0.15096    43.00000

 Normal termination of Gaussian 16 at Tue Dec  8 19:40:58 2020.
