 Gaussian 16, Revision A.03,

 -----------------------------------------------------------
 # opt freq B3LYP/6-31G(d) empiricaldispersion=gd3bj scf=xqc
 -----------------------------------------------------------

 -------------------------------
 CID_150456787_JID_4649_neutraal
 -------------------------------
 Symbolic Z-matrix:
 Charge =  0 Multiplicity = 1

 SCF Done:  E(RB3LYP) =  -643.123765545     A.U. after   16 cycles
 SCF Done:  E(RB3LYP) =  -643.130936399     A.U. after   14 cycles
 SCF Done:  E(RB3LYP) =  -643.132785053     A.U. after   14 cycles
 SCF Done:  E(RB3LYP) =  -643.133510509     A.U. after   13 cycles
 SCF Done:  E(RB3LYP) =  -643.133756712     A.U. after   13 cycles
 SCF Done:  E(RB3LYP) =  -643.133813314     A.U. after   13 cycles
 SCF Done:  E(RB3LYP) =  -643.133917254     A.U. after   11 cycles
 SCF Done:  E(RB3LYP) =  -643.133995746     A.U. after   14 cycles
 SCF Done:  E(RB3LYP) =  -643.134012725     A.U. after   13 cycles
 SCF Done:  E(RB3LYP) =  -643.134020820     A.U. after   11 cycles
 SCF Done:  E(RB3LYP) =  -643.134021715     A.U. after    9 cycles
 SCF Done:  E(RB3LYP) =  -643.134021836     A.U. after    8 cycles
 Optimization completed.
    -- Stationary point found.
 Normal termination of Gaussian 16 at Thu Dec 10 10:16:59 2020.

 --------------------------------------------------------------------
 #N Geom=AllCheck Guess=TCheck SCRF=Check GenChk RB3LYP/6-31G(d) Freq
 --------------------------------------------------------------------

 Structure from the checkpoint file:  "JID_4649.chk"
 -------------------------------
 CID_150456787_JID_4649_neutraal
 -------------------------------
 Charge =  0 Multiplicity = 1

 SCF Done:  E(RB3LYP) =  -643.134021836     A.U. after    1 cycles

  Exact polarizability: 138.415   7.637 137.176  -1.719   7.052  83.086
 Approx polarizability: 203.685  21.840 238.213  -2.939  15.324 138.143

                      1                      2                      3
                      A                      A                      A
 Frequencies --     27.6796                57.1975               116.6826
 Red. masses --      9.3965                 5.9174                 4.2284
 Frc consts  --      0.0042                 0.0114                 0.0339
 IR Inten    --      0.2491                 1.0752                 0.9531

                      4                      5                      6
                      A                      A                      A
 Frequencies --    140.1340               173.5652               236.0851
 Red. masses --      3.8515                 6.8738                 4.8988
 Frc consts  --      0.0446                 0.1220                 0.1609
 IR Inten    --      2.1965                 0.8973                 2.6600

                      7                      8                      9
                      A                      A                      A
 Frequencies --    266.9031               330.6479               348.2370
 Red. masses --      2.8339                 4.4903                 3.6364
 Frc consts  --      0.1189                 0.2892                 0.2598
 IR Inten    --      0.9764                 3.0896                 0.7725

                     10                     11                     12
                      A                      A                      A
 Frequencies --    355.8727               387.2677               483.0864
 Red. masses --      4.9286                 2.6440                 3.6456
 Frc consts  --      0.3678                 0.2336                 0.5013
 IR Inten    --      2.3196                 3.4985                 3.8627

                     13                     14                     15
                      A                      A                      A
 Frequencies --    509.1251               530.4216               552.7424
 Red. masses --      3.3333                 7.7671                 7.1697
 Frc consts  --      0.5091                 1.2875                 1.2906
 IR Inten    --      4.1090                12.8473                 1.6374

                     16                     17                     18
                      A                      A                      A
 Frequencies --    572.8401               588.2410               619.8618
 Red. masses --      2.3392                 4.4166                 5.6918
 Frc consts  --      0.4523                 0.9004                 1.2885
 IR Inten    --      4.1354                 1.7668                12.1441

                     19                     20                     21
                      A                      A                      A
 Frequencies --    654.7029               737.9330               769.8606
 Red. masses --      5.1856                 5.2593                 3.6513
 Frc consts  --      1.3096                 1.6874                 1.2750
 IR Inten    --      6.4522                 5.8502                 3.2942

                     22                     23                     24
                      A                      A                      A
 Frequencies --    782.3383               811.9083               852.6780
 Red. masses --      1.3831                 4.5885                 3.0424
 Frc consts  --      0.4988                 1.7821                 1.3033
 IR Inten    --     30.9434                11.4218                 4.1003

                     25                     26                     27
                      A                      A                      A
 Frequencies --    855.9972               887.1914               940.0619
 Red. masses --      3.2033                 1.5120                 1.8472
 Frc consts  --      1.3829                 0.7012                 0.9618
 IR Inten    --      2.3505                 1.4399                 6.7263

                     28                     29                     30
                      A                      A                      A
 Frequencies --    954.0249               968.0943               984.1699
 Red. masses --      1.4895                 2.4792                 1.2608
 Frc consts  --      0.7988                 1.3690                 0.7195
 IR Inten    --      5.0687                11.2265                 0.0969

                     31                     32                     33
                      A                      A                      A
 Frequencies --   1003.6343              1065.0130              1091.1885
 Red. masses --      2.4611                 2.3130                 3.0225
 Frc consts  --      1.4606                 1.5458                 2.1204
 IR Inten    --     12.1970                 3.0963                68.5516

                     34                     35                     36
                      A                      A                      A
 Frequencies --   1112.7960              1137.8438              1158.3119
 Red. masses --      2.9124                 2.1103                 2.1482
 Frc consts  --      2.1249                 1.6098                 1.6982
 IR Inten    --     25.0155                 2.9539                 3.4302

                     37                     38                     39
                      A                      A                      A
 Frequencies --   1187.9248              1222.4964              1241.9118
 Red. masses --      1.0997                 2.0588                 2.5231
 Frc consts  --      0.9144                 1.8129                 2.2928
 IR Inten    --      3.5476                 2.9722                58.6478

                     40                     41                     42
                      A                      A                      A
 Frequencies --   1266.5580              1290.6633              1295.8867
 Red. masses --      2.1542                 2.4218                 1.5805
 Frc consts  --      2.0361                 2.3769                 1.5638
 IR Inten    --     86.9786                49.7487                26.4575

                     43                     44                     45
                      A                      A                      A
 Frequencies --   1320.5874              1337.7304              1359.4590
 Red. masses --      1.5138                 3.8779                 1.5805
 Frc consts  --      1.5554                 4.0887                 1.7210
 IR Inten    --     42.3899                 3.4860                14.3407

                     46                     47                     48
                      A                      A                      A
 Frequencies --   1405.9954              1416.7395              1435.5029
 Red. masses --      1.2865                 1.4512                 1.3319
 Frc consts  --      1.4984                 1.7162                 1.6171
 IR Inten    --     14.4985                 2.4350                31.3940

                     49                     50                     51
                      A                      A                      A
 Frequencies --   1495.1348              1497.2785              1504.4169
 Red. masses --      1.2040                 1.4501                 1.3440
 Frc consts  --      1.5857                 1.9154                 1.7922
 IR Inten    --      1.7828                20.7667                 7.3610

                     52                     53                     54
                      A                      A                      A
 Frequencies --   1520.1903              1538.5016              1630.9094
 Red. masses --      1.4760                 1.7592                 6.1961
 Frc consts  --      2.0097                 2.4534                 9.7101
 IR Inten    --     26.0345                58.9720                 4.1077

                     55                     56                     57
                      A                      A                      A
 Frequencies --   1659.4105              2223.2031              3024.6815
 Red. masses --      6.1738                13.9846                 1.0686
 Frc consts  --     10.0164                40.7248                 5.7598
 IR Inten    --     15.3332               490.2913                43.7762

                     58                     59                     60
                      A                      A                      A
 Frequencies --   3046.3042              3062.9505              3103.6094
 Red. masses --      1.0668                 1.0609                 1.1004
 Frc consts  --      5.8329                 5.8641                 6.2452
 IR Inten    --     25.9314                35.5619                26.4828

                     61                     62                     63
                      A                      A                      A
 Frequencies --   3112.2510              3119.7165              3192.2946
 Red. masses --      1.0989                 1.1001                 1.0859
 Frc consts  --      6.2711                 6.3081                 6.5199
 IR Inten    --     33.4997                35.8290                 2.1439

                     64                     65                     66
                      A                      A                      A
 Frequencies --   3204.8421              3215.2756              3221.0634
 Red. masses --      1.0898                 1.0931                 1.0972
 Frc consts  --      6.5950                 6.6581                 6.7070
 IR Inten    --     11.9985                15.3900                10.6794

 - Thermochemistry -
 -------------------
 Temperature   298.150 Kelvin.  Pressure   1.00000 Atm.
 Atom     1 has atomic number  6 and mass  12.00000

 Molecular mass:   190.08546 amu.
 Principal axes and moments of inertia in atomic units:
                           1         2         3
     Eigenvalues --  2105.924502387.757483717.35301
           X            0.97341   0.22874  -0.01231
           Y           -0.22858   0.97344   0.01281
           Z            0.01491  -0.00966   0.99984
 This molecule is an asymmetric top.
 Rotational symmetry number  1.
 Warning -- assumption of classical behavior for rotation
           may cause significant error
 Rotational temperatures (Kelvin)      0.04113     0.03627     0.02330
 Rotational constants (GHZ):           0.85698     0.75583     0.48549
 Zero-point vibrational energy     497753.1 (Joules/Mol)
                                  118.96586 (Kcal/Mol)
 Warning -- explicit consideration of  18 degrees of freedom as
           vibrations may cause significant error
 Vibrational temperatures:     39.82    82.29   167.88   201.62   249.72
          (Kelvin)            339.67   384.01   475.73   501.04   512.02
                              557.19   695.05   732.52   763.16   795.27
                              824.19   846.35   891.84   941.97  1061.72
                             1107.66  1125.61  1168.15  1226.81  1231.59
                             1276.47  1352.54  1372.63  1392.87  1416.00
                             1444.01  1532.32  1569.98  1601.07  1637.10
                             1666.55  1709.16  1758.90  1786.83  1822.29
                             1856.98  1864.49  1900.03  1924.70  1955.96
                             2022.91  2038.37  2065.37  2151.17  2154.25
                             2164.52  2187.21  2213.56  2346.51  2387.52
                             3198.69  4351.84  4382.95  4406.90  4465.40
                             4477.84  4488.58  4593.00  4611.05  4626.06
                             4634.39

 Zero-point correction=                           0.189584 (Hartree/Particle)
 Thermal correction to Energy=                    0.200965
 Thermal correction to Enthalpy=                  0.201909
 Thermal correction to Gibbs Free Energy=         0.151217
 Sum of electronic and zero-point Energies=           -642.944438
 Sum of electronic and thermal Energies=              -642.933057
 Sum of electronic and thermal Enthalpies=            -642.932112
 Sum of electronic and thermal Free Energies=         -642.982805

                     E (Thermal)             CV                S
                      KCal/Mol        Cal/Mol-Kelvin    Cal/Mol-Kelvin
 Total                  126.108             44.332            106.692
 Electronic               0.000              0.000              0.000
 Translational            0.889              2.981             41.633
 Rotational               0.889              2.981             31.303
 Vibrational            124.330             38.370             33.756
 Vibration     1          0.593              1.984              5.989
 Vibration     2          0.596              1.975              4.552
 Vibration     3          0.608              1.936              3.155
 Vibration     4          0.615              1.913              2.802
 Vibration     5          0.627              1.875              2.397
 Vibration     6          0.655              1.786              1.832
 Vibration     7          0.672              1.734              1.616
 Vibration     8          0.713              1.614              1.257
 Vibration     9          0.726              1.579              1.174
 Vibration    10          0.731              1.563              1.140
 Vibration    11          0.756              1.497              1.011
 Vibration    12          0.839              1.288              0.702
 Vibration    13          0.864              1.230              0.636
 Vibration    14          0.885              1.183              0.586
 Vibration    15          0.908              1.134              0.539
 Vibration    16          0.929              1.090              0.499
 Vibration    17          0.945              1.057              0.470
 Vibration    18          0.980              0.990              0.417

                           ! Non-Optimized Parameters !
 Normal termination of Gaussian 16 at Thu Dec 10 10:24:20 2020.

 ----------------------------------------------------------------------
 # B3LYP/6-311++G(d,p) empiricaldispersion=gd3bj scf=xqc pop=npa geom=c
 heck
 ----------------------------------------------------------------------

 ---------------------------------------
 CID_150456787_JID_4649_Energie_neutraal
 ---------------------------------------
 Structure from the checkpoint file:  "JID_4649.chk"
 Charge =  0 Multiplicity = 1

 SCF Done:  E(RB3LYP) =  -643.305101380     A.U. after   17 cycles
 Normal termination of Gaussian 16 at Thu Dec 10 10:27:56 2020.

 ----------------------------------------------------------------------
 # B3LYP/6-311++G(d,p) empiricaldispersion=gd3bj scf=xqc pop=npa geom=c
 heck
 ----------------------------------------------------------------------

 -------------------------------------
 CID_150456787_JID_4649_Energie_kation
 -------------------------------------
 Structure from the checkpoint file:  "JID_4649.chk"
 Charge =  1 Multiplicity = 2

 SCF Done:  E(UB3LYP) =  -643.001997371     A.U. after   32 cycles
 Normal termination of Gaussian 16 at Thu Dec 10 10:37:12 2020.
 Gaussian 16:  ES64L-G16RevA.03 25-Dec-2016

 ----------------------------------------------------------------------
 # B3LYP/6-311++G(d,p) empiricaldispersion=gd3bj scf=xqc pop=npa geom=c
 heck
 ----------------------------------------------------------------------

 ------------------------------------
 CID_150456787_JID_4649_Energie_anion
 ------------------------------------
 Structure from the checkpoint file:  "JID_4649.chk"
 Charge = -1 Multiplicity = 2

                         Standard orientation:
 ---------------------------------------------------------------------
 Center     Atomic      Atomic             Coordinates (Angstroms)
 Number     Number       Type             X           Y           Z
 ---------------------------------------------------------------------
      1          6           0       -2.158931   -1.653420    0.261097
      2          6           0       -1.813663   -0.521880    1.232206
      3          7           0       -0.950583    0.542195    0.713535
      4          6           0        0.419362    0.200077    0.428441
      5          6           0        1.397775    1.025043    0.991409
      6          6           0        2.751030    0.830684    0.721275
      7          6           0        3.136215   -0.202852   -0.133034
      8          6           0        2.174664   -1.040451   -0.695106
      9          6           0        0.817944   -0.850730   -0.422202
     10          8           0       -0.067290   -1.685259   -1.051279
     11          6           0       -0.949281   -2.445241   -0.215010
     12          7           0       -1.604063    1.095499   -0.481801
     13          7           0       -1.282751    2.286532   -0.640800
     14          7           0       -1.033931    3.364038   -0.925441
     15          1           0       -2.681022   -1.241576   -0.608727
     16          1           0       -2.850532   -2.344675    0.762233
     17          1           0       -2.733657   -0.040637    1.579403
     18          1           0       -1.292797   -0.915444    2.113110
     19          1           0        1.063195    1.827580    1.641137
     20          1           0        3.494747    1.483659    1.167336
     21          1           0        4.186549   -0.365212   -0.357386
     22          1           0        2.450254   -1.855001   -1.357144
     23          1           0       -0.382202   -2.847414    0.637073
     24          1           0       -1.267599   -3.284434   -0.839718
 ---------------------------------------------------------------------

 SCF Done:  E(UB3LYP) =  -643.301530504     A.U. after   33 cycles
 SCF Done:  E(UB3LYP) =  -643.301530505     a.u. after    2 cycles

 The electronic state is 2-A.
 Alpha  occ. eigenvalues --  -19.02508 -14.29468 -14.21836 -14.21025 -14.20898
 Alpha  occ. eigenvalues --  -10.11082 -10.11049 -10.08284 -10.07627 -10.05706
 Alpha  occ. eigenvalues --  -10.05633 -10.05610 -10.05514 -10.05392  -0.97731
 Alpha  occ. eigenvalues --   -0.94340  -0.85565  -0.75984  -0.73010  -0.66894
 Alpha  occ. eigenvalues --   -0.63445  -0.60439  -0.56898  -0.50093  -0.49102
 Alpha  occ. eigenvalues --   -0.47286  -0.43709  -0.39556  -0.38320  -0.36729
 Alpha  occ. eigenvalues --   -0.36015  -0.34966  -0.34244  -0.32813  -0.31815
 Alpha  occ. eigenvalues --   -0.31206  -0.29683  -0.28832  -0.28224  -0.26632
 Alpha  occ. eigenvalues --   -0.25361  -0.24771  -0.23837  -0.21848  -0.19475
 Alpha  occ. eigenvalues --   -0.17416  -0.14811  -0.13091  -0.11696  -0.08068
 Alpha  occ. eigenvalues --    0.05092
 Alpha virt. eigenvalues --    0.06908   0.07832   0.08919   0.09667   0.09836
 Alpha virt. eigenvalues --    0.10196   0.10515   0.10717   0.12231   0.12754
 Alpha virt. eigenvalues --    0.13099   0.13197   0.15183   0.16093   0.16680

  Beta  occ. eigenvalues --  -19.02510 -14.29098 -14.21816 -14.20838 -14.20341
  Beta  occ. eigenvalues --  -10.11050 -10.11016 -10.08291 -10.07508 -10.05660
  Beta  occ. eigenvalues --  -10.05633 -10.05546 -10.05503 -10.05364  -0.96975
  Beta  occ. eigenvalues --   -0.94309  -0.85120  -0.75609  -0.72856  -0.66786
  Beta  occ. eigenvalues --   -0.63335  -0.60263  -0.56768  -0.50000  -0.48752
  Beta  occ. eigenvalues --   -0.47172  -0.43536  -0.39325  -0.38179  -0.36348
  Beta  occ. eigenvalues --   -0.35858  -0.34360  -0.33793  -0.32412  -0.31638
  Beta  occ. eigenvalues --   -0.30987  -0.28942  -0.28690  -0.27733  -0.26479
  Beta  occ. eigenvalues --   -0.25099  -0.24662  -0.23665  -0.21747  -0.18520
  Beta  occ. eigenvalues --   -0.17348  -0.14348  -0.12834  -0.11300  -0.07841
  Beta virt. eigenvalues --    0.07523   0.07974   0.09051   0.09707   0.09883
  Beta virt. eigenvalues --    0.10533   0.10663   0.10834   0.12077   0.12491
  Beta virt. eigenvalues --    0.13044   0.13194   0.13356   0.15252   0.16196

 Mulliken charges and spin densities:
               1          2
     1  C   -0.512602   0.189517
     2  C    0.163599  -0.308649
     3  N    0.396341   0.037246
     4  C    0.027043   0.078254
     5  C   -0.157423   0.099973
     6  C   -0.271907  -0.116450
     7  C    0.182857  -0.322327
     8  C   -0.059469  -0.122017
     9  C   -0.772330   0.316589
    10  O   -0.134561   0.022734
    11  C    0.747688  -0.993278
    12  N   -0.427083  -0.202377
    13  N    0.309710   0.334625
    14  N   -0.307015   0.316968
    15  H    0.242031  -0.078053
    16  H   -0.440414   0.573605
    17  H    0.187522  -0.018587
    18  H   -0.033067   0.167948
    19  H    0.089077   0.065518
    20  H   -0.017629   0.156795
    21  H    0.056480   0.061022
    22  H    0.061911   0.099020
    23  H   -0.077574   0.206802
    24  H   -0.253186   0.435123
 Sum of Mulliken charges =  -1.00000   1.00000

 Dipole moment (field-independent basis, Debye):
    X=              1.5701    Y=             -1.1739    Z=              0.8671  Tot=              2.1437
 Quadrupole moment (field-independent basis, Debye-Ang):
   XX=           -106.7992   YY=           -132.3260   ZZ=           -101.3714
   XY=             -1.7058   XZ=             -1.1567   YZ=              8.0034

 Summary of Natural Population Analysis:

                                       Natural Population
                Natural  -----------------------------------------------
    Atom  No    Charge         Core      Valence    Rydberg      Total
 -----------------------------------------------------------------------
      C    1   -0.21754      0.99962     2.20906    0.00886     3.21754
      C    2   -0.08380      0.99960     2.07063    0.01356     3.08380
      N    3   -0.18140      0.99968     2.66727    0.01444     3.68140
      C    4    0.06386      0.99940     1.92349    0.01325     2.93614
      C    5   -0.08859      0.99952     2.07801    0.01105     3.08859
      C    6   -0.11690      0.99957     2.10787    0.00947     3.11690
      C    7   -0.08350      0.99957     2.07431    0.00961     3.08350
      C    8   -0.12442      0.99952     2.11542    0.00948     3.12442
      C    9    0.15877      0.99931     1.82750    0.01442     2.84123
      O   10   -0.28909      0.99986     3.27975    0.00948     4.28909
      C   11   -0.00715      0.99955     1.99365    0.01395     3.00715
      N   12   -0.15008      0.99972     2.63577    0.01458     3.65008
      N   13    0.13762      0.99971     2.34687    0.01579     3.36238
      N   14    0.01712      0.99982     2.47039    0.01267     3.48288
      H   15    0.10790      0.00000     0.39086    0.00125     0.39210
      H   16    0.09833      0.00000     0.40009    0.00158     0.40167
      H   17    0.09556      0.00000     0.40335    0.00109     0.40444
      H   18    0.09568      0.00000     0.40312    0.00120     0.40432
      H   19    0.10464      0.00000     0.39372    0.00165     0.39536
      H   20    0.09653      0.00000     0.40261    0.00086     0.40347
      H   21    0.09392      0.00000     0.40529    0.00079     0.40608
      H   22    0.10181      0.00000     0.39701    0.00118     0.39819
      H   23    0.08112      0.00000     0.41683    0.00205     0.41888
      H   24    0.08962      0.00000     0.40909    0.00129     0.41038
 =======================================================================
   * Total *    0.00000     13.99447    35.82197    0.18355    50.00000

 Normal termination of Gaussian 16 at Thu Dec 10 10:57:36 2020.
