 Gaussian 16, Revision A.03,

 -----------------------------------------------------------
 # opt freq B3LYP/6-31G(d) empiricaldispersion=gd3bj scf=xqc
 -----------------------------------------------------------

 ----------------------------
 CID_13613765_JID_57_neutraal
 ----------------------------
 Symbolic Z-matrix:
 Charge =  0 Multiplicity = 1

 SCF Done:  E(RB3LYP) =  -427.821164496     A.U. after   13 cycles
 SCF Done:  E(RB3LYP) =  -427.822948629     A.U. after   11 cycles
 SCF Done:  E(RB3LYP) =  -427.823088930     A.U. after   10 cycles
 SCF Done:  E(RB3LYP) =  -427.823126419     A.U. after   11 cycles
 SCF Done:  E(RB3LYP) =  -427.823163842     A.U. after    9 cycles
 SCF Done:  E(RB3LYP) =  -427.823170625     A.U. after    9 cycles
 SCF Done:  E(RB3LYP) =  -427.823171891     A.U. after    9 cycles
 SCF Done:  E(RB3LYP) =  -427.823172178     A.U. after    7 cycles
 SCF Done:  E(RB3LYP) =  -427.823172255     A.U. after    7 cycles
 SCF Done:  E(RB3LYP) =  -427.823172290     A.U. after    6 cycles
 SCF Done:  E(RB3LYP) =  -427.823172364     A.U. after    7 cycles
 SCF Done:  E(RB3LYP) =  -427.823172421     A.U. after    7 cycles
 SCF Done:  E(RB3LYP) =  -427.823172484     A.U. after    7 cycles
 SCF Done:  E(RB3LYP) =  -427.823172534     A.U. after    7 cycles
 SCF Done:  E(RB3LYP) =  -427.823172559     A.U. after    6 cycles
 Optimization completed.
    -- Stationary point found.

 1\1\GINC-NODE317\FOpt\RB3LYP\6-31G(d)\C9H16O1\VSC10255\08-Dec-2020\0\\
 # opt freq B3LYP/6-31G(d) empiricaldispersion=gd3bj scf=xqc\\CID_13613
 765_JID_57_neutraal\\0,1\C,0.9612225471,0.1822348411,0.015190035\C,0.1
 009549594,0.8864347158,0.7510236903\C,-1.2924457348,0.4423133495,1.099
 9272936\C,-1.4889560111,0.1329314029,2.5997410367\C,-1.2068928245,1.27
 41710831,3.5878319651\C,-2.1978056021,2.4371936447,3.5587479611\C,-2.0
 552837894,3.4562468123,2.4179344525\C,-2.5754260892,4.7453725825,3.064
 7966781\C,-2.052245036,4.5997767609,4.4965260356\O,-2.0165671549,3.197

 Normal termination of Gaussian 16 at Tue Dec  8 10:17:09 2020.

 --------------------------------------------------------------------
 #N Geom=AllCheck Guess=TCheck SCRF=Check GenChk RB3LYP/6-31G(d) Freq
 --------------------------------------------------------------------

 Structure from the checkpoint file:  "JID_57.chk"
 ----------------------------
 CID_13613765_JID_57_neutraal
 ----------------------------
 Charge =  0 Multiplicity = 1

 SCF Done:  E(RB3LYP) =  -427.823172559     A.U. after    1 cycles

  Exact polarizability: 122.510  -0.383  83.481  -2.883   6.729  81.804
 Approx polarizability: 151.768  -2.650 116.405  -5.463   9.983 121.647

                      1                      2                      3
                      A                      A                      A
 Frequencies --     24.8604                45.7035                62.1684
 Red. masses --      2.5401                 3.4218                 3.4365
 Frc consts  --      0.0009                 0.0042                 0.0078
 IR Inten    --      0.0712                 1.8094                 0.4353

                      4                      5                      6
                      A                      A                      A
 Frequencies --     79.5415               164.3955               205.2233
 Red. masses --      2.5224                 3.0716                 2.0582
 Frc consts  --      0.0094                 0.0489                 0.0511
 IR Inten    --      1.0562                 0.4166                 0.5068

                      7                      8                      9
                      A                      A                      A
 Frequencies --    234.7278               260.4721               350.2153
 Red. masses --      2.3825                 2.2717                 1.8736
 Frc consts  --      0.0773                 0.0908                 0.1354
 IR Inten    --      1.4073                 0.8369                 0.5121

                     10                     11                     12
                      A                      A                      A
 Frequencies --    426.5396               441.3124               471.4451
 Red. masses --      2.0119                 3.1400                 1.7208
 Frc consts  --      0.2157                 0.3603                 0.2253
 IR Inten    --      0.7506                 3.3306                 0.7745

                     13                     14                     15
                      A                      A                      A
 Frequencies --    587.4303               657.2865               675.7106
 Red. masses --      1.9047                 1.9070                 2.5167
 Frc consts  --      0.3872                 0.4854                 0.6770
 IR Inten    --      2.5666                 8.0228                 0.9285

                     16                     17                     18
                      A                      A                      A
 Frequencies --    778.7773               826.9396               862.9124
 Red. masses --      1.5315                 2.4628                 2.1461
 Frc consts  --      0.5473                 0.9922                 0.9415
 IR Inten    --      6.4183                 2.8288                 1.4617

                     19                     20                     21
                      A                      A                      A
 Frequencies --    886.1142               893.1125               933.3756
 Red. masses --      1.7983                 1.9471                 1.8748
 Frc consts  --      0.8319                 0.9150                 0.9623
 IR Inten    --      6.6709                13.3731                 7.9860

                     22                     23                     24
                      A                      A                      A
 Frequencies --    939.7608               946.5395               963.4542
 Red. masses --      1.3549                 2.4288                 1.9424
 Frc consts  --      0.7050                 1.2821                 1.0623
 IR Inten    --     34.7198                 1.4161                14.0265

                     25                     26                     27
                      A                      A                      A
 Frequencies --    985.3462              1002.8561              1037.6627
 Red. masses --      1.6707                 1.6678                 1.3973
 Frc consts  --      0.9557                 0.9883                 0.8864
 IR Inten    --      7.5776                 0.9696                 1.0494

                     28                     29                     30
                      A                      A                      A
 Frequencies --   1041.2270              1087.5426              1103.8540
 Red. masses --      1.3389                 1.6235                 3.6742
 Frc consts  --      0.8553                 1.1313                 2.6377
 IR Inten    --     13.1146                26.2622                49.2464

                     31                     32                     33
                      A                      A                      A
 Frequencies --   1119.0486              1133.0583              1166.8675
 Red. masses --      2.1746                 2.2974                 1.8940
 Frc consts  --      1.6044                 1.7378                 1.5194
 IR Inten    --     43.1625                45.6542                 4.6877

                     34                     35                     36
                      A                      A                      A
 Frequencies --   1204.8556              1213.8889              1234.5240
 Red. masses --      1.3991                 1.4344                 1.4166
 Frc consts  --      1.1966                 1.2453                 1.2720
 IR Inten    --     10.7534                 3.5369                 1.3803

                     37                     38                     39
                      A                      A                      A
 Frequencies --   1257.8270              1278.0363              1318.5065
 Red. masses --      1.3168                 1.2491                 1.2674
 Frc consts  --      1.2275                 1.2021                 1.2982
 IR Inten    --      1.3476                 3.4304                 0.6250

                     40                     41                     42
                      A                      A                      A
 Frequencies --   1329.0825              1334.9514              1350.7305
 Red. masses --      1.2516                 1.2510                 1.2431
 Frc consts  --      1.3026                 1.3135                 1.3363
 IR Inten    --      2.6036                 2.0946                 4.4312

                     43                     44                     45
                      A                      A                      A
 Frequencies --   1361.3414              1376.3405              1395.9727
 Red. masses --      1.2983                 1.3108                 1.3273
 Frc consts  --      1.4176                 1.4629                 1.5239
 IR Inten    --      1.1128                 3.0560                 0.5383

                     46                     47                     48
                      A                      A                      A
 Frequencies --   1404.6001              1415.1160              1429.6905
 Red. masses --      1.3991                 1.3719                 1.5515
 Frc consts  --      1.6263                 1.6186                 1.8685
 IR Inten    --     10.1215                 8.7294                 7.4109

                     49                     50                     51
                      A                      A                      A
 Frequencies --   1477.0362              1512.3249              1513.9676
 Red. masses --      1.1864                 1.0958                 1.0835
 Frc consts  --      1.5250                 1.4767                 1.4633
 IR Inten    --      1.2404                 6.8332                 2.5783

                     52                     53                     54
                      A                      A                      A
 Frequencies --   1521.0796              1523.8565              1528.4560
 Red. masses --      1.0995                 1.0996                 1.1062
 Frc consts  --      1.4988                 1.5044                 1.5227
 IR Inten    --     11.1783                 2.6932                 3.1217

                     55                     56                     57
                      A                      A                      A
 Frequencies --   1562.6372              1734.0795              2968.9244
 Red. masses --      1.0960                 4.4832                 1.0837
 Frc consts  --      1.5768                 7.9429                 5.6278
 IR Inten    --      2.5873                 5.6579                58.0526

                     58                     59                     60
                      A                      A                      A
 Frequencies --   3008.5624              3030.1557              3042.5226
 Red. masses --      1.0707                 1.0637                 1.0607
 Frc consts  --      5.7099                 5.7546                 5.7854
 IR Inten    --     73.4934                27.3412                33.6129

                     61                     62                     63
                      A                      A                      A
 Frequencies --   3049.4828              3057.3371              3062.1804
 Red. masses --      1.0630                 1.0699                 1.0659
 Frc consts  --      5.8244                 5.8923                 5.8886
 IR Inten    --      8.0703                19.4957                17.9653

                     64                     65                     66
                      A                      A                      A
 Frequencies --   3071.0131              3079.8925              3084.9241
 Red. masses --      1.0978                 1.0902                 1.1002
 Frc consts  --      6.1002                 6.0930                 6.1688
 IR Inten    --     28.8491                86.8894                45.7042

                     67                     68                     69
                      A                      A                      A
 Frequencies --   3090.1355              3117.8856              3129.1315
 Red. masses --      1.1031                 1.1004                 1.1004
 Frc consts  --      6.2060                 6.3026                 6.3480
 IR Inten    --     42.8122                29.0621                36.3717

                     70                     71                     72
                      A                      A                      A
 Frequencies --   3150.0773              3158.8608              3233.7024
 Red. masses --      1.0640                 1.0851                 1.1154
 Frc consts  --      6.2209                 6.3795                 6.8722
 IR Inten    --     29.2428                 7.9200                21.9032

 - Thermochemistry -
 -------------------
 Temperature   298.150 Kelvin.  Pressure   1.00000 Atm.
 Atom     1 has atomic number  6 and mass  12.00000

 Molecular mass:   140.12012 amu.
 Principal axes and moments of inertia in atomic units:
                           1         2         3
     Eigenvalues --   674.253612848.790243134.27009
           X            0.99992   0.01246  -0.00196
           Y           -0.01240   0.99956   0.02709
           Z            0.00230  -0.02707   0.99963
 This molecule is an asymmetric top.
 Rotational symmetry number  1.
 Warning -- assumption of classical behavior for rotation
           may cause significant error
 Rotational temperatures (Kelvin)      0.12846     0.03040     0.02763
 Rotational constants (GHZ):           2.67665     0.63351     0.57581
 Zero-point vibrational energy     622113.0 (Joules/Mol)
                                  148.68858 (Kcal/Mol)
 Warning -- explicit consideration of  13 degrees of freedom as
           vibrations may cause significant error
 Vibrational temperatures:     35.77    65.76    89.45   114.44   236.53
          (Kelvin)            295.27   337.72   374.76   503.88   613.70
                              634.95   678.30   845.18   945.69   972.20
                             1120.49  1189.78  1241.54  1274.92  1284.99
                             1342.92  1352.11  1361.86  1386.20  1417.69
                             1442.89  1492.97  1498.09  1564.73  1588.20
                             1610.06  1630.22  1678.86  1733.52  1746.52
                             1776.20  1809.73  1838.81  1897.04  1912.25
                             1920.70  1943.40  1958.67  1980.25  2008.49
                             2020.91  2036.04  2057.01  2125.13  2175.90
                             2178.26  2188.49  2192.49  2199.11  2248.29
                             2494.95  4271.62  4328.65  4359.72  4377.51
                             4387.53  4398.83  4405.79  4418.50  4431.28
                             4438.52  4446.02  4485.94  4502.12  4532.26
                             4544.90  4652.58

 Zero-point correction=                           0.236950 (Hartree/Particle)
 Thermal correction to Energy=                    0.247791
 Thermal correction to Enthalpy=                  0.248735
 Thermal correction to Gibbs Free Energy=         0.198530
 Sum of electronic and zero-point Energies=           -427.586222
 Sum of electronic and thermal Energies=              -427.575382
 Sum of electronic and thermal Enthalpies=            -427.574438
 Sum of electronic and thermal Free Energies=         -427.624642

                     E (Thermal)             CV                S
                      KCal/Mol        Cal/Mol-Kelvin    Cal/Mol-Kelvin
 Total                  155.491             39.639            105.664
 Electronic               0.000              0.000              0.000
 Translational            0.889              2.981             40.724
 Rotational               0.889              2.981             30.177
 Vibrational            153.714             33.678             34.764
 Vibration     1          0.593              1.985              6.202
 Vibration     2          0.595              1.979              4.995
 Vibration     3          0.597              1.972              4.387
 Vibration     4          0.600              1.963              3.902
 Vibration     5          0.623              1.886              2.499
 Vibration     6          0.640              1.832              2.086
 Vibration     7          0.655              1.788              1.842
 Vibration     8          0.669              1.745              1.659
 Vibration     9          0.727              1.575              1.165
 Vibration    10          0.788              1.412              0.870
 Vibration    11          0.801              1.380              0.822
 Vibration    12          0.828              1.313              0.734
 Vibration    13          0.945              1.059              0.472

 Optimization completed.
    -- Stationary point found.

 1\1\GINC-NODE317\Freq\RB3LYP\6-31G(d)\C9H16O1\VSC10255\08-Dec-2020\0\\
 #N Geom=AllCheck Guess=TCheck SCRF=Check GenChk RB3LYP/6-31G(d) Freq\\
 CID_13613765_JID_57_neutraal\\0,1\C,0.9612225471,0.1822348411,0.015190
 035\C,0.1009549594,0.8864347158,0.7510236903\C,-1.2924457348,0.4423133
 495,1.0999272936\C,-1.4889560111,0.1329314029,2.5997410367\C,-1.206892
 8245,1.2741710831,3.5878319651\C,-2.1978056021,2.4371936447,3.55874796
 11\C,-2.0552837894,3.4562468123,2.4179344525\C,-2.5754260892,4.7453725
 825,3.0647966781\C,-2.052245036,4.5997767609,4.4965260356\O,-2.0165671

 Normal termination of Gaussian 16 at Tue Dec  8 10:21:28 2020.

 ----------------------------------------------------------------------
 # B3LYP/6-311++G(d,p) empiricaldispersion=gd3bj scf=xqc pop=npa geom=c
 heck
 ----------------------------------------------------------------------

 ------------------------------------
 CID_13613765_JID_57_Energie_neutraal
 ------------------------------------
 Structure from the checkpoint file:  "JID_57.chk"
 Charge =  0 Multiplicity = 1

 SCF Done:  E(RB3LYP) =  -427.945862621     A.U. after   13 cycles
 Normal termination of Gaussian 16 at Tue Dec  8 10:23:00 2020.

 ----------------------------------------------------------------------
 # B3LYP/6-311++G(d,p) empiricaldispersion=gd3bj scf=xqc pop=npa geom=c
 heck
 ----------------------------------------------------------------------

 ----------------------------------
 CID_13613765_JID_57_Energie_kation
 ----------------------------------
 Structure from the checkpoint file:  "JID_57.chk"
 Charge =  1 Multiplicity = 2

 SCF Done:  E(UB3LYP) =  -427.625727362     A.U. after   24 cycles
 Normal termination of Gaussian 16 at Tue Dec  8 10:26:38 2020.
 Gaussian 16:  ES64L-G16RevA.03 25-Dec-2016

 ---------------------------------
 CID_13613765_JID_57_Energie_anion
 ---------------------------------
 Structure from the checkpoint file:  "JID_57.chk"
 Charge = -1 Multiplicity = 2

                         Standard orientation:
 ---------------------------------------------------------------------
 Center     Atomic      Atomic             Coordinates (Angstroms)
 Number     Number       Type             X           Y           Z
 ---------------------------------------------------------------------
      1          6           0        3.873535   -0.935211   -0.655658
      2          6           0        2.599763   -0.735253   -0.316643
      3          6           0        2.142822    0.118320    0.833645
      4          6           0        1.400521    1.400658    0.399628
      5          6           0        0.134409    1.217327   -0.449880
      6          6           0       -1.065385    0.604058    0.271072
      7          6           0       -1.053379   -0.916252    0.491863
      8          6           0       -2.547670   -1.259491    0.481525
      9          6           0       -3.073715   -0.295767   -0.585845
     10          8           0       -2.235468    0.859630   -0.529601
     11          1           0        4.689443   -0.487540   -0.091182
     12          1           0        4.152647   -1.553035   -1.504944
     13          1           0        1.818234   -1.206242   -0.912783
     14          1           0        1.497325   -0.473560    1.495675
     15          1           0        3.014694    0.409824    1.432464
     16          1           0        1.143064    1.974611    1.300895
     17          1           0        2.105495    2.018962   -0.169686
     18          1           0       -0.186547    2.205027   -0.801211
     19          1           0        0.348652    0.628687   -1.350885
     20          1           0       -1.195389    1.112977    1.241723
     21          1           0       -0.541970   -1.413497   -0.341723
     22          1           0       -0.553267   -1.208371    1.418711
     23          1           0       -2.754348   -2.308619    0.249350
     24          1           0       -2.995295   -1.032560    1.456249
     25          1           0       -3.012393   -0.745405   -1.588687
     26          1           0       -4.112008    0.011372   -0.415404
 ---------------------------------------------------------------------

 SCF Done:  E(UB3LYP) =  -427.927753606     A.U. after   33 cycles
 SCF Done:  E(UB3LYP) =  -427.927753606     a.u. after    1 cycles

 The electronic state is 2-A.
 Alpha  occ. eigenvalues --  -19.00994 -10.11159 -10.10555 -10.07487 -10.06817
 Alpha  occ. eigenvalues --  -10.06735 -10.06360 -10.06268 -10.06221 -10.06137
 Alpha  occ. eigenvalues --   -0.92634  -0.71287  -0.67956  -0.66943  -0.62549
 Alpha  occ. eigenvalues --   -0.57361  -0.50551  -0.49170  -0.46850  -0.44341
 Alpha  occ. eigenvalues --   -0.39766  -0.38155  -0.37474  -0.34744  -0.33757
 Alpha  occ. eigenvalues --   -0.32948  -0.31636  -0.29849  -0.28962  -0.27117
 Alpha  occ. eigenvalues --   -0.26400  -0.24756  -0.23441  -0.23265  -0.22227
 Alpha  occ. eigenvalues --   -0.22158  -0.20998  -0.16269  -0.14468   0.04870
 Alpha virt. eigenvalues --    0.06794   0.07391   0.08503   0.08846   0.08981
 Alpha virt. eigenvalues --    0.09379   0.10224   0.10690   0.11290   0.11535
 Alpha virt. eigenvalues --    0.11973   0.12833   0.13888   0.14351   0.14680

  Beta  occ. eigenvalues --  -19.00996 -10.11145 -10.10533 -10.07476 -10.06801
  Beta  occ. eigenvalues --  -10.06714 -10.06330 -10.06245 -10.06185 -10.06130
  Beta  occ. eigenvalues --   -0.92626  -0.71255  -0.67918  -0.66905  -0.62506
  Beta  occ. eigenvalues --   -0.57313  -0.50497  -0.49085  -0.46792  -0.44279
  Beta  occ. eigenvalues --   -0.39721  -0.38114  -0.37432  -0.34700  -0.33713
  Beta  occ. eigenvalues --   -0.32909  -0.31604  -0.29813  -0.28924  -0.27067
  Beta  occ. eigenvalues --   -0.26363  -0.24706  -0.23414  -0.23229  -0.22193
  Beta  occ. eigenvalues --   -0.22113  -0.20976  -0.16205  -0.14451
  Beta virt. eigenvalues --    0.07163   0.07835   0.08034   0.08896   0.09298
  Beta virt. eigenvalues --    0.09684   0.09715   0.10708   0.11203   0.11735
  Beta virt. eigenvalues --    0.11922   0.12455   0.13117   0.14208   0.14637

 Mulliken charges and spin densities:
               1          2
     1  C    0.657100  -1.224922
     2  C   -0.842272   0.943037
     3  C    0.666981  -0.742033
     4  C    0.625900  -0.986842
     5  C    0.473566  -0.333224
     6  C   -1.306457   0.724517
     7  C   -0.143843  -0.029262
     8  C    1.068987  -1.520474
     9  C    0.889373  -1.143781
    10  O   -0.152044   0.035900
    11  H   -0.098407   0.205889
    12  H   -0.144530   0.256807
    13  H   -0.503193   0.623086
    14  H   -0.027281   0.135706
    15  H   -0.819300   1.018800
    16  H   -0.036201   0.178613
    17  H    0.079647   0.057712
    18  H    0.057527   0.121237
    19  H    0.099794   0.053295
    20  H   -0.272729   0.450889
    21  H    0.192289  -0.040877
    22  H   -0.226987   0.380627
    23  H   -0.651727   0.808359
    24  H   -0.268000   0.426928
    25  H   -0.177217   0.307332
    26  H   -0.140976   0.292680
 Sum of Mulliken charges =  -1.00000   1.00000

 Dipole moment (field-independent basis, Debye):
    X=              0.8332    Y=              2.7846    Z=             -2.3630  Tot=              3.7459
 Quadrupole moment (field-independent basis, Debye-Ang):
   XX=           -135.0368   YY=           -102.3412   ZZ=            -99.4323
   XY=             -3.8607   XZ=             -2.2741   YZ=             -1.9136

 Summary of Natural Population Analysis:

                                       Natural Population
                Natural  -----------------------------------------------
    Atom  No    Charge         Core      Valence    Rydberg      Total
 -----------------------------------------------------------------------
      C    1   -0.19225      0.99956     2.18616    0.00653     3.19225
      C    2   -0.08043      0.99956     2.06937    0.01150     3.08043
      C    3   -0.21063      0.99960     2.20052    0.01051     3.21063
      C    4   -0.18487      0.99962     2.17592    0.00933     3.18487
      C    5   -0.19635      0.99959     2.18814    0.00862     3.19635
      C    6    0.06960      0.99955     1.91617    0.01468     2.93040
      C    7   -0.20379      0.99962     2.19486    0.00932     3.20379
      C    8   -0.20251      0.99964     2.19484    0.00803     3.20251
      C    9   -0.00706      0.99960     1.99465    0.01281     3.00706
      O   10   -0.31027      0.99989     3.30164    0.00874     4.31027
      H   11    0.08926      0.00000     0.40937    0.00137     0.41074
      H   12    0.09207      0.00000     0.40683    0.00110     0.40793
      H   13    0.09173      0.00000     0.40665    0.00162     0.40827
      H   14    0.10349      0.00000     0.39419    0.00232     0.39651
      H   15    0.10002      0.00000     0.39831    0.00168     0.39998
      H   16    0.09774      0.00000     0.40093    0.00133     0.40226
      H   17    0.09600      0.00000     0.40295    0.00105     0.40400
      H   18    0.10302      0.00000     0.39563    0.00136     0.39698
      H   19    0.09572      0.00000     0.40256    0.00172     0.40428
      H   20    0.07957      0.00000     0.41850    0.00193     0.42043
      H   21    0.09535      0.00000     0.40266    0.00199     0.40465
      H   22    0.10735      0.00000     0.39086    0.00179     0.39265
      H   23    0.10543      0.00000     0.39225    0.00232     0.39457
      H   24    0.09833      0.00000     0.39966    0.00201     0.40167
      H   25    0.07783      0.00000     0.42055    0.00162     0.42217
      H   26    0.08565      0.00000     0.41287    0.00148     0.41435
 =======================================================================
   * Total *    0.00000      9.99622    28.87704    0.12674    39.00000

 Normal termination of Gaussian 16 at Tue Dec  8 10:31:39 2020.
