 Gaussian 16, Revision A.03,

 -----------------------------------------------------------
 # opt freq B3LYP/6-31G(d) empiricaldispersion=gd3bj scf=xqc
 -----------------------------------------------------------

 ------------------------------
 CID_82381925_JID_9012_neutraal
 ------------------------------
 Symbolic Z-matrix:
 Charge =  0 Multiplicity = 1

 SCF Done:  E(RB3LYP) =  -820.148072233     A.U. after   16 cycles
 SCF Done:  E(RB3LYP) =  -820.159939989     A.U. after   13 cycles
 SCF Done:  E(RB3LYP) =  -820.162315487     A.U. after   13 cycles
 SCF Done:  E(RB3LYP) =  -820.162164699     A.U. after   13 cycles
 SCF Done:  E(RB3LYP) =  -820.163044731     A.U. after   12 cycles
 SCF Done:  E(RB3LYP) =  -820.163364125     A.U. after   12 cycles
 SCF Done:  E(RB3LYP) =  -820.163533556     A.U. after   12 cycles
 SCF Done:  E(RB3LYP) =  -820.163569507     A.U. after   11 cycles
 SCF Done:  E(RB3LYP) =  -820.163584096     A.U. after   11 cycles
 SCF Done:  E(RB3LYP) =  -820.163596886     A.U. after   11 cycles
 SCF Done:  E(RB3LYP) =  -820.163624492     A.U. after    9 cycles
 SCF Done:  E(RB3LYP) =  -820.163630781     A.U. after   11 cycles
 SCF Done:  E(RB3LYP) =  -820.163632057     A.U. after    9 cycles
 SCF Done:  E(RB3LYP) =  -820.163632195     A.U. after    8 cycles
 SCF Done:  E(RB3LYP) =  -820.163632248     A.U. after    7 cycles
 Optimization completed.
    -- Stationary point found.
 Normal termination of Gaussian 16 at Sun Dec 13 16:14:23 2020.

 --------------------------------------------------------------------
 #N Geom=AllCheck Guess=TCheck SCRF=Check GenChk RB3LYP/6-31G(d) Freq
 --------------------------------------------------------------------

 Structure from the checkpoint file:  "JID_9012.chk"
 ------------------------------
 CID_82381925_JID_9012_neutraal
 ------------------------------
 Charge =  0 Multiplicity = 1

 SCF Done:  E(RB3LYP) =  -820.163632248     A.U. after    1 cycles

  Exact polarizability: 296.834 -14.658 203.455  -3.714   2.315  78.934
 Approx polarizability: 430.294 -43.147 356.287  -6.081   4.195 125.562

                      1                      2                      3
                      A                      A                      A
 Frequencies --     27.9006                51.0084                70.7385
 Red. masses --      4.4238                 3.6745                 1.2340
 Frc consts  --      0.0020                 0.0056                 0.0036
 IR Inten    --      0.0984                 0.7944                 0.2247

                      4                      5                      6
                      A                      A                      A
 Frequencies --     76.8467               100.6555               111.5030
 Red. masses --      3.8726                 2.0010                 2.7453
 Frc consts  --      0.0135                 0.0119                 0.0201
 IR Inten    --      4.2592                 1.3258                 3.5096

                      7                      8                      9
                      A                      A                      A
 Frequencies --    127.2042               169.2839               187.5735
 Red. masses --      1.7268                 4.1700                 4.5621
 Frc consts  --      0.0165                 0.0704                 0.0946
 IR Inten    --      0.6148                 5.3308                 5.5728

                     10                     11                     12
                      A                      A                      A
 Frequencies --    200.1433               239.6919               240.3902
 Red. masses --      3.5335                 1.2781                 2.6665
 Frc consts  --      0.0834                 0.0433                 0.0908
 IR Inten    --      2.4130                 1.0144                 1.9398

                     13                     14                     15
                      A                      A                      A
 Frequencies --    269.7054               275.1449               281.8529
 Red. masses --      3.7239                 3.1310                 5.1072
 Frc consts  --      0.1596                 0.1397                 0.2390
 IR Inten    --      2.0893                 0.3065                 2.9933

                     16                     17                     18
                      A                      A                      A
 Frequencies --    298.0540               359.9117               363.9472
 Red. masses --      3.6267                 3.3139                 3.0222
 Frc consts  --      0.1898                 0.2529                 0.2359
 IR Inten    --      0.7132                 1.5828                 1.1653

                     19                     20                     21
                      A                      A                      A
 Frequencies --    392.5123               426.8806               496.8265
 Red. masses --      4.6735                 5.0505                 4.8850
 Frc consts  --      0.4242                 0.5423                 0.7104
 IR Inten    --      2.6067                 3.4525                 6.7404

                     22                     23                     24
                      A                      A                      A
 Frequencies --    508.5405               524.3358               579.9069
 Red. masses --      4.3390                 4.0096                 3.8422
 Frc consts  --      0.6611                 0.6495                 0.7613
 IR Inten    --      1.2683                 0.8006                 0.3588

                     25                     26                     27
                      A                      A                      A
 Frequencies --    590.2944               602.9123               616.4708
 Red. masses --      5.1569                 4.3253                 4.5355
 Frc consts  --      1.0587                 0.9263                 1.0156
 IR Inten    --     11.2758                 1.9239                 1.3106

                     28                     29                     30
                      A                      A                      A
 Frequencies --    646.7311               687.1137               725.0484
 Red. masses --      5.0668                 4.7523                 5.0631
 Frc consts  --      1.2486                 1.3219                 1.5682
 IR Inten    --      5.3012                 2.6693                 8.0796

                     31                     32                     33
                      A                      A                      A
 Frequencies --    741.4876               758.7924               764.1137
 Red. masses --      4.4468                 2.0718                 4.8194
 Frc consts  --      1.4405                 0.7028                 1.6579
 IR Inten    --     21.2778                16.4516                31.7138

                     34                     35                     36
                      A                      A                      A
 Frequencies --    788.2872               806.9366               816.1466
 Red. masses --      1.9465                 3.8937                 1.5856
 Frc consts  --      0.7127                 1.4938                 0.6223
 IR Inten    --      8.1678                38.5822                14.9749

                     37                     38                     39
                      A                      A                      A
 Frequencies --    852.7524               879.9578               893.3952
 Red. masses --      1.5047                 4.3088                 1.3794
 Frc consts  --      0.6447                 1.9658                 0.6487
 IR Inten    --     33.4550                 1.7036                 1.8523

                     40                     41                     42
                      A                      A                      A
 Frequencies --    952.8140               996.9846              1017.6688
 Red. masses --      1.2604                 1.8370                 1.7544
 Frc consts  --      0.6742                 1.0758                 1.0705
 IR Inten    --      0.9205                 0.7311                 0.3236

                     43                     44                     45
                      A                      A                      A
 Frequencies --   1029.0283              1058.2679              1072.8988
 Red. masses --      4.7420                 3.2242                 1.5337
 Frc consts  --      2.9585                 2.1275                 1.0402
 IR Inten    --      7.3629                 6.2456                 2.8583

                     46                     47                     48
                      A                      A                      A
 Frequencies --   1078.7085              1093.7088              1114.8773
 Red. masses --      2.9260                 1.5145                 1.8137
 Frc consts  --      2.0060                 1.0674                 1.3282
 IR Inten    --      8.3428                16.5054                 2.9913

                     49                     50                     51
                      A                      A                      A
 Frequencies --   1144.1156              1156.4508              1163.0540
 Red. masses --      2.0701                 1.3066                 1.3100
 Frc consts  --      1.5966                 1.0296                 1.0440
 IR Inten    --     10.1226                 0.6101                 0.0236

                     52                     53                     54
                      A                      A                      A
 Frequencies --   1183.0224              1196.7396              1214.3301
 Red. masses --      1.6901                 1.3491                 1.4396
 Frc consts  --      1.3936                 1.1384                 1.2507
 IR Inten    --     37.0193                 2.3071                27.5595

                     55                     56                     57
                      A                      A                      A
 Frequencies --   1257.3029              1291.7040              1324.4078
 Red. masses --      4.1639                 2.1841                 3.8527
 Frc consts  --      3.8782                 2.1471                 3.9816
 IR Inten    --      8.4792                10.8275                12.7715

                     58                     59                     60
                      A                      A                      A
 Frequencies --   1350.5368              1364.9867              1373.9071
 Red. masses --      3.2005                 4.9207                 5.8676
 Frc consts  --      3.4394                 5.4018                 6.5257
 IR Inten    --      3.8132                60.4680                77.5187

                     61                     62                     63
                      A                      A                      A
 Frequencies --   1394.0129              1419.4748              1437.8363
 Red. masses --      5.4329                 4.2997                 1.8335
 Frc consts  --      6.2204                 5.1044                 2.2333
 IR Inten    --     27.5403                 6.3215                21.0423

                     64                     65                     66
                      A                      A                      A
 Frequencies --   1448.1555              1457.3973              1472.6524
 Red. masses --      1.4338                 1.7331                 1.4364
 Frc consts  --      1.7716                 2.1689                 1.8353
 IR Inten    --     10.9977                 3.7581                30.0650

                     67                     68                     69
                      A                      A                      A
 Frequencies --   1484.5145              1499.6599              1501.9324
 Red. masses --      2.3906                 1.8614                 1.0422
 Frc consts  --      3.1041                 2.4665                 1.3852
 IR Inten    --     76.0322                14.8666                 8.3975

                     70                     71                     72
                      A                      A                      A
 Frequencies --   1510.2796              1514.5400              1519.7520
 Red. masses --      1.5668                 1.0813                 1.1217
 Frc consts  --      2.1056                 1.4614                 1.5264
 IR Inten    --     22.5235                 7.3923                19.6394

                     73                     74                     75
                      A                      A                      A
 Frequencies --   1532.4242              1541.7492              1548.9170
 Red. masses --      1.0794                 1.4770                 1.4102
 Frc consts  --      1.4934                 2.0685                 1.9934
 IR Inten    --     19.1515                14.5539                 5.7715

                     76                     77                     78
                      A                      A                      A
 Frequencies --   1553.6134              1576.3665              1616.2270
 Red. masses --      1.8625                 3.8840                 7.2021
 Frc consts  --      2.6487                 5.6865                11.0844
 IR Inten    --     15.2953                93.8802                97.6863

                     79                     80                     81
                      A                      A                      A
 Frequencies --   1636.3406              1660.2439              1787.3836
 Red. masses --      6.7478                 6.0537                 9.5706
 Frc consts  --     10.6454                 9.8313                18.0146
 IR Inten    --      4.3214                 1.1464               215.0978

                     82                     83                     84
                      A                      A                      A
 Frequencies --   2887.7251              3041.9464              3071.8789
 Red. masses --      1.0818                 1.0417                 1.0499
 Frc consts  --      5.3149                 5.6796                 5.8370
 IR Inten    --    191.1779                29.3448                39.7117

                     85                     86                     87
                      A                      A                      A
 Frequencies --   3076.5809              3100.0362              3126.5866
 Red. masses --      1.0320                 1.0941                 1.1017
 Frc consts  --      5.7555                 6.1949                 6.3455
 IR Inten    --     55.7561                22.6749                20.8344

                     88                     89                     90
                      A                      A                      A
 Frequencies --   3146.6926              3166.3073              3172.7107
 Red. masses --      1.1064                 1.0861                 1.1052
 Frc consts  --      6.4544                 6.4155                 6.5549
 IR Inten    --     10.5329                19.4488                 6.9967

                     91                     92                     93
                      A                      A                      A
 Frequencies --   3174.5256              3190.5306              3203.4074
 Red. masses --      1.0869                 1.0888                 1.1041
 Frc consts  --      6.4534                 6.5303                 6.6755
 IR Inten    --     12.2787                17.6805                 6.9950

                     94                     95                     96
                      A                      A                      A
 Frequencies --   3206.9794              3271.2125              3305.8174
 Red. masses --      1.0965                 1.0977                 1.0960
 Frc consts  --      6.6442                 6.9205                 7.0572
 IR Inten    --     40.4543                 0.2203                13.0433

 - Thermochemistry -
 -------------------
 Temperature   298.150 Kelvin.  Pressure   1.00000 Atm.
 Atom     1 has atomic number  6 and mass  12.00000

 Molecular mass:   253.12151 amu.
 Principal axes and moments of inertia in atomic units:
                           1         2         3
     Eigenvalues --  2519.409217419.654389765.53729
           X            0.99999  -0.00274   0.00177
           Y            0.00273   0.99997   0.00732
           Z           -0.00179  -0.00731   0.99997
 This molecule is an asymmetric top.
 Rotational symmetry number  1.
 Warning -- assumption of classical behavior for rotation
           may cause significant error
 Rotational temperatures (Kelvin)      0.03438     0.01167     0.00887
 Rotational constants (GHZ):           0.71634     0.24324     0.18481
 Zero-point vibrational energy     725193.7 (Joules/Mol)
                                  173.32546 (Kcal/Mol)
 Warning -- explicit consideration of  27 degrees of freedom as
           vibrations may cause significant error
 Vibrational temperatures:     40.14    73.39   101.78   110.57   144.82
          (Kelvin)            160.43   183.02   243.56   269.88   287.96
                              344.86   345.87   388.05   395.87   405.52
                              428.83   517.83   523.64   564.74   614.19
                              714.82   731.68   754.40   834.36   849.30
                              867.46   886.96   930.50   988.60  1043.18
                             1066.84  1091.73  1099.39  1134.17  1161.00
                             1174.25  1226.92  1266.06  1285.40  1370.89
                             1434.44  1464.20  1480.54  1522.61  1543.66
                             1552.02  1573.60  1604.06  1646.13  1663.87
                             1673.38  1702.11  1721.84  1747.15  1808.98
                             1858.47  1905.53  1943.12  1963.91  1976.75
                             2005.67  2042.31  2068.73  2083.57  2096.87
                             2118.82  2135.89  2157.68  2160.95  2172.96
                             2179.09  2186.58  2204.82  2218.23  2228.55
                             2235.30  2268.04  2325.39  2354.33  2388.72
                             2571.65  4154.79  4376.68  4419.75  4426.51
                             4460.26  4498.46  4527.39  4555.61  4564.82
                             4567.43  4590.46  4608.99  4614.13  4706.55
                             4756.33

 Zero-point correction=                           0.276212 (Hartree/Particle)
 Thermal correction to Energy=                    0.293182
 Thermal correction to Enthalpy=                  0.294126
 Thermal correction to Gibbs Free Energy=         0.230888
 Sum of electronic and zero-point Energies=           -819.887421
 Sum of electronic and thermal Energies=              -819.870450
 Sum of electronic and thermal Enthalpies=            -819.869506
 Sum of electronic and thermal Free Energies=         -819.932744

                     E (Thermal)             CV                S
                      KCal/Mol        Cal/Mol-Kelvin    Cal/Mol-Kelvin
 Total                  183.974             64.385            133.095
 Electronic               0.000              0.000              0.000
 Translational            0.889              2.981             42.486
 Rotational               0.889              2.981             33.567
 Vibrational            182.197             58.423             57.041
 Vibration     1          0.593              1.984              5.973
 Vibration     2          0.595              1.977              4.778
 Vibration     3          0.598              1.968              4.133
 Vibration     4          0.599              1.965              3.970
 Vibration     5          0.604              1.949              3.442
 Vibration     6          0.607              1.940              3.243
 Vibration     7          0.611              1.926              2.988
 Vibration     8          0.625              1.880              2.443
 Vibration     9          0.632              1.857              2.252
 Vibration    10          0.638              1.840              2.132
 Vibration    11          0.657              1.780              1.805
 Vibration    12          0.657              1.779              1.800
 Vibration    13          0.674              1.729              1.598
 Vibration    14          0.677              1.719              1.564
 Vibration    15          0.681              1.707              1.522
 Vibration    16          0.691              1.677              1.428
 Vibration    17          0.734              1.555              1.122
 Vibration    18          0.737              1.546              1.105
 Vibration    19          0.760              1.486              0.991
 Vibration    20          0.789              1.412              0.869
 Vibration    21          0.852              1.257              0.666
 Vibration    22          0.864              1.231              0.637
 Vibration    23          0.879              1.196              0.600
 Vibration    24          0.937              1.075              0.486
 Vibration    25          0.948              1.052              0.467
 Vibration    26          0.961              1.026              0.445
 Vibration    27          0.976              0.997              0.422

                           ! Non-Optimized Parameters !
 Normal termination of Gaussian 16 at Sun Dec 13 16:30:39 2020.

 ----------------------------------------------------------------------
 # B3LYP/6-311++G(d,p) empiricaldispersion=gd3bj scf=xqc pop=npa geom=c
 heck
 ----------------------------------------------------------------------

 --------------------------------------
 CID_82381925_JID_9012_Energie_neutraal
 --------------------------------------
 Structure from the checkpoint file:  "JID_9012.chk"
 Charge =  0 Multiplicity = 1

 SCF Done:  E(RB3LYP) =  -820.373623954     A.U. after   16 cycles
 Normal termination of Gaussian 16 at Sun Dec 13 16:38:10 2020.

 ----------------------------------------------------------------------
 # B3LYP/6-311++G(d,p) empiricaldispersion=gd3bj scf=xqc pop=npa geom=c
 heck
 ----------------------------------------------------------------------

 ------------------------------------
 CID_82381925_JID_9012_Energie_kation
 ------------------------------------
 Structure from the checkpoint file:  "JID_9012.chk"
 Charge =  1 Multiplicity = 2

 SCF Done:  E(UB3LYP) =  -820.120093762     A.U. after   25 cycles
 Normal termination of Gaussian 16 at Sun Dec 13 16:53:45 2020.
 Gaussian 16:  ES64L-G16RevA.03 25-Dec-2016

 ----------------------------------------------------------------------
 # B3LYP/6-311++G(d,p) empiricaldispersion=gd3bj scf=xqc pop=npa geom=c
 heck
 ----------------------------------------------------------------------

 -----------------------------------
 CID_82381925_JID_9012_Energie_anion
 -----------------------------------
 Structure from the checkpoint file:  "JID_9012.chk"
 Charge = -1 Multiplicity = 2

                         Standard orientation:
 ---------------------------------------------------------------------
 Center     Atomic      Atomic             Coordinates (Angstroms)
 Number     Number       Type             X           Y           Z
 ---------------------------------------------------------------------
      1          6           0       -3.523495   -2.391570   -0.188073
      2          6           0       -3.282933   -0.905066   -0.048788
      3          6           0       -2.010544   -0.287906   -0.030242
      4          6           0       -1.871024    1.117399    0.176978
      5          6           0       -3.007214    1.930122    0.335284
      6          6           0       -4.254745    1.336264    0.292614
      7          6           0       -4.376417   -0.055810    0.111608
      8          6           0       -0.479358    1.409729    0.189122
      9          6           0        0.197701    0.223314   -0.002251
     10          7           0       -0.732557   -0.819138   -0.152469
     11          6           0       -0.420745   -2.168558   -0.604268
     12          6           0        1.633990    0.009325    0.031308
     13          7           0        2.143492   -1.213035    0.239704
     14          7           0        3.493428   -1.064324    0.226946
     15          6           0        3.865291    0.208690    0.021925
     16          6           0        2.705572    0.969526   -0.110414
     17          6           0        2.775840    2.403496   -0.350663
     18          8           0        1.858554    3.205901   -0.401831
     19          6           0        4.329127   -2.229263    0.437503
     20          1           0       -2.867639   -2.979983    0.462006
     21          1           0       -3.376438   -2.750909   -1.214469
     22          1           0       -4.556212   -2.625721    0.087269
     23          1           0       -2.894725    2.999157    0.491751
     24          1           0       -5.152024    1.936207    0.414494
     25          1           0       -5.369626   -0.498407    0.112410
     26          1           0       -0.009865    2.371442    0.318422
     27          1           0        0.502092   -2.154224   -1.180161
     28          1           0       -0.280835   -2.858909    0.234110
     29          1           0       -1.226462   -2.527445   -1.241817
     30          1           0        4.904088    0.505892   -0.015701
     31          1           0        3.822082    2.757984   -0.493674
     32          1           0        4.109080   -2.671112    1.412883
     33          1           0        4.135066   -2.970219   -0.342639
     34          1           0        5.376176   -1.923639    0.400634
 ---------------------------------------------------------------------

 SCF Done:  E(UB3LYP) =  -820.377812888     A.U. after   33 cycles
 SCF Done:  E(UB3LYP) =  -820.377812888     a.u. after    1 cycles

 The electronic state is 2-A.
 Alpha  occ. eigenvalues --  -18.92616 -14.27466 -14.22146 -14.19081 -10.12290
 Alpha  occ. eigenvalues --  -10.08301 -10.07997 -10.07085 -10.06912 -10.06391
 Alpha  occ. eigenvalues --  -10.06312 -10.06173 -10.05334 -10.03751 -10.03546
 Alpha  occ. eigenvalues --  -10.03240 -10.03201 -10.03090 -10.00194  -0.92842
 Alpha  occ. eigenvalues --   -0.86364  -0.84738  -0.73291  -0.71623  -0.67404
 Alpha  occ. eigenvalues --   -0.66823  -0.63759  -0.61754  -0.58109  -0.57884
 Alpha  occ. eigenvalues --   -0.54520  -0.51934  -0.48049  -0.46698  -0.44465
 Alpha  occ. eigenvalues --   -0.43272  -0.41279  -0.38710  -0.37775  -0.37624
 Alpha  occ. eigenvalues --   -0.35567  -0.34259  -0.34150  -0.32666  -0.32281
 Alpha  occ. eigenvalues --   -0.31046  -0.30985  -0.30517  -0.29274  -0.29069
 Alpha  occ. eigenvalues --   -0.28257  -0.26983  -0.26089  -0.25860  -0.25184
 Alpha  occ. eigenvalues --   -0.24501  -0.23024  -0.22384  -0.20728  -0.20185
 Alpha  occ. eigenvalues --   -0.16820  -0.15516  -0.13850  -0.12381  -0.08900
 Alpha  occ. eigenvalues --   -0.08694  -0.06569   0.05006
 Alpha virt. eigenvalues --    0.06371   0.07658   0.08759   0.09115   0.09220
 Alpha virt. eigenvalues --    0.10043   0.10652   0.10993   0.11168   0.11860
 Alpha virt. eigenvalues --    0.12630   0.13052   0.13251   0.13538   0.13944

  Beta  occ. eigenvalues --  -18.92063 -14.27563 -14.22080 -14.18919 -10.12285
  Beta  occ. eigenvalues --  -10.08304 -10.07863 -10.07092 -10.06592 -10.06396
  Beta  occ. eigenvalues --  -10.06281 -10.05935 -10.05269 -10.03791 -10.03448
  Beta  occ. eigenvalues --  -10.03180 -10.03136 -10.03083 -10.00053  -0.92761
  Beta  occ. eigenvalues --   -0.85360  -0.84631  -0.73134  -0.71495  -0.67256
  Beta  occ. eigenvalues --   -0.66548  -0.63654  -0.61516  -0.57986  -0.57716
  Beta  occ. eigenvalues --   -0.54392  -0.51359  -0.47747  -0.46581  -0.44254
  Beta  occ. eigenvalues --   -0.43113  -0.41139  -0.38419  -0.37655  -0.37606
  Beta  occ. eigenvalues --   -0.35442  -0.34164  -0.34023  -0.32587  -0.32179
  Beta  occ. eigenvalues --   -0.30907  -0.30868  -0.30408  -0.28957  -0.28859
  Beta  occ. eigenvalues --   -0.28035  -0.26918  -0.25917  -0.25651  -0.25034
  Beta  occ. eigenvalues --   -0.24117  -0.22314  -0.20769  -0.20468  -0.19693
  Beta  occ. eigenvalues --   -0.16584  -0.14762  -0.13125  -0.11111  -0.08425
  Beta  occ. eigenvalues --   -0.08331  -0.05785
  Beta virt. eigenvalues --    0.06329   0.07614   0.08725   0.09138   0.09481
  Beta virt. eigenvalues --    0.09972   0.10228   0.10786   0.11149   0.11794
  Beta virt. eigenvalues --    0.12338   0.12683   0.13171   0.13289   0.13749

 Mulliken charges and spin densities:
               1          2
     1  C   -0.791575   0.008088
     2  C    0.219943   0.010999
     3  C   -0.135638   0.028727
     4  C    0.446780  -0.040468
     5  C   -0.505622   0.106652
     6  C   -0.455602  -0.035350
     7  C   -0.196389   0.088995
     8  C   -0.378157   0.087358
     9  C    0.443009   0.014479
    10  N    0.184736   0.025053
    11  C   -0.416681  -0.000725
    12  C   -0.235276   0.164666
    13  N   -0.350488   0.058578
    14  N    0.317326  -0.032379
    15  C   -0.243210   0.097438
    16  C    0.690424   0.027716
    17  C   -0.910855   0.247100
    18  O   -0.375567   0.177699
    19  C   -0.314868   0.007210
    20  H    0.147293   0.001232
    21  H    0.138682   0.003943
    22  H    0.129450   0.002235
    23  H    0.119644  -0.007354
    24  H    0.110416   0.002223
    25  H    0.080457  -0.007400
    26  H    0.207709  -0.007854
    27  H    0.217549  -0.001587
    28  H    0.171973   0.000823
    29  H    0.112074   0.003700
    30  H    0.145015  -0.009029
    31  H   -0.004434  -0.021052
    32  H    0.169005  -0.006328
    33  H    0.148914   0.001841
    34  H    0.113965   0.002771
 Sum of Mulliken charges =  -1.00000   1.00000

 Dipole moment (field-independent basis, Debye):
    X=              1.9620    Y=             -8.0132    Z=              0.1624  Tot=              8.2515
 Quadrupole moment (field-independent basis, Debye-Ang):
   XX=           -141.1149   YY=           -140.7593   ZZ=           -122.7642
   XY=            -11.9908   XZ=              2.6497   YZ=              4.2094

 Summary of Natural Population Analysis:

                                       Natural Population
                Natural  -----------------------------------------------
    Atom  No    Charge         Core      Valence    Rydberg      Total
 -----------------------------------------------------------------------
      C    1   -0.28563      0.99960     2.28160    0.00444     3.28563
      C    2   -0.03738      0.99950     2.03000    0.00788     3.03738
      C    3    0.08926      0.99941     1.90094    0.01039     2.91074
      C    4   -0.05454      0.99954     2.04575    0.00925     3.05454
      C    5   -0.06456      0.99942     2.05614    0.00899     3.06456
      C    6   -0.13611      0.99960     2.12626    0.01025     3.13611
      C    7   -0.09704      0.99954     2.08802    0.00948     3.09704
      C    8   -0.09793      0.99943     2.08914    0.00935     3.09793
      C    9    0.08380      0.99944     1.90547    0.01129     2.91620
      N   10   -0.19946      0.99957     2.69108    0.00881     3.69946
      C   11   -0.17014      0.99962     2.16395    0.00658     3.17014
      C   12    0.11118      0.99955     1.87604    0.01324     2.88882
      N   13   -0.15584      0.99970     2.64426    0.01188     3.65584
      N   14   -0.12963      0.99967     2.61855    0.01142     3.62963
      C   15    0.04856      0.99953     1.94511    0.00680     2.95144
      C   16   -0.10761      0.99950     2.09462    0.01349     3.10761
      C   17    0.23638      0.99968     1.74290    0.02104     2.76362
      O   18   -0.24453      0.99988     3.23555    0.00911     4.24453
      C   19   -0.16770      0.99966     2.16095    0.00709     3.16770
      H   20    0.09890      0.00000     0.39989    0.00121     0.40110
      H   21    0.09497      0.00000     0.40372    0.00131     0.40503
      H   22    0.09654      0.00000     0.40224    0.00122     0.40346
      H   23    0.09371      0.00000     0.40439    0.00190     0.40629
      H   24    0.09076      0.00000     0.40809    0.00115     0.40924
      H   25    0.08683      0.00000     0.41167    0.00150     0.41317
      H   26    0.12926      0.00000     0.36992    0.00081     0.37074
      H   27    0.10849      0.00000     0.39038    0.00114     0.39151
      H   28    0.09061      0.00000     0.40814    0.00124     0.40939
      H   29    0.09021      0.00000     0.40867    0.00112     0.40979
      H   30    0.09041      0.00000     0.40792    0.00167     0.40959
      H   31    0.02327      0.00000     0.47230    0.00443     0.47673
      H   32    0.09633      0.00000     0.40248    0.00119     0.40367
      H   33    0.09500      0.00000     0.40378    0.00122     0.40500
      H   34    0.09388      0.00000     0.40513    0.00099     0.40612
 =======================================================================
   * Total *    0.00024     18.99184    47.79506    0.21286    66.99976

 Normal termination of Gaussian 16 at Sun Dec 13 17:14:53 2020.
