 Gaussian 16, Revision A.03,

 -----------------------------------------------------------
 # opt freq B3LYP/6-31G(d) empiricaldispersion=gd3bj scf=xqc
 -----------------------------------------------------------

 ------------------------------
 CID_12670027_JID_1748_neutraal
 ------------------------------
 Symbolic Z-matrix:
 Charge =  0 Multiplicity = 1

 SCF Done:  E(RB3LYP) =  -425.131935923     A.U. after   15 cycles
 SCF Done:  E(RB3LYP) =  -425.153186310     A.U. after   15 cycles
 SCF Done:  E(RB3LYP) =  -425.155092990     A.U. after   14 cycles
 SCF Done:  E(RB3LYP) =  -425.157009860     A.U. after   12 cycles
 SCF Done:  E(RB3LYP) =  -425.157123502     A.U. after   11 cycles
 SCF Done:  E(RB3LYP) =  -425.157139246     A.U. after   11 cycles
 SCF Done:  E(RB3LYP) =  -425.157151798     A.U. after   10 cycles
 SCF Done:  E(RB3LYP) =  -425.157156502     A.U. after   10 cycles
 SCF Done:  E(RB3LYP) =  -425.157157664     A.U. after    9 cycles
 SCF Done:  E(RB3LYP) =  -425.157157991     A.U. after    7 cycles
 SCF Done:  E(RB3LYP) =  -425.157158041     A.U. after    7 cycles
 Optimization completed.
    -- Stationary point found.
 Normal termination of Gaussian 16 at Tue Dec  8 20:57:21 2020.

 --------------------------------------------------------------------
 #N Geom=AllCheck Guess=TCheck SCRF=Check GenChk RB3LYP/6-31G(d) Freq
 --------------------------------------------------------------------

 Structure from the checkpoint file:  "JID_1748.chk"
 ------------------------------
 CID_12670027_JID_1748_neutraal
 ------------------------------
 Charge =  0 Multiplicity = 1

 SCF Done:  E(RB3LYP) =  -425.157158041     A.U. after    1 cycles

  Exact polarizability: 224.183  18.596 100.797 -10.005  -4.352  56.078
 Approx polarizability: 316.402  38.546 173.240 -22.440 -10.446  82.917

                      1                      2                      3
                      A                      A                      A
 Frequencies --     41.0545                54.1267               131.5379
 Red. masses --      3.8110                 4.4935                 1.9646
 Frc consts  --      0.0038                 0.0078                 0.0200
 IR Inten    --      0.0337                 0.0792                 0.2898

                      4                      5                      6
                      A                      A                      A
 Frequencies --    153.9054               162.4366               295.9023
 Red. masses --      3.8111                 3.5772                 3.1953
 Frc consts  --      0.0532                 0.0556                 0.1648
 IR Inten    --      0.6854                 0.7949                 0.7779

                      7                      8                      9
                      A                      A                      A
 Frequencies --    312.1654               380.7851               415.4010
 Red. masses --      3.9616                 3.5259                 3.0183
 Frc consts  --      0.2275                 0.3012                 0.3069
 IR Inten    --      0.0956                 3.5890                 0.0349

                     10                     11                     12
                      A                      A                      A
 Frequencies --    446.3022               507.5915               572.7041
 Red. masses --      4.3473                 2.4731                 4.6585
 Frc consts  --      0.5102                 0.3754                 0.9002
 IR Inten    --      5.0619                 8.6149                 3.1854

                     13                     14                     15
                      A                      A                      A
 Frequencies --    636.1017               653.1496               665.0995
 Red. masses --      6.3994                 2.1710                 2.7318
 Frc consts  --      1.5256                 0.5457                 0.7120
 IR Inten    --      0.3396                18.8584                 3.3484

                     16                     17                     18
                      A                      A                      A
 Frequencies --    709.4998               766.4007               832.8046
 Red. masses --      1.8310                 1.6500                 2.6039
 Frc consts  --      0.5431                 0.5710                 1.0641
 IR Inten    --     22.2192                20.1592                 8.2489

                     19                     20                     21
                      A                      A                      A
 Frequencies --    833.8480               859.4140               915.8675
 Red. masses --      2.5057                 1.2658                 1.2474
 Frc consts  --      1.0265                 0.5508                 0.6165
 IR Inten    --      7.7575                 0.3889                 5.3019

                     22                     23                     24
                      A                      A                      A
 Frequencies --    924.9661               931.1265               934.3534
 Red. masses --      1.4150                 1.7519                 1.4140
 Frc consts  --      0.7133                 0.8949                 0.7273
 IR Inten    --     33.1109                 1.3718                18.4191

                     25                     26                     27
                      A                      A                      A
 Frequencies --    967.8946               994.9968              1020.6256
 Red. masses --      1.3425                 1.2511                 6.1590
 Frc consts  --      0.7410                 0.7298                 3.7800
 IR Inten    --      0.0657                 0.4282                 0.5000

                     28                     29                     30
                      A                      A                      A
 Frequencies --   1037.6757              1059.0491              1107.1735
 Red. masses --      1.0978                 2.2615                 1.7358
 Frc consts  --      0.6964                 1.4945                 1.2537
 IR Inten    --     16.4934                 2.7165                 1.5370

                     31                     32                     33
                      A                      A                      A
 Frequencies --   1127.5157              1193.3651              1194.7166
 Red. masses --      1.7194                 1.1447                 2.0663
 Frc consts  --      1.2879                 0.9605                 1.7377
 IR Inten    --      3.7847                 0.3517                 5.6668

                     34                     35                     36
                      A                      A                      A
 Frequencies --   1213.3944              1237.1661              1299.8711
 Red. masses --      1.1468                 1.7604                 1.4526
 Frc consts  --      0.9948                 1.5875                 1.4461
 IR Inten    --      0.4475                 2.8006                28.7438

                     37                     38                     39
                      A                      A                      A
 Frequencies --   1329.6346              1353.9788              1371.6622
 Red. masses --      1.4388                 2.0306                 1.9824
 Frc consts  --      1.4988                 2.1933                 2.1975
 IR Inten    --      1.2248                 4.5999                 0.4805

                     40                     41                     42
                      A                      A                      A
 Frequencies --   1428.6319              1488.6052              1515.2681
 Red. masses --      1.8161                 1.5797                 2.1810
 Frc consts  --      2.1839                 2.0624                 2.9504
 IR Inten    --      0.9062                 5.8158                 5.7942

                     43                     44                     45
                      A                      A                      A
 Frequencies --   1548.1390              1642.2361              1664.3130
 Red. masses --      2.3020                 5.4537                 5.5102
 Frc consts  --      3.2507                 8.6659                 8.9926
 IR Inten    --     16.1263                 0.3747                10.6420

                     46                     47                     48
                      A                      A                      A
 Frequencies --   1704.9614              2039.5831              3122.9487
 Red. masses --      4.1370                11.0648                 1.0864
 Frc consts  --      7.0855                27.1192                 6.2427
 IR Inten    --      8.8206                30.3778                11.1377

                     49                     50                     51
                      A                      A                      A
 Frequencies --   3126.7585              3164.4895              3178.2289
 Red. masses --      1.0864                 1.0585                 1.0860
 Frc consts  --      6.2579                 6.2454                 6.4630
 IR Inten    --     11.2709                10.6179                 7.9933

                     52                     53                     54
                      A                      A                      A
 Frequencies --   3178.7434              3185.1088              3194.7435
 Red. masses --      1.0926                 1.0868                 1.0905
 Frc consts  --      6.5044                 6.4958                 6.5579
 IR Inten    --      8.9755                 0.2095                16.3915

                     55                     56                     57
                      A                      A                      A
 Frequencies --   3202.6512              3211.8362              3250.2512
 Red. masses --      1.0939                 1.0980                 1.1156
 Frc consts  --      6.6105                 6.6735                 6.9437
 IR Inten    --     32.2669                26.2034                15.2391

 - Thermochemistry -
 -------------------
 Temperature   298.150 Kelvin.  Pressure   1.00000 Atm.
 Atom     1 has atomic number  6 and mass  12.00000

 Molecular mass:   142.07825 amu.
 Principal axes and moments of inertia in atomic units:
                           1         2         3
     Eigenvalues --   535.522383909.752144313.49909
           X            0.99998   0.00642  -0.00049
           Y           -0.00642   0.99991  -0.01143
           Z            0.00042   0.01144   0.99993
 This molecule is an asymmetric top.
 Rotational symmetry number  1.
 Warning -- assumption of classical behavior for rotation
           may cause significant error
 Rotational temperatures (Kelvin)      0.16174     0.02215     0.02008
 Rotational constants (GHZ):           3.37006     0.46160     0.41839
 Zero-point vibrational energy     451547.0 (Joules/Mol)
                                  107.92232 (Kcal/Mol)
 Warning -- explicit consideration of  12 degrees of freedom as
           vibrations may cause significant error
 Vibrational temperatures:     59.07    77.88   189.25   221.44   233.71
          (Kelvin)            425.74   449.14   547.86   597.67   642.13
                              730.31   823.99   915.21   939.74   956.93
                             1020.81  1102.68  1198.22  1199.72  1236.51
                             1317.73  1330.82  1339.68  1344.33  1392.58
                             1431.58  1468.45  1492.98  1523.74  1592.98
                             1622.24  1716.99  1718.93  1745.80  1780.01
                             1870.22  1913.05  1948.07  1973.52  2055.48
                             2141.77  2180.13  2227.43  2362.81  2394.58
                             2453.06  2934.51  4493.23  4498.71  4552.99
                             4572.76  4573.50  4582.66  4596.52  4607.90
                             4621.12  4676.39

 Zero-point correction=                           0.171985 (Hartree/Particle)
 Thermal correction to Energy=                    0.181895
 Thermal correction to Enthalpy=                  0.182840
 Thermal correction to Gibbs Free Energy=         0.135559
 Sum of electronic and zero-point Energies=           -424.985173
 Sum of electronic and thermal Energies=              -424.975263
 Sum of electronic and thermal Enthalpies=            -424.974318
 Sum of electronic and thermal Free Energies=         -425.021599

                     E (Thermal)             CV                S
                      KCal/Mol        Cal/Mol-Kelvin    Cal/Mol-Kelvin
 Total                  114.141             37.603             99.510
 Electronic               0.000              0.000              0.000
 Translational            0.889              2.981             40.765
 Rotational               0.889              2.981             30.580
 Vibrational            112.364             31.641             28.165
 Vibration     1          0.594              1.981              5.208
 Vibration     2          0.596              1.976              4.661
 Vibration     3          0.612              1.922              2.923
 Vibration     4          0.619              1.898              2.623
 Vibration     5          0.623              1.889              2.521
 Vibration     6          0.690              1.681              1.440
 Vibration     7          0.701              1.650              1.351
 Vibration     8          0.751              1.511              1.036
 Vibration     9          0.779              1.437              0.908
 Vibration    10          0.806              1.369              0.807
 Vibration    11          0.863              1.233              0.639
 Vibration    12          0.929              1.090              0.499

 Optimization completed.
    -- Stationary point found.
 Normal termination of Gaussian 16 at Tue Dec  8 21:01:39 2020.

 ----------------------------------------------------------------------
 # B3LYP/6-311++G(d,p) empiricaldispersion=gd3bj scf=xqc pop=npa geom=c
 heck
 ----------------------------------------------------------------------

 --------------------------------------
 CID_12670027_JID_1748_Energie_neutraal
 --------------------------------------
 Structure from the checkpoint file:  "JID_1748.chk"
 Charge =  0 Multiplicity = 1

 SCF Done:  E(RB3LYP) =  -425.269952086     A.U. after   14 cycles
 Normal termination of Gaussian 16 at Tue Dec  8 21:04:20 2020.

 ----------------------------------------------------------------------
 # B3LYP/6-311++G(d,p) empiricaldispersion=gd3bj scf=xqc pop=npa geom=c
 heck
 ----------------------------------------------------------------------

 ------------------------------------
 CID_12670027_JID_1748_Energie_kation
 ------------------------------------
 Structure from the checkpoint file:  "JID_1748.chk"
 Charge =  1 Multiplicity = 2

 SCF Done:  E(UB3LYP) =  -424.974509117     A.U. after   31 cycles
 Normal termination of Gaussian 16 at Tue Dec  8 21:10:22 2020.
 Gaussian 16:  ES64L-G16RevA.03 25-Dec-2016

 ----------------------------------------------------------------------
 # B3LYP/6-311++G(d,p) empiricaldispersion=gd3bj scf=xqc pop=npa geom=c
 heck
 ----------------------------------------------------------------------

 -----------------------------------
 CID_12670027_JID_1748_Energie_anion
 -----------------------------------
 Structure from the checkpoint file:  "JID_1748.chk"
 Charge = -1 Multiplicity = 2

                         Standard orientation:
 ---------------------------------------------------------------------
 Center     Atomic      Atomic             Coordinates (Angstroms)
 Number     Number       Type             X           Y           Z
 ---------------------------------------------------------------------
      1          6           0        4.755324    0.701889    0.274874
      2          6           0        3.541841    0.183976    0.505504
      3          6           0        2.644516   -0.281659   -0.551731
      4          6           0        1.452468   -0.794598   -0.339376
      5          6           0        0.255826   -1.286983   -0.119032
      6          6           0       -0.996928   -0.512757   -0.049846
      7          6           0       -2.207066   -1.180589    0.187236
      8          6           0       -3.408141   -0.476375    0.258936
      9          6           0       -3.417885    0.908477    0.094572
     10          6           0       -2.216449    1.583808   -0.142041
     11          6           0       -1.018111    0.882202   -0.213658
     12          1           0        5.147568    0.804268   -0.734298
     13          1           0        5.393734    1.038977    1.085302
     14          1           0        3.171846    0.091787    1.524750
     15          1           0        3.008345   -0.192469   -1.577881
     16          1           0        0.156876   -2.364252    0.028020
     17          1           0       -2.201739   -2.260274    0.315570
     18          1           0       -4.335961   -1.010806    0.443299
     19          1           0       -4.352441    1.459288    0.150143
     20          1           0       -2.216172    2.662743   -0.270793
     21          1           0       -0.084428    1.406402   -0.396753
 ---------------------------------------------------------------------

 SCF Done:  E(UB3LYP) =  -425.259231678     A.U. after   33 cycles
 SCF Done:  E(UB3LYP) =  -425.259812689     a.u. after    9 cycles

 The electronic state is 2-A.
 Alpha  occ. eigenvalues --  -10.05583 -10.04866 -10.04692 -10.04675 -10.04364
 Alpha  occ. eigenvalues --  -10.04312 -10.04093 -10.03957 -10.03714 -10.03640
 Alpha  occ. eigenvalues --  -10.03585  -0.72854  -0.68577  -0.65297  -0.61718
 Alpha  occ. eigenvalues --   -0.60747  -0.55817  -0.48055  -0.47080  -0.44799
 Alpha  occ. eigenvalues --   -0.40431  -0.38340  -0.35054  -0.33476  -0.32140
 Alpha  occ. eigenvalues --   -0.30579  -0.29482  -0.28979  -0.28058  -0.24917
 Alpha  occ. eigenvalues --   -0.24162  -0.22546  -0.21474  -0.19837  -0.17189
 Alpha  occ. eigenvalues --   -0.12912  -0.10813  -0.09615   0.05446
 Alpha virt. eigenvalues --    0.07845   0.08411   0.08563   0.08971   0.09695
 Alpha virt. eigenvalues --    0.09798   0.10940   0.11276   0.11622   0.12839
 Alpha virt. eigenvalues --    0.13660   0.13995   0.15449   0.15814   0.16761

  Beta  occ. eigenvalues --  -10.05495 -10.04887 -10.04712 -10.04557 -10.04340
  Beta  occ. eigenvalues --  -10.04302 -10.04062 -10.03857 -10.03542 -10.03486
  Beta  occ. eigenvalues --  -10.03273  -0.72630  -0.68203  -0.64984  -0.61557
  Beta  occ. eigenvalues --   -0.60349  -0.55607  -0.47875  -0.46774  -0.44527
  Beta  occ. eigenvalues --   -0.40201  -0.38167  -0.34876  -0.33283  -0.31878
  Beta  occ. eigenvalues --   -0.30430  -0.29390  -0.28815  -0.27900  -0.24493
  Beta  occ. eigenvalues --   -0.23886  -0.22392  -0.21380  -0.19404  -0.16405
  Beta  occ. eigenvalues --   -0.12519  -0.10106  -0.08636
  Beta virt. eigenvalues --    0.07902   0.08301   0.09023   0.09552   0.09652
  Beta virt. eigenvalues --    0.10018   0.10259   0.11092   0.11354   0.11747
  Beta virt. eigenvalues --    0.12800   0.13876   0.14100   0.15634   0.16048

 Mulliken charges and spin densities:
               1          2
     1  C   -0.289165  -0.234947
     2  C   -0.197458   0.213475
     3  C   -0.123729  -0.203885
     4  C    0.864475  -0.350904
     5  C    0.135153  -0.432163
     6  C    0.687390   0.443612
     7  C    0.377019  -0.222952
     8  C   -0.125234  -0.272272
     9  C    0.214593  -0.381784
    10  C   -0.249426  -0.064995
    11  C   -1.638358   0.636308
    12  H   -0.011815   0.094269
    13  H    0.074435   0.020936
    14  H   -0.027206   0.154747
    15  H   -0.072339   0.223530
    16  H   -0.141238   0.305413
    17  H   -0.210696   0.334963
    18  H   -0.308057   0.441933
    19  H   -0.080661   0.180183
    20  H   -0.006191   0.152912
    21  H    0.128510  -0.038379
 Sum of Mulliken charges =  -1.00000   1.00000

 Dipole moment (field-independent basis, Debye):
    X=              0.7246    Y=              1.1671    Z=              0.0131  Tot=              1.3738
 Quadrupole moment (field-independent basis, Debye-Ang):
   XX=           -128.7879   YY=            -86.8306   ZZ=            -80.8541
   XY=             -2.4230   XZ=              1.8560   YZ=              0.3006

 Summary of Natural Population Analysis:

                                       Natural Population
                Natural  -----------------------------------------------
    Atom  No    Charge         Core      Valence    Rydberg      Total
 -----------------------------------------------------------------------
      C    1   -0.19643      0.99959     2.18875    0.00810     3.19643
      C    2   -0.07939      0.99955     2.06868    0.01117     3.07939
      C    3   -0.18488      0.99951     2.17094    0.01444     3.18488
      C    4    0.16653      0.99950     1.82630    0.00767     2.83347
      C    5   -0.16322      0.99950     2.15118    0.01254     3.16322
      C    6   -0.01009      0.99949     1.99930    0.01130     3.01009
      C    7   -0.09488      0.99953     2.08568    0.00967     3.09488
      C    8   -0.10583      0.99957     2.09533    0.01093     3.10583
      C    9   -0.08493      0.99957     2.07519    0.01017     3.08493
      C   10   -0.11381      0.99957     2.10420    0.01004     3.11381
      C   11   -0.07907      0.99953     2.07160    0.00794     3.07907
      H   12    0.08482      0.00000     0.41378    0.00140     0.41518
      H   13    0.08682      0.00000     0.41223    0.00095     0.41318
      H   14    0.09271      0.00000     0.40612    0.00117     0.40729
      H   15    0.10235      0.00000     0.39501    0.00264     0.39765
      H   16    0.10606      0.00000     0.39145    0.00249     0.39394
      H   17    0.09455      0.00000     0.40355    0.00191     0.40545
      H   18    0.09506      0.00000     0.40387    0.00107     0.40494
      H   19    0.09232      0.00000     0.40676    0.00091     0.40768
      H   20    0.09377      0.00000     0.40541    0.00082     0.40623
      H   21    0.09997      0.00000     0.39847    0.00156     0.40003
 =======================================================================
   * Total *    0.00243     10.99489    26.87380    0.12888    37.99757

 Normal termination of Gaussian 16 at Tue Dec  8 21:57:14 2020.
