 Gaussian 16, Revision A.03,

 -----------------------------------------------------------
 # opt freq B3LYP/6-31G(d) empiricaldispersion=gd3bj scf=xqc
 -----------------------------------------------------------

 -------------------------------
 CID_108212793_JID_8841_neutraal
 -------------------------------
 Symbolic Z-matrix:
 Charge =  0 Multiplicity = 1

 SCF Done:  E(RB3LYP) =  -753.596636729     A.U. after   14 cycles
 SCF Done:  E(RB3LYP) =  -753.602773887     A.U. after   11 cycles
 SCF Done:  E(RB3LYP) =  -753.603260336     A.U. after   11 cycles
 SCF Done:  E(RB3LYP) =  -753.603618735     A.U. after   11 cycles
 SCF Done:  E(RB3LYP) =  -753.603858959     A.U. after   12 cycles
 SCF Done:  E(RB3LYP) =  -753.604164063     A.U. after   12 cycles
 SCF Done:  E(RB3LYP) =  -753.604332890     A.U. after   12 cycles
 SCF Done:  E(RB3LYP) =  -753.604351954     A.U. after   11 cycles
 SCF Done:  E(RB3LYP) =  -753.604358802     A.U. after    9 cycles
 SCF Done:  E(RB3LYP) =  -753.604367419     A.U. after   10 cycles
 SCF Done:  E(RB3LYP) =  -753.604390156     A.U. after    9 cycles
 SCF Done:  E(RB3LYP) =  -753.604390278     A.U. after    8 cycles
 SCF Done:  E(RB3LYP) =  -753.604390386     A.U. after    8 cycles
 SCF Done:  E(RB3LYP) =  -753.604390422     A.U. after    6 cycles
 SCF Done:  E(RB3LYP) =  -753.604390436     A.U. after    6 cycles
 Optimization completed on the basis of negligible forces.
    -- Stationary point found.
 Normal termination of Gaussian 16 at Fri Dec 11 22:40:05 2020.

 --------------------------------------------------------------------
 #N Geom=AllCheck Guess=TCheck SCRF=Check GenChk RB3LYP/6-31G(d) Freq
 --------------------------------------------------------------------

 Structure from the checkpoint file:  "JID_8841.chk"
 -------------------------------
 CID_108212793_JID_8841_neutraal
 -------------------------------
 Charge =  0 Multiplicity = 1

 SCF Done:  E(RB3LYP) =  -753.604390436     A.U. after    1 cycles

  Exact polarizability: 215.225  10.803 153.792  -5.757  11.413 146.033
 Approx polarizability: 279.464  12.957 246.570 -14.869  39.723 219.716

                      1                      2                      3
                      A                      A                      A
 Frequencies --     11.1509                24.4453                53.7850
 Red. masses --      1.0670                 3.4282                 3.7067
 Frc consts  --      0.0001                 0.0012                 0.0063
 IR Inten    --      0.3141                 0.1050                 0.2135

                      4                      5                      6
                      A                      A                      A
 Frequencies --     60.8257                62.7163                87.0134
 Red. masses --      3.2311                 2.8661                 1.7993
 Frc consts  --      0.0070                 0.0066                 0.0080
 IR Inten    --      0.9493                 2.6232                 0.0706

                      7                      8                      9
                      A                      A                      A
 Frequencies --    146.1849               151.7388               169.7708
 Red. masses --      3.5093                 2.7650                 2.8288
 Frc consts  --      0.0442                 0.0375                 0.0480
 IR Inten    --      0.3005                 0.0273                 0.1569

                     10                     11                     12
                      A                      A                      A
 Frequencies --    180.1303               203.5348               267.1099
 Red. masses --      2.6423                 3.2015                 4.2788
 Frc consts  --      0.0505                 0.0781                 0.1799
 IR Inten    --      0.7390                 2.5846                 0.5076

                     13                     14                     15
                      A                      A                      A
 Frequencies --    279.5571               320.9002               341.6793
 Red. masses --      2.5582                 2.6197                 1.8074
 Frc consts  --      0.1178                 0.1589                 0.1243
 IR Inten    --      0.9574                 7.8970                23.4479

                     16                     17                     18
                      A                      A                      A
 Frequencies --    348.9589               373.6372               402.1968
 Red. masses --      2.0520                 1.8996                 3.4381
 Frc consts  --      0.1472                 0.1562                 0.3277
 IR Inten    --     30.7852                79.9545                 1.4830

                     19                     20                     21
                      A                      A                      A
 Frequencies --    408.7216               455.5971               477.5729
 Red. masses --      3.0646                 3.4841                 3.2513
 Frc consts  --      0.3016                 0.4261                 0.4369
 IR Inten    --      5.9901                 3.3367                 3.8908

                     22                     23                     24
                      A                      A                      A
 Frequencies --    493.7572               523.5535               568.4293
 Red. masses --      3.5250                 3.1938                 2.4482
 Frc consts  --      0.5063                 0.5158                 0.4661
 IR Inten    --      4.3539                 1.5657                 2.4369

                     25                     26                     27
                      A                      A                      A
 Frequencies --    578.3121               588.1534               617.1991
 Red. masses --      4.4199                 3.0433                 4.2074
 Frc consts  --      0.8709                 0.6203                 0.9443
 IR Inten    --      0.9598                 4.9481                 3.3766

                     28                     29                     30
                      A                      A                      A
 Frequencies --    629.1877               732.0922               758.3476
 Red. masses --      2.7834                 4.6469                 3.3593
 Frc consts  --      0.6492                 1.4674                 1.1383
 IR Inten    --      1.8232                 1.6128                 3.1493

                     31                     32                     33
                      A                      A                      A
 Frequencies --    775.0273               797.8076               826.7104
 Red. masses --      1.3381                 2.4382                 1.9195
 Frc consts  --      0.4736                 0.9144                 0.7729
 IR Inten    --      2.0676                 2.2247                 4.5386

                     34                     35                     36
                      A                      A                      A
 Frequencies --    843.6998               887.2666               895.8653
 Red. masses --      1.9264                 1.6323                 1.9774
 Frc consts  --      0.8079                 0.7571                 0.9350
 IR Inten    --      6.8929                 2.1278                 0.6699

                     37                     38                     39
                      A                      A                      A
 Frequencies --    911.8715               918.8318               924.6627
 Red. masses --      2.5146                 2.2581                 1.3951
 Frc consts  --      1.2319                 1.1232                 0.7028
 IR Inten    --      5.5251                 2.2532                 3.1874

                     40                     41                     42
                      A                      A                      A
 Frequencies --    949.2927               952.8882               959.4090
 Red. masses --      2.9665                 1.3899                 1.4876
 Frc consts  --      1.5750                 0.7436                 0.8068
 IR Inten    --      2.1965                 0.1901                 1.3854

                     43                     44                     45
                      A                      A                      A
 Frequencies --    979.5996               996.3238              1001.3413
 Red. masses --      2.2856                 1.6877                 1.6054
 Frc consts  --      1.2922                 0.9871                 0.9484
 IR Inten    --      6.9705                 8.6667                16.4279

                     46                     47                     48
                      A                      A                      A
 Frequencies --   1027.0267              1037.4967              1062.0891
 Red. masses --      2.4704                 1.5468                 1.7086
 Frc consts  --      1.5353                 0.9809                 1.1356
 IR Inten    --      2.5206                 7.3894                 4.7942

                     49                     50                     51
                      A                      A                      A
 Frequencies --   1064.3994              1075.0158              1077.6090
 Red. masses --      3.4385                 1.7274                 1.8812
 Frc consts  --      2.2953                 1.1761                 1.2871
 IR Inten    --     67.6933                30.6540                15.2266

                     52                     53                     54
                      A                      A                      A
 Frequencies --   1110.1473              1128.6109              1141.4021
 Red. masses --      2.3442                 2.6552                 2.6505
 Frc consts  --      1.7022                 1.9927                 2.0345
 IR Inten    --      4.5361                 6.2471                10.4691

                     55                     56                     57
                      A                      A                      A
 Frequencies --   1149.0499              1180.6767              1186.1200
 Red. masses --      2.1647                 2.0562                 1.4487
 Frc consts  --      1.6839                 1.6888                 1.2008
 IR Inten    --      3.7175                20.1168                 9.3384

                     58                     59                     60
                      A                      A                      A
 Frequencies --   1195.7223              1211.3139              1214.3541
 Red. masses --      1.6319                 1.1144                 1.5157
 Frc consts  --      1.3747                 0.9634                 1.3169
 IR Inten    --      6.4907                13.1114                 1.6359

                     61                     62                     63
                      A                      A                      A
 Frequencies --   1241.9385              1250.4029              1260.8237
 Red. masses --      1.4654                 1.7874                 1.7186
 Frc consts  --      1.3317                 1.6465                 1.6097
 IR Inten    --      1.8669                17.3835                 2.5793

                     64                     65                     66
                      A                      A                      A
 Frequencies --   1275.4200              1288.1141              1298.1664
 Red. masses --      1.5928                 1.5042                 1.3339
 Frc consts  --      1.5266                 1.4705                 1.3245
 IR Inten    --     12.4559                 9.7650                 4.3629

                     67                     68                     69
                      A                      A                      A
 Frequencies --   1309.7181              1322.7777              1329.6135
 Red. masses --      1.7862                 1.4733                 2.9866
 Frc consts  --      1.8053                 1.5189                 3.1109
 IR Inten    --      3.8105                10.6649                13.0294

                     70                     71                     72
                      A                      A                      A
 Frequencies --   1337.2385              1345.2855              1347.9138
 Red. masses --      1.2897                 1.3521                 1.5552
 Frc consts  --      1.3588                 1.4417                 1.6648
 IR Inten    --      1.1191                11.3760                 3.9329

                     73                     74                     75
                      A                      A                      A
 Frequencies --   1358.5462              1381.5577              1387.5927
 Red. masses --      1.3162                 1.5550                 1.4991
 Frc consts  --      1.4313                 1.7487                 1.7007
 IR Inten    --      0.6865                10.0203                 6.4375

                     76                     77                     78
                      A                      A                      A
 Frequencies --   1392.8651              1408.3794              1426.3578
 Red. masses --      1.4048                 1.3747                 1.2849
 Frc consts  --      1.6057                 1.6066                 1.5401
 IR Inten    --      5.4389                13.8023                57.1139

                     79                     80                     81
                      A                      A                      A
 Frequencies --   1428.0129              1438.2217              1442.4794
 Red. masses --      1.6154                 1.4255                 1.2533
 Frc consts  --      1.9408                 1.7373                 1.5365
 IR Inten    --      3.2074                16.6806                 1.1622

                     82                     83                     84
                      A                      A                      A
 Frequencies --   1458.8313              1509.6712              1517.0369
 Red. masses --      2.7934                 1.0892                 1.0866
 Frc consts  --      3.5026                 1.4625                 1.4733
 IR Inten    --      2.1243                 5.0052                 1.3518

                     85                     86                     87
                      A                      A                      A
 Frequencies --   1517.7053              1520.6959              1523.7968
 Red. masses --      1.0492                 1.0943                 1.1117
 Frc consts  --      1.4239                 1.4909                 1.5208
 IR Inten    --      5.1080                 4.8111                 8.9644

                     88                     89                     90
                      A                      A                      A
 Frequencies --   1526.5735              1529.5239              1532.6257
 Red. masses --      1.0941                 1.1058                 1.1004
 Frc consts  --      1.5023                 1.5242                 1.5229
 IR Inten    --      0.9058                 5.5288                 2.8894

                     91                     92                     93
                      A                      A                      A
 Frequencies --   1545.8671              1549.6187              1633.2916
 Red. masses --      1.1138                 2.6199                 6.3650
 Frc consts  --      1.5683                 3.7067                10.0041
 IR Inten    --      2.2031                53.8300                 1.7589

                     94                     95                     96
                      A                      A                      A
 Frequencies --   1668.8981              2882.9528              2934.5910
 Red. masses --      5.9318                 1.0794                 1.0726
 Frc consts  --      9.7342                 5.2856                 5.4421
 IR Inten    --      0.9284                38.8643                59.9190

                     97                     98                     99
                      A                      A                      A
 Frequencies --   3011.0931              3024.3783              3041.3832
 Red. masses --      1.0806                 1.0669                 1.0402
 Frc consts  --      5.7725                 5.7499                 5.6688
 IR Inten    --      4.0749                33.5781                40.1747

                    100                    101                    102
                      A                      A                      A
 Frequencies --   3044.9342              3048.5626              3050.4394
 Red. masses --      1.0619                 1.0657                 1.0588
 Frc consts  --      5.8008                 5.8357                 5.8046
 IR Inten    --     22.2781                49.3560                31.2476

                    103                    104                    105
                      A                      A                      A
 Frequencies --   3065.1626              3073.9824              3074.6525
 Red. masses --      1.0642                 1.0674                 1.0928
 Frc consts  --      5.8910                 5.9425                 6.0865
 IR Inten    --     32.4868                49.7818                41.3924

                    106                    107                    108
                      A                      A                      A
 Frequencies --   3087.1318              3088.9433              3093.1744
 Red. masses --      1.1042                 1.1018                 1.0918
 Frc consts  --      6.2001                 6.1943                 6.1549
 IR Inten    --     25.4851                45.9139                41.9778

                    109                    110                    111
                      A                      A                      A
 Frequencies --   3094.3870              3097.1649              3111.3956
 Red. masses --      1.0997                 1.0964                 1.1013
 Frc consts  --      6.2040                 6.1966                 6.2815
 IR Inten    --     19.3233                22.8349                27.4563

                    112                    113                    114
                      A                      A                      A
 Frequencies --   3125.7122              3126.4128              3174.0289
 Red. masses --      1.1023                 1.1036                 1.0875
 Frc consts  --      6.3451                 6.3557                 6.4551
 IR Inten    --     15.1453                52.5084                19.4228

                    115                    116                    117
                      A                      A                      A
 Frequencies --   3194.5311              3197.0810              3731.6071
 Red. masses --      1.0899                 1.0927                 1.0659
 Frc consts  --      6.5533                 6.5806                 8.7454
 IR Inten    --     16.8600                 8.6333                 9.5135

 - Thermochemistry -
 -------------------
 Temperature   298.150 Kelvin.  Pressure   1.00000 Atm.
 Atom     1 has atomic number  6 and mass  12.00000

 Molecular mass:   245.17796 amu.
 Principal axes and moments of inertia in atomic units:
                           1         2         3
     Eigenvalues --  2664.840247100.635657240.07465
           X            0.99998   0.00681  -0.00029
           Y           -0.00675   0.98352  -0.18068
           Z           -0.00095   0.18067   0.98354
 This molecule is an asymmetric top.
 Rotational symmetry number  1.
 Warning -- assumption of classical behavior for rotation
           may cause significant error
 Rotational temperatures (Kelvin)      0.03250     0.01220     0.01196
 Rotational constants (GHZ):           0.67724     0.25417     0.24927
 Zero-point vibrational energy     959866.5 (Joules/Mol)
                                  229.41361 (Kcal/Mol)
 Warning -- explicit consideration of  27 degrees of freedom as
           vibrations may cause significant error
 Vibrational temperatures:     16.04    35.17    77.38    87.51    90.23
          (Kelvin)            125.19   210.33   218.32   244.26   259.17
                              292.84   384.31   402.22   461.70   491.60
                              502.07   537.58   578.67   588.06   655.50
                              687.12   710.41   753.28   817.84   832.06
                              846.22   888.01   905.26  1053.32  1091.09
                             1115.09  1147.87  1189.45  1213.90  1276.58
                             1288.95  1311.98  1321.99  1330.38  1365.82
                             1370.99  1380.38  1409.43  1433.49  1440.71
                             1477.66  1492.73  1528.11  1531.43  1546.71
                             1550.44  1597.25  1623.82  1642.22  1653.23
                             1698.73  1706.56  1720.38  1742.81  1747.18
                             1786.87  1799.05  1814.04  1835.04  1853.31
                             1867.77  1884.39  1903.18  1913.02  1923.99
                             1935.57  1939.35  1954.65  1987.75  1996.44
                             2004.02  2026.34  2052.21  2054.59  2069.28
                             2075.41  2098.93  2172.08  2182.68  2183.64
                             2187.94  2192.40  2196.40  2200.64  2205.11
                             2224.16  2229.56  2349.94  2401.17  4147.93
                             4222.22  4332.29  4351.41  4375.87  4380.98
                             4386.20  4388.90  4410.09  4422.78  4423.74
                             4441.69  4444.30  4450.39  4452.13  4456.13
                             4476.60  4497.20  4498.21  4566.72  4596.22
                             4599.89  5368.95

 Zero-point correction=                           0.365594 (Hartree/Particle)
 Thermal correction to Energy=                    0.382829
 Thermal correction to Enthalpy=                  0.383773
 Thermal correction to Gibbs Free Energy=         0.318159
 Sum of electronic and zero-point Energies=           -753.238797
 Sum of electronic and thermal Energies=              -753.221562
 Sum of electronic and thermal Enthalpies=            -753.220617
 Sum of electronic and thermal Free Energies=         -753.286232

                     E (Thermal)             CV                S
                      KCal/Mol        Cal/Mol-Kelvin    Cal/Mol-Kelvin
 Total                  240.229             66.667            138.097
 Electronic               0.000              0.000              0.000
 Translational            0.889              2.981             42.391
 Rotational               0.889              2.981             33.282
 Vibrational            238.451             60.705             62.423
 Vibration     1          0.593              1.987              7.795
 Vibration     2          0.593              1.985              6.236
 Vibration     3          0.596              1.976              4.673
 Vibration     4          0.597              1.973              4.430
 Vibration     5          0.597              1.972              4.370
 Vibration     6          0.601              1.958              3.726
 Vibration     7          0.617              1.907              2.721
 Vibration     8          0.619              1.901              2.650
 Vibration     9          0.625              1.880              2.438
 Vibration    10          0.629              1.867              2.327
 Vibration    11          0.639              1.835              2.101
 Vibration    12          0.672              1.733              1.615
 Vibration    13          0.680              1.711              1.536
 Vibration    14          0.706              1.634              1.306
 Vibration    15          0.721              1.592              1.204
 Vibration    16          0.726              1.577              1.171
 Vibration    17          0.745              1.526              1.065
 Vibration    18          0.768              1.465              0.955
 Vibration    19          0.773              1.451              0.931
 Vibration    20          0.814              1.349              0.779
 Vibration    21          0.834              1.300              0.717
 Vibration    22          0.849              1.264              0.674
 Vibration    23          0.879              1.198              0.602
 Vibration    24          0.924              1.100              0.507
 Vibration    25          0.935              1.078              0.488
 Vibration    26          0.945              1.057              0.470
 Vibration    27          0.977              0.996              0.421

 Optimization completed on the basis of negligible forces.
    -- Stationary point found.
 Normal termination of Gaussian 16 at Fri Dec 11 23:01:52 2020.

 ----------------------------------------------------------------------
 # B3LYP/6-311++G(d,p) empiricaldispersion=gd3bj scf=xqc pop=npa geom=c
 heck
 ----------------------------------------------------------------------

 ---------------------------------------
 CID_108212793_JID_8841_Energie_neutraal
 ---------------------------------------
 Structure from the checkpoint file:  "JID_8841.chk"
 Charge =  0 Multiplicity = 1

 SCF Done:  E(RB3LYP) =  -753.809737687     A.U. after   14 cycles
 Normal termination of Gaussian 16 at Fri Dec 11 23:11:24 2020.

 ----------------------------------------------------------------------
 # B3LYP/6-311++G(d,p) empiricaldispersion=gd3bj scf=xqc pop=npa geom=c
 heck
 ----------------------------------------------------------------------

 -------------------------------------
 CID_108212793_JID_8841_Energie_kation
 -------------------------------------
 Structure from the checkpoint file:  "JID_8841.chk"
 Charge =  1 Multiplicity = 2

 SCF Done:  E(UB3LYP) =  -753.522877184     A.U. after   28 cycles
 Normal termination of Gaussian 16 at Fri Dec 11 23:37:13 2020.
 Gaussian 16:  ES64L-G16RevA.03 25-Dec-2016

 ----------------------------------------------------------------------
 # B3LYP/6-311++G(d,p) empiricaldispersion=gd3bj scf=xqc pop=npa geom=c
 heck
 ----------------------------------------------------------------------

 ------------------------------------
 CID_108212793_JID_8841_Energie_anion
 ------------------------------------
 Structure from the checkpoint file:  "JID_8841.chk"
 Charge = -1 Multiplicity = 2

                         Standard orientation:
 ---------------------------------------------------------------------
 Center     Atomic      Atomic             Coordinates (Angstroms)
 Number     Number       Type             X           Y           Z
 ---------------------------------------------------------------------
      1          6           0       -4.873512   -1.291653   -0.118928
      2          6           0       -3.435745   -0.853435   -0.259163
      3          6           0       -2.957177    0.269224    0.421546
      4          6           0       -1.622994    0.678503    0.329656
      5          6           0       -0.734216   -0.061054   -0.466091
      6          6           0       -1.206654   -1.183704   -1.155881
      7          6           0       -2.538891   -1.574830   -1.056532
      8          7           0        0.641973    0.354530   -0.545325
      9          6           0        1.094860    0.627991   -1.918365
     10          6           0        2.493189    1.256256   -1.927132
     11          6           0        3.515373    0.375519   -1.189201
     12          6           0        2.974073    0.063039    0.200719
     13          6           0        1.573825   -0.554535    0.121346
     14          6           0        1.278763   -0.906962    1.580168
     15          6           0        2.645458   -1.428050    2.110282
     16          6           0        3.722234   -0.935038    1.093485
     17          6           0       -1.156582    1.910805    1.080222
     18          8           0       -2.208240    2.828163    1.367270
     19          1           0       -4.974120   -2.090438    0.627737
     20          1           0       -5.513657   -0.463625    0.201595
     21          1           0       -5.268354   -1.681334   -1.063668
     22          1           0       -3.631226    0.854860    1.040505
     23          1           0       -0.522055   -1.755562   -1.776093
     24          1           0       -2.886657   -2.449650   -1.601320
     25          1           0        0.369750    1.303518   -2.383444
     26          1           0        1.115665   -0.295643   -2.528596
     27          1           0        2.802642    1.425104   -2.965726
     28          1           0        2.439821    2.237359   -1.438259
     29          1           0        3.663888   -0.563880   -1.742206
     30          1           0        4.490911    0.874932   -1.139858
     31          1           0        2.859731    1.011119    0.747893
     32          1           0        1.657437   -1.502857   -0.451912
     33          1           0        0.469129   -1.632801    1.693082
     34          1           0        0.980945    0.004763    2.110708
     35          1           0        2.649327   -2.520454    2.179778
     36          1           0        2.841466   -1.049627    3.118151
     37          1           0        4.089055   -1.773150    0.487396
     38          1           0        4.593965   -0.489114    1.582788
     39          1           0       -0.753067    1.628476    2.059376
     40          1           0       -0.335718    2.384091    0.527683
     41          1           0       -2.598800    3.084441    0.516723
 ---------------------------------------------------------------------

 SCF Done:  E(UB3LYP) =  -753.795790627     A.U. after   33 cycles
 SCF Done:  E(UB3LYP) =  -753.795790627     a.u. after    1 cycles

 The electronic state is 2-A.
 Alpha  occ. eigenvalues --  -19.02651 -14.21277 -10.11896 -10.10363 -10.10138
 Alpha  occ. eigenvalues --  -10.09875 -10.08658 -10.08144 -10.07759 -10.07688
 Alpha  occ. eigenvalues --  -10.07530 -10.07500 -10.07480 -10.07456 -10.07400
 Alpha  occ. eigenvalues --  -10.07370 -10.07220 -10.07137  -0.92743  -0.84562
 Alpha  occ. eigenvalues --   -0.76371  -0.74007  -0.70014  -0.67451  -0.65933
 Alpha  occ. eigenvalues --   -0.62841  -0.61196  -0.59391  -0.57950  -0.54208
 Alpha  occ. eigenvalues --   -0.50940  -0.50119  -0.48818  -0.47087  -0.46377
 Alpha  occ. eigenvalues --   -0.42272  -0.40868  -0.38992  -0.38310  -0.37235
 Alpha  occ. eigenvalues --   -0.36300  -0.34846  -0.34330  -0.33925  -0.33614
 Alpha  occ. eigenvalues --   -0.33240  -0.32994  -0.32718  -0.31109  -0.30531
 Alpha  occ. eigenvalues --   -0.29423  -0.29209  -0.26717  -0.26316  -0.25590
 Alpha  occ. eigenvalues --   -0.25010  -0.24859  -0.24488  -0.23659  -0.23516
 Alpha  occ. eigenvalues --   -0.22749  -0.22254  -0.21263  -0.19028  -0.15455
 Alpha  occ. eigenvalues --   -0.14301  -0.12904   0.04171
 Alpha virt. eigenvalues --    0.05845   0.06430   0.06601   0.07199   0.07673
 Alpha virt. eigenvalues --    0.07890   0.08036   0.08558   0.09120   0.09321
 Alpha virt. eigenvalues --    0.09994   0.10235   0.10370   0.11055   0.11291

  Beta  occ. eigenvalues --  -19.02620 -14.21274 -10.11887 -10.10351 -10.10129
  Beta  occ. eigenvalues --  -10.09864 -10.08654 -10.08136 -10.07749 -10.07684
  Beta  occ. eigenvalues --  -10.07504 -10.07497 -10.07452 -10.07442 -10.07386
  Beta  occ. eigenvalues --  -10.07355 -10.07214 -10.07120  -0.92672  -0.84545
  Beta  occ. eigenvalues --   -0.76345  -0.73988  -0.69988  -0.67415  -0.65899
  Beta  occ. eigenvalues --   -0.62814  -0.61170  -0.59348  -0.57900  -0.54170
  Beta  occ. eigenvalues --   -0.50905  -0.50085  -0.48777  -0.47046  -0.46346
  Beta  occ. eigenvalues --   -0.42235  -0.40819  -0.38970  -0.38280  -0.37202
  Beta  occ. eigenvalues --   -0.36269  -0.34815  -0.34297  -0.33889  -0.33589
  Beta  occ. eigenvalues --   -0.33212  -0.32971  -0.32680  -0.31076  -0.30509
  Beta  occ. eigenvalues --   -0.29388  -0.29182  -0.26682  -0.26281  -0.25564
  Beta  occ. eigenvalues --   -0.24981  -0.24832  -0.24460  -0.23636  -0.23484
  Beta  occ. eigenvalues --   -0.22723  -0.22230  -0.21242  -0.18993  -0.15394
  Beta  occ. eigenvalues --   -0.14217  -0.12881
  Beta virt. eigenvalues --    0.06043   0.06548   0.06942   0.07053   0.07591
  Beta virt. eigenvalues --    0.07833   0.08208   0.08335   0.08898   0.09383
  Beta virt. eigenvalues --    0.09588   0.10212   0.10462   0.10651   0.11243

 Mulliken charges and spin densities:
               1          2
     1  C    1.480532  -2.015082
     2  C   -0.535039   0.970249
     3  C   -0.274637  -0.177733
     4  C   -0.265525   0.321324
     5  C    0.056631  -0.059272
     6  C   -0.019070  -0.087765
     7  C   -1.105040   0.355856
     8  N    0.546404   0.015539
     9  C    0.190854  -0.265102
    10  C    0.242502  -0.748423
    11  C   -0.306989   0.002818
    12  C   -0.372741   1.004621
    13  C   -0.341562  -0.178913
    14  C   -0.058878  -0.341818
    15  C   -0.049090  -0.459799
    16  C    0.595160  -1.194113
    17  C    0.586010  -1.011168
    18  O   -0.226290   0.005447
    19  H    0.077823   0.087454
    20  H   -0.226585   0.367216
    21  H   -0.244005   0.389841
    22  H    0.055895   0.139449
    23  H   -0.391241   0.526279
    24  H   -0.264414   0.428778
    25  H   -0.338140   0.528035
    26  H    0.276433  -0.160912
    27  H   -0.320984   0.504443
    28  H    0.122869   0.008579
    29  H   -0.079917   0.204550
    30  H   -0.159932   0.335699
    31  H    0.029887   0.164995
    32  H    0.072496   0.098710
    33  H    0.097061   0.096896
    34  H    0.277883  -0.244212
    35  H    0.029302   0.111788
    36  H   -0.117766   0.275045
    37  H   -0.046004   0.188675
    38  H   -0.041344   0.190845
    39  H   -0.047342   0.282645
    40  H    0.170690   0.025130
    41  H   -0.075896   0.313406
 Sum of Mulliken charges =  -1.00000   1.00000

 Dipole moment (field-independent basis, Debye):
    X=              2.0651    Y=             -1.2267    Z=              1.8187  Tot=              3.0128
 Quadrupole moment (field-independent basis, Debye-Ang):
   XX=           -198.7034   YY=           -156.6552   ZZ=           -156.2340
   XY=              2.0692   XZ=             -0.9565   YZ=             -2.6738

 Summary of Natural Population Analysis:

                                       Natural Population
                Natural  -----------------------------------------------
    Atom  No    Charge         Core      Valence    Rydberg      Total
 -----------------------------------------------------------------------
      C    1   -0.29046      0.99964     2.28588    0.00494     3.29046
      C    2   -0.01621      0.99952     2.00661    0.01009     3.01621
      C    3   -0.10118      0.99947     2.09175    0.00996     3.10118
      C    4   -0.02845      0.99944     2.01832    0.01069     3.02845
      C    5    0.08286      0.99942     1.90401    0.01371     2.91714
      C    6   -0.10312      0.99950     2.09478    0.00884     3.10312
      C    7   -0.09706      0.99951     2.08795    0.00960     3.09706
      N    8   -0.29069      0.99967     2.77685    0.01417     3.79069
      C    9   -0.07993      0.99960     2.06926    0.01107     3.07993
      C   10   -0.19115      0.99962     2.18313    0.00840     3.19115
      C   11   -0.18689      0.99960     2.17862    0.00867     3.18689
      C   12   -0.11324      0.99956     2.10263    0.01105     3.11324
      C   13    0.00431      0.99953     1.98410    0.01206     2.99569
      C   14   -0.19417      0.99961     2.18755    0.00701     3.19417
      C   15   -0.18875      0.99965     2.18249    0.00662     3.18875
      C   16   -0.18830      0.99962     2.18072    0.00796     3.18830
      C   17   -0.01645      0.99955     2.00423    0.01268     3.01645
      O   18   -0.36784      0.99990     3.36195    0.00599     4.36784
      H   19    0.10222      0.00000     0.39668    0.00111     0.39778
      H   20    0.10250      0.00000     0.39639    0.00112     0.39750
      H   21    0.10376      0.00000     0.39481    0.00143     0.39624
      H   22    0.10609      0.00000     0.39263    0.00128     0.39391
      H   23    0.10234      0.00000     0.39594    0.00172     0.39766
      H   24    0.09870      0.00000     0.40021    0.00109     0.40130
      H   25    0.10185      0.00000     0.39696    0.00119     0.39815
      H   26    0.08026      0.00000     0.41803    0.00171     0.41974
      H   27    0.10027      0.00000     0.39874    0.00099     0.39973
      H   28    0.09619      0.00000     0.40235    0.00146     0.40381
      H   29    0.09461      0.00000     0.40402    0.00137     0.40539
      H   30    0.09970      0.00000     0.39933    0.00097     0.40030
      H   31    0.09620      0.00000     0.40180    0.00200     0.40380
      H   32    0.08026      0.00000     0.41772    0.00203     0.41974
      H   33    0.10414      0.00000     0.39483    0.00103     0.39586
      H   34    0.09784      0.00000     0.40041    0.00175     0.40216
      H   35    0.09686      0.00000     0.40196    0.00119     0.40314
      H   36    0.09722      0.00000     0.40169    0.00109     0.40278
      H   37    0.09571      0.00000     0.40306    0.00124     0.40429
      H   38    0.09992      0.00000     0.39914    0.00094     0.40008
      H   39    0.09016      0.00000     0.40847    0.00137     0.40984
      H   40    0.09154      0.00000     0.40676    0.00170     0.40846
      H   41    0.22841      0.00000     0.26751    0.00408     0.27159
 =======================================================================
   * Total *   -0.00000     17.99240    48.80023    0.20737    67.00000

 Normal termination of Gaussian 16 at Sat Dec 12 00:07:49 2020.
