 Gaussian 16, Revision A.03,

 -----------------------------------------------------------
 # opt freq B3LYP/6-31G(d) empiricaldispersion=gd3bj scf=xqc
 -----------------------------------------------------------

 --------------------------------
 CID_110488448_JID_10678_neutraal
 --------------------------------
 Symbolic Z-matrix:
 Charge =  0 Multiplicity = 1

 SCF Done:  E(RB3LYP) =  -931.331368970     A.U. after   15 cycles
 SCF Done:  E(RB3LYP) =  -931.336355729     A.U. after   13 cycles
 SCF Done:  E(RB3LYP) =  -931.336460902     A.U. after   12 cycles
 SCF Done:  E(RB3LYP) =  -931.336936420     A.U. after   12 cycles
 SCF Done:  E(RB3LYP) =  -931.336959354     A.U. after   12 cycles
 SCF Done:  E(RB3LYP) =  -931.337099652     A.U. after   11 cycles
 SCF Done:  E(RB3LYP) =  -931.337183417     A.U. after   12 cycles
 SCF Done:  E(RB3LYP) =  -931.337251725     A.U. after   11 cycles
 SCF Done:  E(RB3LYP) =  -931.337314097     A.U. after   12 cycles
 SCF Done:  E(RB3LYP) =  -931.337318961     A.U. after   10 cycles
 SCF Done:  E(RB3LYP) =  -931.337513885     A.U. after   12 cycles
 SCF Done:  E(RB3LYP) =  -931.337514350     A.U. after    8 cycles
 SCF Done:  E(RB3LYP) =  -931.337514685     A.U. after   10 cycles
 SCF Done:  E(RB3LYP) =  -931.337514718     A.U. after    7 cycles
 SCF Done:  E(RB3LYP) =  -931.337514730     A.U. after    7 cycles
 Optimization completed.
    -- Stationary point found.
 Normal termination of Gaussian 16 at Sat Dec 12 16:35:05 2020.

 --------------------------------------------------------------------
 #N Geom=AllCheck Guess=TCheck SCRF=Check GenChk RB3LYP/6-31G(d) Freq
 --------------------------------------------------------------------

 Structure from the checkpoint file:  "JID_10678.chk"
 --------------------------------
 CID_110488448_JID_10678_neutraal
 --------------------------------
 Charge =  0 Multiplicity = 1

 SCF Done:  E(RB3LYP) =  -931.337514730     A.U. after    1 cycles

  Exact polarizability: 223.032  -8.626 167.696  23.152  17.530 123.537
 Approx polarizability: 302.786 -19.018 297.001  39.583  43.386 218.500

                      1                      2                      3
                      A                      A                      A
 Frequencies --     13.8721                22.8948                37.5518
 Red. masses --      5.6922                 6.5773                 6.1535
 Frc consts  --      0.0006                 0.0020                 0.0051
 IR Inten    --      0.6106                 0.0826                 3.5813

                      4                      5                      6
                      A                      A                      A
 Frequencies --     54.2737                72.9908                77.9378
 Red. masses --      7.6145                 6.4915                 6.1874
 Frc consts  --      0.0132                 0.0204                 0.0221
 IR Inten    --      0.9530                 0.9646                 0.8741

                      7                      8                      9
                      A                      A                      A
 Frequencies --    104.4814               165.8128               173.1846
 Red. masses --      6.2875                 5.5170                 5.3514
 Frc consts  --      0.0404                 0.0894                 0.0946
 IR Inten    --      1.9814                 0.8401                 3.5104

                     10                     11                     12
                      A                      A                      A
 Frequencies --    208.6013               226.3337               243.2425
 Red. masses --      5.6683                 3.3794                 4.7313
 Frc consts  --      0.1453                 0.1020                 0.1649
 IR Inten    --      1.3506                 2.3775                 1.1121

                     13                     14                     15
                      A                      A                      A
 Frequencies --    300.1069               311.4551               341.8468
 Red. masses --      1.0601                 5.2280                 3.7217
 Frc consts  --      0.0563                 0.2988                 0.2562
 IR Inten    --     17.4669                 1.1395                 2.8119

                     16                     17                     18
                      A                      A                      A
 Frequencies --    358.9311               394.6007               404.6640
 Red. masses --      4.4608                 3.8290                 4.0187
 Frc consts  --      0.3386                 0.3513                 0.3877
 IR Inten    --      3.9977                 2.7632                 4.6930

                     19                     20                     21
                      A                      A                      A
 Frequencies --    417.0836               442.1538               502.0988
 Red. masses --      2.9955                 3.8365                 4.0575
 Frc consts  --      0.3070                 0.4419                 0.6027
 IR Inten    --      0.5192                 3.6206                28.0748

                     22                     23                     24
                      A                      A                      A
 Frequencies --    505.0429               515.7283               553.0467
 Red. masses --      4.3858                 3.7434                 5.6187
 Frc consts  --      0.6591                 0.5866                 1.0125
 IR Inten    --      5.4174                19.5165                 2.9569

                     25                     26                     27
                      A                      A                      A
 Frequencies --    585.3928               606.4606               608.1504
 Red. masses --      2.3609                 1.6727                 2.4663
 Frc consts  --      0.4767                 0.3625                 0.5374
 IR Inten    --    152.8351                36.7875               113.1014

                     28                     29                     30
                      A                      A                      A
 Frequencies --    621.1153               635.0998               654.8249
 Red. masses --      2.6713                 2.6232                 6.3741
 Frc consts  --      0.6072                 0.6234                 1.6103
 IR Inten    --    148.2884                15.7181                 3.2675

                     31                     32                     33
                      A                      A                      A
 Frequencies --    706.0767               716.7372               723.1539
 Red. masses --      3.2226                 4.0335                 3.6664
 Frc consts  --      0.9466                 1.2208                 1.1297
 IR Inten    --      1.7780                23.6871                49.8068

                     34                     35                     36
                      A                      A                      A
 Frequencies --    736.0984               752.3196               787.3054
 Red. masses --      2.4581                 2.6224                 4.0636
 Frc consts  --      0.7847                 0.8745                 1.4840
 IR Inten    --     49.0097                47.7642                15.0203

                     37                     38                     39
                      A                      A                      A
 Frequencies --    799.5248               845.9237               867.0877
 Red. masses --      3.2754                 3.9858                 1.2457
 Frc consts  --      1.2336                 1.6805                 0.5518
 IR Inten    --    101.4796                 7.4837                 0.1980

                     40                     41                     42
                      A                      A                      A
 Frequencies --    880.6933               889.8310               919.5927
 Red. masses --      1.9628                 1.6878                 1.3914
 Frc consts  --      0.8970                 0.7874                 0.6932
 IR Inten    --     14.5841                29.0543                 4.2413

                     43                     44                     45
                      A                      A                      A
 Frequencies --    936.2809               942.2753               980.1602
 Red. masses --      1.8909                 2.0149                 2.3718
 Frc consts  --      0.9766                 1.0540                 1.3425
 IR Inten    --     19.7796                 8.0647                 5.6740

                     46                     47                     48
                      A                      A                      A
 Frequencies --    985.3852               994.1608              1039.4225
 Red. masses --      1.3485                 1.3349                 4.8451
 Frc consts  --      0.7714                 0.7773                 3.0842
 IR Inten    --      0.1454                 0.1391                18.7791

                     49                     50                     51
                      A                      A                      A
 Frequencies --   1042.8728              1100.1912              1117.1064
 Red. masses --      3.1303                 2.4976                 1.5549
 Frc consts  --      2.0058                 1.7812                 1.1432
 IR Inten    --      7.7405                10.4573                 4.5219

                     52                     53                     54
                      A                      A                      A
 Frequencies --   1124.4538              1149.8918              1159.9936
 Red. masses --      4.0612                 1.4885                 2.2777
 Frc consts  --      3.0255                 1.1596                 1.8058
 IR Inten    --    121.0512                 6.8333                31.8153

                     55                     56                     57
                      A                      A                      A
 Frequencies --   1206.3764              1215.0439              1231.6486
 Red. masses --      1.3746                 1.6903                 1.4294
 Frc consts  --      1.1787                 1.4703                 1.2775
 IR Inten    --    184.8629                16.2105                83.6809

                     58                     59                     60
                      A                      A                      A
 Frequencies --   1233.8908              1253.6626              1320.4758
 Red. masses --      2.9106                 1.5035                 1.9762
 Frc consts  --      2.6109                 1.3923                 2.0302
 IR Inten    --      2.5651                77.5785                34.3031

                     61                     62                     63
                      A                      A                      A
 Frequencies --   1325.2448              1352.0450              1368.5000
 Red. masses --      5.4860                 1.3485                 1.6841
 Frc consts  --      5.6767                 1.4523                 1.8582
 IR Inten    --     16.8733                 3.5774                32.0889

                     64                     65                     66
                      A                      A                      A
 Frequencies --   1371.3128              1380.4187              1399.4580
 Red. masses --      2.5287                 2.0559                 2.8185
 Frc consts  --      2.8016                 2.3082                 3.2523
 IR Inten    --     15.5694               188.4614               119.7006

                     67                     68                     69
                      A                      A                      A
 Frequencies --   1416.0139              1465.9656              1486.9785
 Red. masses --      1.9983                 2.6199                 1.9685
 Frc consts  --      2.3607                 3.3172                 2.5645
 IR Inten    --    129.0576                18.6105                60.2122

                     70                     71                     72
                      A                      A                      A
 Frequencies --   1492.6032              1516.3121              1518.6483
 Red. masses --      2.0789                 2.8419                 1.1356
 Frc consts  --      2.7288                 3.8498                 1.5431
 IR Inten    --     24.0311                 9.0805                14.2820

                     73                     74                     75
                      A                      A                      A
 Frequencies --   1562.0223              1622.1929              1633.7092
 Red. masses --      2.4465                 5.3000                 6.6104
 Frc consts  --      3.5170                 8.2173                10.3950
 IR Inten    --      4.3419                35.7137                 7.1553

                     76                     77                     78
                      A                      A                      A
 Frequencies --   1654.8029              1673.9808              1694.9401
 Red. masses --      4.5247                 5.7498                 1.2146
 Frc consts  --      7.3001                 9.4931                 2.0559
 IR Inten    --     30.8053                39.4232               110.1660

                     79                     80                     81
                      A                      A                      A
 Frequencies --   1775.1522              1822.5246              3077.6732
 Red. masses --      8.6027                 9.8230                 1.0684
 Frc consts  --     15.9718                19.2239                 5.9627
 IR Inten    --    303.9031               327.0915                30.4450

                     82                     83                     84
                      A                      A                      A
 Frequencies --   3150.2701              3150.4083              3184.5465
 Red. masses --      1.0921                 1.0938                 1.0896
 Frc consts  --      6.3857                 6.3962                 6.5105
 IR Inten    --     37.5248                 5.2085                13.5025

                     85                     86                     87
                      A                      A                      A
 Frequencies --   3186.7480              3196.9475              3204.9738
 Red. masses --      1.0906                 1.0898                 1.0911
 Frc consts  --      6.5254                 6.5625                 6.6036
 IR Inten    --      6.6754                 3.0591                 3.7944

                     88                     89                     90
                      A                      A                      A
 Frequencies --   3228.8759              3236.1122              3550.8110
 Red. masses --      1.0924                 1.0927                 1.0748
 Frc consts  --      6.7102                 6.7420                 7.9842
 IR Inten    --      2.3286                 1.0166                16.6813

                     91                     92                     93
                      A                      A                      A
 Frequencies --   3555.0554              3653.3438              3701.1014
 Red. masses --      1.0478                 1.0987                 1.0642
 Frc consts  --      7.8020                 8.6399                 8.5886
 IR Inten    --     22.2481                12.4685                80.8218

 - Thermochemistry -
 -------------------
 Temperature   298.150 Kelvin.  Pressure   1.00000 Atm.
 Atom     1 has atomic number  6 and mass  12.00000

 Molecular mass:   271.09569 amu.
 Principal axes and moments of inertia in atomic units:
                           1         2         3
     Eigenvalues --  2689.57723********************
           X            0.99996  -0.00160   0.00850
           Y            0.00113   0.99846   0.05541
           Z           -0.00857  -0.05539   0.99843
 This molecule is an asymmetric top.
 Rotational symmetry number  1.
 Warning -- assumption of classical behavior for rotation
           may cause significant error
 Rotational temperatures (Kelvin)      0.03220     0.00716     0.00683
 Rotational constants (GHZ):           0.67101     0.14911     0.14222
 Zero-point vibrational energy     678440.0 (Joules/Mol)
                                  162.15105 (Kcal/Mol)
 Warning -- explicit consideration of  27 degrees of freedom as
           vibrations may cause significant error
 Vibrational temperatures:     19.96    32.94    54.03    78.09   105.02
          (Kelvin)            112.14   150.33   238.57   249.17   300.13
                              325.64   349.97   431.79   448.11   491.84
                              516.42   567.74   582.22   600.09   636.16
                              722.41   726.64   742.02   795.71   842.25
                              872.56   874.99   893.65   913.77   942.15
                             1015.89  1031.23  1040.46  1059.08  1082.42
                             1132.76  1150.34  1217.10  1247.55  1267.12
                             1280.27  1323.09  1347.10  1355.72  1410.23
                             1417.75  1430.38  1495.50  1500.46  1582.93
                             1607.27  1617.84  1654.44  1668.97  1735.71
                             1748.18  1772.07  1775.29  1803.74  1899.87
                             1906.73  1945.29  1968.97  1973.01  1986.11
                             2013.51  2037.33  2109.20  2139.43  2147.52
                             2181.63  2185.00  2247.40  2333.97  2350.54
                             2380.89  2408.48  2438.64  2554.05  2622.21
                             4428.09  4532.54  4532.73  4581.85  4585.02
                             4599.69  4611.24  4645.63  4656.04  5108.83
                             5114.93  5256.35  5325.06

 Zero-point correction=                           0.258404 (Hartree/Particle)
 Thermal correction to Energy=                    0.275819
 Thermal correction to Enthalpy=                  0.276763
 Thermal correction to Gibbs Free Energy=         0.209976
 Sum of electronic and zero-point Energies=           -931.079111
 Sum of electronic and thermal Energies=              -931.061696
 Sum of electronic and thermal Enthalpies=            -931.060752
 Sum of electronic and thermal Free Energies=         -931.127539

                     E (Thermal)             CV                S
                      KCal/Mol        Cal/Mol-Kelvin    Cal/Mol-Kelvin
 Total                  173.079             66.425            140.565
 Electronic               0.000              0.000              0.000
 Translational            0.889              2.981             42.691
 Rotational               0.889              2.981             34.379
 Vibrational            171.301             60.463             63.496
 Vibration     1          0.593              1.986              7.361
 Vibration     2          0.593              1.985              6.366
 Vibration     3          0.594              1.982              5.384
 Vibration     4          0.596              1.976              4.655
 Vibration     5          0.599              1.967              4.071
 Vibration     6          0.599              1.964              3.942
 Vibration     7          0.605              1.946              3.369
 Vibration     8          0.624              1.884              2.482
 Vibration     9          0.627              1.875              2.401
 Vibration    10          0.642              1.828              2.056
 Vibration    11          0.650              1.801              1.908
 Vibration    12          0.659              1.774              1.779
 Vibration    13          0.693              1.673              1.416
 Vibration    14          0.700              1.652              1.355
 Vibration    15          0.721              1.592              1.204
 Vibration    16          0.734              1.557              1.127
 Vibration    17          0.762              1.482              0.983
 Vibration    18          0.770              1.460              0.946
 Vibration    19          0.780              1.433              0.902
 Vibration    20          0.802              1.378              0.820
 Vibration    21          0.857              1.245              0.653
 Vibration    22          0.860              1.239              0.646
 Vibration    23          0.871              1.215              0.620
 Vibration    24          0.908              1.133              0.538
 Vibration    25          0.942              1.063              0.475
 Vibration    26          0.965              1.018              0.439
 Vibration    27          0.967              1.015              0.436

 Optimization completed.
    -- Stationary point found.
 Normal termination of Gaussian 16 at Sat Dec 12 16:49:25 2020.

 ----------------------------------------------------------------------
 # B3LYP/6-311++G(d,p) empiricaldispersion=gd3bj scf=xqc pop=npa geom=c
 heck
 ----------------------------------------------------------------------

 ----------------------------------------
 CID_110488448_JID_10678_Energie_neutraal
 ----------------------------------------
 Structure from the checkpoint file:  "JID_10678.chk"
 Charge =  0 Multiplicity = 1

 SCF Done:  E(RB3LYP) =  -931.609081254     A.U. after   16 cycles
 Normal termination of Gaussian 16 at Sat Dec 12 16:54:52 2020.

 ----------------------------------------------------------------------
 # B3LYP/6-311++G(d,p) empiricaldispersion=gd3bj scf=xqc pop=npa geom=c
 heck
 ----------------------------------------------------------------------

 --------------------------------------
 CID_110488448_JID_10678_Energie_kation
 --------------------------------------
 Structure from the checkpoint file:  "JID_10678.chk"
 Charge =  1 Multiplicity = 2

 SCF Done:  E(UB3LYP) =  -931.305282218     A.U. after   33 cycles
 SCF Done:  E(UB3LYP) =  -931.305282218     a.u. after    1 cycles
 Normal termination of Gaussian 16 at Sat Dec 12 17:09:57 2020.
 Gaussian 16:  ES64L-G16RevA.03 25-Dec-2016

 ----------------------------------------------------------------------
 # B3LYP/6-311++G(d,p) empiricaldispersion=gd3bj scf=xqc pop=npa geom=c
 heck
 ----------------------------------------------------------------------

 -------------------------------------
 CID_110488448_JID_10678_Energie_anion
 -------------------------------------
 Structure from the checkpoint file:  "JID_10678.chk"
 Charge = -1 Multiplicity = 2

                         Standard orientation:
 ---------------------------------------------------------------------
 Center     Atomic      Atomic             Coordinates (Angstroms)
 Number     Number       Type             X           Y           Z
 ---------------------------------------------------------------------
      1          6           0        2.193482   -1.738531   -0.814109
      2          6           0        3.435700   -1.125958   -0.679274
      3          6           0        3.516480    0.202320   -0.248600
      4          6           0        2.343024    0.911947    0.043992
      5          6           0        1.106149    0.293052   -0.093431
      6          6           0        1.018064   -1.038293   -0.523482
      7          6           0       -0.333915   -1.713479   -0.636686
      8          7           0       -0.935633   -2.001962    0.670488
      9          6           0       -1.656374   -1.102878    1.433877
     10          8           0       -1.630421   -1.141407    2.657104
     11          6           0       -2.517267   -0.113363    0.709012
     12          6           0       -3.322527   -0.465302   -0.374680
     13          6           0       -4.140094    0.507349   -0.963222
     14          6           0       -4.081696    1.806297   -0.421689
     15          7           0       -3.319881    2.148524    0.615728
     16          6           0       -2.561963    1.203429    1.180834
     17          7           0       -4.934159    0.227247   -2.070693
     18          6           0        4.864043    0.811107   -0.120668
     19          8           0        5.910293    0.242520   -0.362015
     20          8           0        4.825392    2.100330    0.303019
     21          1           0        2.133861   -2.770794   -1.150388
     22          1           0        4.354059   -1.658257   -0.902001
     23          1           0        2.407167    1.942319    0.373920
     24          1           0        0.199015    0.846529    0.133121
     25          1           0       -1.024195   -1.081065   -1.196412
     26          1           0       -0.238632   -2.656982   -1.184119
     27          1           0       -0.361961   -2.586096    1.272356
     28          1           0       -3.330478   -1.487620   -0.744410
     29          1           0       -4.693703    2.596514   -0.857565
     30          1           0       -1.965282    1.490343    2.042034
     31          1           0       -5.710310    0.861276   -2.214135
     32          1           0       -5.217837   -0.739623   -2.167456
     33          1           0        5.755263    2.389067    0.350275
 ---------------------------------------------------------------------

 SCF Done:  E(UB3LYP) =  -931.631817206     A.U. after   25 cycles

 The electronic state is 2-A.
 Alpha  occ. eigenvalues --  -19.04964 -18.97893 -18.96934 -14.23878 -14.21998
 Alpha  occ. eigenvalues --  -14.19432 -10.16579 -10.15117 -10.11823 -10.10023
 Alpha  occ. eigenvalues --  -10.08728 -10.08611 -10.07172 -10.06983 -10.05653
 Alpha  occ. eigenvalues --  -10.05446 -10.05443 -10.05216 -10.05105 -10.05048
 Alpha  occ. eigenvalues --   -0.98617  -0.92207  -0.89220  -0.84579  -0.81631
 Alpha  occ. eigenvalues --   -0.80874  -0.73947  -0.69187  -0.65933  -0.64308
 Alpha  occ. eigenvalues --   -0.62914  -0.59070  -0.54910  -0.52641  -0.52422
 Alpha  occ. eigenvalues --   -0.49399  -0.47405  -0.46155  -0.43614  -0.41660
 Alpha  occ. eigenvalues --   -0.40891  -0.39352  -0.37495  -0.37406  -0.36119
 Alpha  occ. eigenvalues --   -0.35832  -0.34987  -0.33349  -0.33158  -0.32260
 Alpha  occ. eigenvalues --   -0.31019  -0.30527  -0.30302  -0.29802  -0.28841
 Alpha  occ. eigenvalues --   -0.27904  -0.27299  -0.27030  -0.24955  -0.24330
 Alpha  occ. eigenvalues --   -0.23860  -0.22380  -0.20848  -0.17638  -0.16069
 Alpha  occ. eigenvalues --   -0.15897  -0.15068  -0.14227  -0.13776  -0.13235
 Alpha  occ. eigenvalues --   -0.12017   0.02723
 Alpha virt. eigenvalues --    0.05373   0.05603   0.07955   0.08172   0.08706
 Alpha virt. eigenvalues --    0.09093   0.10000   0.10081   0.10894   0.11126
 Alpha virt. eigenvalues --    0.11594   0.12627   0.13013   0.13343   0.13654

  Beta  occ. eigenvalues --  -19.04915 -18.97699 -18.96770 -14.23883 -14.21986
  Beta  occ. eigenvalues --  -14.19312 -10.16396 -10.15017 -10.11872 -10.10033
  Beta  occ. eigenvalues --  -10.08641 -10.08569 -10.07015 -10.06874 -10.05692
  Beta  occ. eigenvalues --  -10.05381 -10.05184 -10.05085 -10.05053 -10.04982
  Beta  occ. eigenvalues --   -0.98407  -0.91929  -0.88928  -0.84483  -0.81495
  Beta  occ. eigenvalues --   -0.80759  -0.73682  -0.68878  -0.65539  -0.64121
  Beta  occ. eigenvalues --   -0.62703  -0.58822  -0.54554  -0.52517  -0.52146
  Beta  occ. eigenvalues --   -0.49291  -0.47272  -0.45884  -0.43539  -0.41551
  Beta  occ. eigenvalues --   -0.40773  -0.39223  -0.37318  -0.37182  -0.35954
  Beta  occ. eigenvalues --   -0.35674  -0.34827  -0.33203  -0.32267  -0.32076
  Beta  occ. eigenvalues --   -0.30792  -0.30365  -0.30044  -0.29671  -0.28655
  Beta  occ. eigenvalues --   -0.27779  -0.26907  -0.26859  -0.24592  -0.23896
  Beta  occ. eigenvalues --   -0.23556  -0.22285  -0.20030  -0.16798  -0.15761
  Beta  occ. eigenvalues --   -0.15563  -0.14752  -0.13643  -0.13460  -0.12289
  Beta  occ. eigenvalues --   -0.11577
  Beta virt. eigenvalues --    0.05543   0.06850   0.07632   0.08072   0.08246
  Beta virt. eigenvalues --    0.08706   0.09228   0.09987   0.10262   0.10899
  Beta virt. eigenvalues --    0.11152   0.11569   0.12612   0.13024   0.13473

 Mulliken charges and spin densities:
               1          2
     1  C   -0.388574  -0.021254
     2  C   -0.610159   0.123437
     3  C    0.633966   0.028215
     4  C   -0.495187   0.080962
     5  C   -0.659730   0.021270
     6  C    0.796391   0.147570
     7  C   -0.592491  -0.015214
     8  N   -0.047854  -0.005029
     9  C   -0.694880   0.051270
    10  O   -0.332231   0.053339
    11  C    0.721222   0.044398
    12  C    0.199757   0.202028
    13  C   -0.341160  -0.023629
    14  C   -0.219686   0.071998
    15  N   -0.011794   0.052043
    16  C   -0.680713  -0.012516
    17  N   -0.327048  -0.000757
    18  C    0.278498   0.116743
    19  O   -0.392878   0.069736
    20  O   -0.216532   0.010734
    21  H    0.106557   0.003923
    22  H    0.168484  -0.007643
    23  H    0.194141  -0.001649
    24  H    0.116272  -0.001258
    25  H    0.104278   0.028294
    26  H    0.161919  -0.000517
    27  H    0.277851  -0.002905
    28  H    0.197909  -0.015536
    29  H    0.114064  -0.008357
    30  H    0.209761   0.001697
    31  H    0.233319   0.008868
    32  H    0.223007   0.000388
    33  H    0.273524  -0.000649
 Sum of Mulliken charges =  -1.00000   1.00000

 Dipole moment (field-independent basis, Debye):
    X=             -4.9243    Y=             -1.7987    Z=             -3.9773  Tot=              6.5805
 Quadrupole moment (field-independent basis, Debye-Ang):
   XX=           -181.4198   YY=           -126.9845   ZZ=           -140.0098
   XY=             11.2098   XZ=             21.0301   YZ=              4.5030

 Summary of Natural Population Analysis:

                                       Natural Population
                Natural  -----------------------------------------------
    Atom  No    Charge         Core      Valence    Rydberg      Total
 -----------------------------------------------------------------------
      C    1   -0.11932      0.99953     2.11113    0.00866     3.11932
      C    2   -0.05510      0.99955     2.04643    0.00912     3.05510
      C    3   -0.06544      0.99945     2.05628    0.00971     3.06544
      C    4   -0.06751      0.99955     2.05917    0.00879     3.06751
      C    5   -0.10840      0.99952     2.10070    0.00817     3.10840
      C    6    0.02500      0.99950     1.96724    0.00825     2.97500
      C    7   -0.09564      0.99958     2.08580    0.01026     3.09564
      N    8   -0.32277      0.99968     2.81223    0.01085     3.82277
      C    9    0.34940      0.99963     1.62889    0.02208     2.65060
      O   10   -0.30332      0.99988     3.29715    0.00629     4.30332
      C   11   -0.05838      0.99946     2.04774    0.01117     3.05838
      C   12   -0.08024      0.99950     2.07293    0.00781     3.08024
      C   13    0.05322      0.99949     1.93780    0.00948     2.94678
      C   14    0.02835      0.99956     1.95768    0.01441     2.97165
      N   15   -0.21437      0.99971     2.70215    0.01251     3.71437
      C   16    0.01741      0.99955     1.96880    0.01424     2.98259
      N   17   -0.40073      0.99972     2.89175    0.00927     3.90073
      C   18    0.41789      0.99966     1.55790    0.02454     2.58211
      O   19   -0.31031      0.99987     3.30301    0.00743     4.31031
      O   20   -0.35036      0.99988     3.34470    0.00578     4.35036
      H   21    0.09206      0.00000     0.40684    0.00110     0.40794
      H   22    0.10462      0.00000     0.39429    0.00109     0.39538
      H   23    0.10403      0.00000     0.39488    0.00110     0.39597
      H   24    0.10257      0.00000     0.39592    0.00151     0.39743
      H   25    0.10937      0.00000     0.38942    0.00120     0.39063
      H   26    0.09059      0.00000     0.40825    0.00116     0.40941
      H   27    0.18810      0.00000     0.31019    0.00171     0.31190
      H   28    0.09802      0.00000     0.40052    0.00145     0.40198
      H   29    0.07845      0.00000     0.41999    0.00156     0.42155
      H   30    0.09633      0.00000     0.40235    0.00132     0.40367
      H   31    0.18182      0.00000     0.31675    0.00144     0.31818
      H   32    0.18169      0.00000     0.31682    0.00150     0.31831
      H   33    0.23295      0.00000     0.26399    0.00306     0.26705
 =======================================================================
   * Total *   -0.00000     19.99228    50.76968    0.23804    71.00000

 Normal termination of Gaussian 16 at Sat Dec 12 17:21:21 2020.
