 Gaussian 16, Revision A.03,

 -----------------------------------------------------------
 # opt freq B3LYP/6-31G(d) empiricaldispersion=gd3bj scf=xqc
 -----------------------------------------------------------

 -------------------------------
 CID_116248238_JID_3241_neutraal
 -------------------------------
 Symbolic Z-matrix:
 Charge =  0 Multiplicity = 1

 SCF Done:  E(RB3LYP) =  -919.484786948     A.U. after   14 cycles
 SCF Done:  E(RB3LYP) =  -919.489591753     A.U. after   12 cycles
 SCF Done:  E(RB3LYP) =  -919.490890827     A.U. after   13 cycles
 SCF Done:  E(RB3LYP) =  -919.492026239     A.U. after   14 cycles
 SCF Done:  E(RB3LYP) =  -919.489904122     A.U. after   14 cycles
 SCF Done:  E(RB3LYP) =  -919.493132442     A.U. after   13 cycles
 SCF Done:  E(RB3LYP) =  -919.493584969     A.U. after   12 cycles
 SCF Done:  E(RB3LYP) =  -919.493892766     A.U. after   12 cycles
 SCF Done:  E(RB3LYP) =  -919.494232952     A.U. after   12 cycles
 SCF Done:  E(RB3LYP) =  -919.493674913     A.U. after   15 cycles
 SCF Done:  E(RB3LYP) =  -919.496278553     A.U. after   11 cycles
 SCF Done:  E(RB3LYP) =  -919.496279058     A.U. after   10 cycles
 SCF Done:  E(RB3LYP) =  -919.496279211     A.U. after    8 cycles
 SCF Done:  E(RB3LYP) =  -919.496279281     A.U. after    7 cycles
 Optimization completed.
    -- Stationary point found.
 Normal termination of Gaussian 16 at Wed Dec  9 22:38:45 2020.

 --------------------------------------------------------------------
 #N Geom=AllCheck Guess=TCheck SCRF=Check GenChk RB3LYP/6-31G(d) Freq
 --------------------------------------------------------------------

 Structure from the checkpoint file:  "JID_3241.chk"
 -------------------------------
 CID_116248238_JID_3241_neutraal
 -------------------------------
 Charge =  0 Multiplicity = 1

 SCF Done:  E(RB3LYP) =  -919.496279281     A.U. after    1 cycles

  Exact polarizability: 137.875 -17.207 124.315  -9.734  -5.990 121.338
 Approx polarizability: 185.307 -30.942 180.150 -21.422 -14.304 208.867

                      1                      2                      3
                      A                      A                      A
 Frequencies --     16.7674                44.3059                48.2841
 Red. masses --      3.3866                 3.8219                 4.1108
 Frc consts  --      0.0006                 0.0044                 0.0056
 IR Inten    --      0.8376                 0.0603                 0.3494

                      4                      5                      6
                      A                      A                      A
 Frequencies --     81.1318               117.5346               156.1288
 Red. masses --      3.4223                 2.9974                 2.2690
 Frc consts  --      0.0133                 0.0244                 0.0326
 IR Inten    --      0.2844                 1.6307                 4.5236

                      7                      8                      9
                      A                      A                      A
 Frequencies --    179.7261               236.7518               255.5410
 Red. masses --      2.9896                 1.5209                 1.5412
 Frc consts  --      0.0569                 0.0502                 0.0593
 IR Inten    --      3.7269                 0.3973                 0.0675

                     10                     11                     12
                      A                      A                      A
 Frequencies --    263.3806               267.0953               299.8156
 Red. masses --      2.1414                 2.7754                 2.6374
 Frc consts  --      0.0875                 0.1167                 0.1397
 IR Inten    --      0.6023                 0.3685                 5.4631

                     13                     14                     15
                      A                      A                      A
 Frequencies --    333.9673               337.7928               365.9457
 Red. masses --      1.2338                 2.4025                 2.0888
 Frc consts  --      0.0811                 0.1615                 0.1648
 IR Inten    --     38.9778                 1.6636                 7.2138

                     16                     17                     18
                      A                      A                      A
 Frequencies --    416.5086               430.6200               479.1123
 Red. masses --      2.2913                 2.5003                 3.8088
 Frc consts  --      0.2342                 0.2732                 0.5151
 IR Inten    --      2.4369                 4.6057                 6.3387

                     19                     20                     21
                      A                      A                      A
 Frequencies --    483.3502               570.9318               581.7042
 Red. masses --      3.2530                 3.1962                 3.3980
 Frc consts  --      0.4478                 0.6138                 0.6775
 IR Inten    --      1.4885                 7.0352                 0.6080

                     22                     23                     24
                      A                      A                      A
 Frequencies --    647.8547               682.3519               707.4210
 Red. masses --      5.4484                 4.7950                 1.1959
 Frc consts  --      1.3473                 1.3154                 0.3526
 IR Inten    --      2.7763                 7.1618                56.4878

                     25                     26                     27
                      A                      A                      A
 Frequencies --    753.6406               795.9181               814.0534
 Red. masses --      6.1988                 2.7719                 1.1635
 Frc consts  --      2.0744                 1.0346                 0.4543
 IR Inten    --      2.6290                 5.4239                 1.4145

                     28                     29                     30
                      A                      A                      A
 Frequencies --    834.4929               862.3794               894.1740
 Red. masses --      1.3873                 4.0372                 2.3357
 Frc consts  --      0.5692                 1.7690                 1.1003
 IR Inten    --     11.2407                 4.9968                20.1008

                     31                     32                     33
                      A                      A                      A
 Frequencies --    899.5164               906.9522               927.2549
 Red. masses --      1.5345                 1.5454                 1.7571
 Frc consts  --      0.7315                 0.7490                 0.8901
 IR Inten    --     21.3787                23.5436                26.9955

                     34                     35                     36
                      A                      A                      A
 Frequencies --    960.2846               962.0517              1005.3062
 Red. masses --      1.5668                 1.6110                 1.8281
 Frc consts  --      0.8513                 0.8785                 1.0886
 IR Inten    --      8.0280                 7.2368                 4.1496

                     37                     38                     39
                      A                      A                      A
 Frequencies --   1026.8137              1071.6419              1103.6211
 Red. masses --      2.9691                 1.6082                 2.1819
 Frc consts  --      1.8444                 1.0881                 1.5658
 IR Inten    --     16.5435                 2.8992                35.8289

                     40                     41                     42
                      A                      A                      A
 Frequencies --   1110.9842              1117.2279              1148.0017
 Red. masses --      1.4453                 1.4081                 2.3577
 Frc consts  --      1.0510                 1.0355                 1.8307
 IR Inten    --      9.2337                 2.3552                92.1785

                     43                     44                     45
                      A                      A                      A
 Frequencies --   1158.7369              1196.8302              1212.9893
 Red. masses --      2.1309                 2.7044                 2.0605
 Frc consts  --      1.6857                 2.2824                 1.7862
 IR Inten    --     67.2631                27.0074                58.0859

                     46                     47                     48
                      A                      A                      A
 Frequencies --   1218.9474              1261.1804              1279.8343
 Red. masses --      1.7099                 1.6323                 1.4022
 Frc consts  --      1.4969                 1.5297                 1.3532
 IR Inten    --      6.0605                 4.6627                13.9131

                     49                     50                     51
                      A                      A                      A
 Frequencies --   1327.5852              1338.6745              1358.8406
 Red. masses --      1.4001                 1.1831                 1.5769
 Frc consts  --      1.4539                 1.2491                 1.7155
 IR Inten    --     10.4673                 9.8740                 3.6164

                     52                     53                     54
                      A                      A                      A
 Frequencies --   1384.0210              1412.6153              1416.0623
 Red. masses --      1.4936                 2.0816                 1.2643
 Frc consts  --      1.6857                 2.4473                 1.4937
 IR Inten    --      4.2047                 0.2289                11.4917

                     55                     56                     57
                      A                      A                      A
 Frequencies --   1429.1625              1443.3478              1455.4662
 Red. masses --      1.3077                 1.2802                 1.4166
 Frc consts  --      1.5737                 1.5714                 1.7680
 IR Inten    --      4.3414                27.6655                 4.5842

                     58                     59                     60
                      A                      A                      A
 Frequencies --   1501.1608              1506.1472              1516.5877
 Red. masses --      1.1430                 4.9863                 1.0521
 Frc consts  --      1.5176                 6.6644                 1.4258
 IR Inten    --      4.6455                 5.1206                 7.1231

                     61                     62                     63
                      A                      A                      A
 Frequencies --   1520.4487              1521.6442              1533.7074
 Red. masses --      1.0530                 1.0556                 1.0760
 Frc consts  --      1.4342                 1.4401                 1.4912
 IR Inten    --      0.6902                 0.8782                 5.4139

                     64                     65                     66
                      A                      A                      A
 Frequencies --   1537.8456              1545.7037              1603.6886
 Red. masses --      1.0809                 1.0824                 5.3734
 Frc consts  --      1.5061                 1.5236                 8.1422
 IR Inten    --      0.7214                 4.5707                 0.9716

                     67                     68                     69
                      A                      A                      A
 Frequencies --   1682.6588              2999.1082              3009.8021
 Red. masses --      1.0931                 1.0682                 1.0699
 Frc consts  --      1.8234                 5.6607                 5.7104
 IR Inten    --     45.4134                20.1150                77.7309

                     70                     71                     72
                      A                      A                      A
 Frequencies --   3019.7506              3041.6525              3055.2965
 Red. masses --      1.0665                 1.0386                 1.0363
 Frc consts  --      5.7299                 5.6614                 5.6998
 IR Inten    --     28.1169                37.7895                10.5572

                     73                     74                     75
                      A                      A                      A
 Frequencies --   3076.5618              3089.5064              3094.4132
 Red. masses --      1.0946                 1.0960                 1.0920
 Frc consts  --      6.1045                 6.1637                 6.1609
 IR Inten    --     12.2938                33.3404                20.5018

                     76                     77                     78
                      A                      A                      A
 Frequencies --   3102.1959              3123.3694              3135.0647
 Red. masses --      1.1017                 1.1013                 1.1032
 Frc consts  --      6.2469                 6.3298                 6.3885
 IR Inten    --     42.3430                37.8675                39.5569

                     79                     80                     81
                      A                      A                      A
 Frequencies --   3139.6988              3203.5576              3221.9377
 Red. masses --      1.0997                 1.0893                 1.0936
 Frc consts  --      6.3872                 6.5869                 6.6890
 IR Inten    --     18.6812                10.2722                13.6722

                     82                     83                     84
                      A                      A                      A
 Frequencies --   3261.7362              3469.9060              3558.6601
 Red. masses --      1.0973                 1.0492                 1.0925
 Frc consts  --      6.8779                 7.4433                 8.1515
 IR Inten    --      3.8791                 5.1118                 2.6978

 - Thermochemistry -
 -------------------
 Temperature   298.150 Kelvin.  Pressure   1.00000 Atm.
 Atom     1 has atomic number  6 and mass  12.00000

 Molecular mass:   199.10309 amu.
 Principal axes and moments of inertia in atomic units:
                           1         2         3
     Eigenvalues --  1858.121403898.547514698.34730
           X            0.99991   0.01045  -0.00839
           Y           -0.01045   0.99995  -0.00026
           Z            0.00838   0.00035   0.99996
 This molecule is an asymmetric top.
 Rotational symmetry number  1.
 Warning -- assumption of classical behavior for rotation
           may cause significant error
 Rotational temperatures (Kelvin)      0.04661     0.02222     0.01843
 Rotational constants (GHZ):           0.97127     0.46293     0.38412
 Zero-point vibrational energy     682855.0 (Joules/Mol)
                                  163.20626 (Kcal/Mol)
 Warning -- explicit consideration of  21 degrees of freedom as
           vibrations may cause significant error
 Vibrational temperatures:     24.12    63.75    69.47   116.73   169.11
          (Kelvin)            224.63   258.59   340.63   367.67   378.95
                              384.29   431.37   480.50   486.01   526.51
                              599.26   619.57   689.34   695.43   821.44
                              836.94   932.12   981.75  1017.82  1084.32
                             1145.15  1171.24  1200.65  1240.77  1286.52
                             1294.20  1304.90  1334.11  1381.64  1384.18
                             1446.41  1477.36  1541.85  1587.86  1598.46
                             1607.44  1651.72  1667.16  1721.97  1745.22
                             1753.79  1814.56  1841.40  1910.10  1926.05
                             1955.07  1991.30  2032.44  2037.40  2056.25
                             2076.66  2094.09  2159.84  2167.01  2182.03
                             2187.59  2189.31  2206.66  2212.62  2223.92
                             2307.35  2420.97  4315.05  4330.43  4344.75
                             4376.26  4395.89  4426.49  4445.11  4452.17
                             4463.37  4493.83  4510.66  4517.33  4609.20
                             4635.65  4692.91  4992.42  5120.12

 Zero-point correction=                           0.260086 (Hartree/Particle)
 Thermal correction to Energy=                    0.274474
 Thermal correction to Enthalpy=                  0.275418
 Thermal correction to Gibbs Free Energy=         0.217371
 Sum of electronic and zero-point Energies=           -919.236194
 Sum of electronic and thermal Energies=              -919.221806
 Sum of electronic and thermal Enthalpies=            -919.220861
 Sum of electronic and thermal Free Energies=         -919.278908

                     E (Thermal)             CV                S
                      KCal/Mol        Cal/Mol-Kelvin    Cal/Mol-Kelvin
 Total                  172.235             54.026            122.170
 Electronic               0.000              0.000              0.000
 Translational            0.889              2.981             41.771
 Rotational               0.889              2.981             31.898
 Vibrational            170.457             48.065             48.501
 Vibration     1          0.593              1.986              6.984
 Vibration     2          0.595              1.980              5.057
 Vibration     3          0.595              1.978              4.886
 Vibration     4          0.600              1.962              3.863
 Vibration     5          0.608              1.935              3.141
 Vibration     6          0.620              1.896              2.596
 Vibration     7          0.629              1.867              2.331
 Vibration     8          0.656              1.784              1.827
 Vibration     9          0.666              1.753              1.692
 Vibration    10          0.670              1.740              1.639
 Vibration    11          0.672              1.734              1.615
 Vibration    12          0.692              1.674              1.418
 Vibration    13          0.715              1.608              1.241
 Vibration    14          0.718              1.600              1.223
 Vibration    15          0.739              1.542              1.097
 Vibration    16          0.780              1.434              0.904
 Vibration    17          0.792              1.404              0.857
 Vibration    18          0.836              1.296              0.712
 Vibration    19          0.840              1.287              0.701
 Vibration    20          0.927              1.094              0.502
 Vibration    21          0.938              1.071              0.482

                           ! Non-Optimized Parameters !
 Normal termination of Gaussian 16 at Wed Dec  9 22:47:22 2020.

 ----------------------------------------------------------------------
 # B3LYP/6-311++G(d,p) empiricaldispersion=gd3bj scf=xqc pop=npa geom=c
 heck
 ----------------------------------------------------------------------

 ---------------------------------------
 CID_116248238_JID_3241_Energie_neutraal
 ---------------------------------------
 Structure from the checkpoint file:  "JID_3241.chk"
 Charge =  0 Multiplicity = 1

 SCF Done:  E(RB3LYP) =  -919.676928849     A.U. after   15 cycles
 Normal termination of Gaussian 16 at Wed Dec  9 22:51:56 2020.

 ----------------------------------------------------------------------
 # B3LYP/6-311++G(d,p) empiricaldispersion=gd3bj scf=xqc pop=npa geom=c
 heck
 ----------------------------------------------------------------------

 -------------------------------------
 CID_116248238_JID_3241_Energie_kation
 -------------------------------------
 Structure from the checkpoint file:  "JID_3241.chk"
 Charge =  1 Multiplicity = 2

 SCF Done:  E(UB3LYP) =  -919.385187755     A.U. after   33 cycles
 SCF Done:  E(UB3LYP) =  -919.385187755     a.u. after    2 cycles
 Normal termination of Gaussian 16 at Wed Dec  9 23:14:52 2020.
 Gaussian 16:  ES64L-G16RevA.03 25-Dec-2016

 ----------------------------------------------------------------------
 # B3LYP/6-311++G(d,p) empiricaldispersion=gd3bj scf=xqc pop=npa geom=c
 heck
 ----------------------------------------------------------------------

 ------------------------------------
 CID_116248238_JID_3241_Energie_anion
 ------------------------------------
 Structure from the checkpoint file:  "JID_3241.chk"
 Charge = -1 Multiplicity = 2

                         Standard orientation:
 ---------------------------------------------------------------------
 Center     Atomic      Atomic             Coordinates (Angstroms)
 Number     Number       Type             X           Y           Z
 ---------------------------------------------------------------------
      1          6           0        2.484208    2.628050   -0.234009
      2          6           0        3.060325    1.521307    0.644904
      3          8           0        2.635911    0.223843    0.242586
      4          6           0        1.332934   -0.120089    0.692946
      5          6           0        0.849260   -1.329955   -0.111885
      6          6           0        1.784163   -2.529310    0.122010
      7          6           0       -0.587265   -1.705465    0.317815
      8          6           0       -1.593337   -0.592227    0.296571
      9          6           0       -2.440459   -0.240017    1.315829
     10          6           0       -3.329230    0.828532    0.984903
     11          6           0       -3.147638    1.275376   -0.293196
     12         16           0       -1.871841    0.417425   -1.107593
     13          7           0        0.799602   -0.915521   -1.522063
     14          1           0        2.774773    2.472151   -1.278135
     15          1           0        2.860953    3.605742    0.088314
     16          1           0        1.390831    2.655326   -0.187105
     17          1           0        4.152998    1.509093    0.570871
     18          1           0        2.802685    1.689192    1.702309
     19          1           0        1.354036   -0.365606    1.767028
     20          1           0        0.635126    0.710860    0.546389
     21          1           0        1.806231   -2.824684    1.178161
     22          1           0        1.448307   -3.395190   -0.462059
     23          1           0        2.804005   -2.277064   -0.181126
     24          1           0       -0.915172   -2.526886   -0.336068
     25          1           0       -0.565711   -2.114897    1.335105
     26          1           0       -2.433296   -0.744076    2.277285
     27          1           0       -4.061910    1.239960    1.670790
     28          1           0       -3.666445    2.079505   -0.798339
     29          1           0        1.679230   -0.456078   -1.751731
     30          1           0        0.720550   -1.735452   -2.121771
 ---------------------------------------------------------------------

 SCF Done:  E(UB3LYP) =  -919.661127720     A.U. after   33 cycles
 SCF Done:  E(UB3LYP) =  -919.661127720     a.u. after    1 cycles

 The electronic state is 2-A.
 Alpha  occ. eigenvalues --  -88.76798 -19.02677 -14.19000 -10.12086 -10.11125
 Alpha  occ. eigenvalues --  -10.11102 -10.10105 -10.09273 -10.07973 -10.07499
 Alpha  occ. eigenvalues --  -10.07009 -10.06580 -10.05525  -7.85356  -5.81640
 Alpha  occ. eigenvalues --   -5.81261  -5.80968  -0.93989  -0.79987  -0.77398
 Alpha  occ. eigenvalues --   -0.68214  -0.66249  -0.63133  -0.62936  -0.58772
 Alpha  occ. eigenvalues --   -0.57399  -0.51306  -0.47024  -0.45315  -0.43531
 Alpha  occ. eigenvalues --   -0.40976  -0.40163  -0.39482  -0.38190  -0.35213
 Alpha  occ. eigenvalues --   -0.33370  -0.32546  -0.31667  -0.31206  -0.29938
 Alpha  occ. eigenvalues --   -0.29255  -0.28830  -0.28333  -0.27417  -0.27033
 Alpha  occ. eigenvalues --   -0.26138  -0.24927  -0.23706  -0.23287  -0.21727
 Alpha  occ. eigenvalues --   -0.16627  -0.15368  -0.14190  -0.12911   0.04450
 Alpha virt. eigenvalues --    0.06420   0.06566   0.07386   0.07841   0.08586
 Alpha virt. eigenvalues --    0.08792   0.09204   0.09572   0.09946   0.11241
 Alpha virt. eigenvalues --    0.11540   0.12318   0.12477   0.12732   0.13059

  Beta  occ. eigenvalues --  -88.76793 -19.02666 -14.18976 -10.12064 -10.11116
  Beta  occ. eigenvalues --  -10.11091 -10.10101 -10.09262 -10.07952 -10.07493
  Beta  occ. eigenvalues --  -10.06993 -10.06556 -10.05493  -7.85350  -5.81635
  Beta  occ. eigenvalues --   -5.81257  -5.80961  -0.93972  -0.79953  -0.77376
  Beta  occ. eigenvalues --   -0.68174  -0.66214  -0.63098  -0.62907  -0.58722
  Beta  occ. eigenvalues --   -0.57357  -0.51234  -0.46981  -0.45278  -0.43489
  Beta  occ. eigenvalues --   -0.40942  -0.40122  -0.39452  -0.38150  -0.35183
  Beta  occ. eigenvalues --   -0.33328  -0.32504  -0.31642  -0.31176  -0.29907
  Beta  occ. eigenvalues --   -0.29223  -0.28796  -0.28292  -0.27380  -0.27000
  Beta  occ. eigenvalues --   -0.26107  -0.24899  -0.23684  -0.23258  -0.21690
  Beta  occ. eigenvalues --   -0.16593  -0.15341  -0.14159  -0.12877
  Beta virt. eigenvalues --    0.06498   0.07128   0.07261   0.07983   0.08225
  Beta virt. eigenvalues --    0.09028   0.09175   0.09802   0.10022   0.10336
  Beta virt. eigenvalues --    0.11706   0.11942   0.12621   0.12721   0.12911

 Mulliken charges and spin densities:
               1          2
     1  C    0.008542  -0.431116
     2  C    0.539451  -0.659574
     3  O   -0.138810   0.038804
     4  C   -0.608282  -0.503466
     5  C   -2.068509   2.685779
     6  C    2.499204  -2.769782
     7  C    3.822743  -5.176463
     8  C   -1.250510   1.826433
     9  C   -1.817470   2.189874
    10  C    1.083792  -1.730823
    11  C   -0.634819   0.601375
    12  S   -0.233142   0.155131
    13  N   -0.294586   0.032960
    14  H    0.025080   0.111436
    15  H   -0.259519   0.394589
    16  H   -0.155428   0.278600
    17  H   -0.311656   0.473829
    18  H   -0.079615   0.191411
    19  H   -0.346479   0.497899
    20  H    0.829741  -0.684756
    21  H   -0.174677   0.321343
    22  H   -0.369741   0.518659
    23  H    0.096978   0.066797
    24  H   -0.180821   0.376587
    25  H    0.091626   0.090031
    26  H   -0.793614   0.972642
    27  H   -0.219217   0.360427
    28  H   -0.163609   0.396233
    29  H    0.151704   0.081685
    30  H   -0.048358   0.293455
 Sum of Mulliken charges =  -1.00000   1.00000

 Dipole moment (field-independent basis, Debye):
    X=             -1.1918    Y=              1.6176    Z=             -2.2015  Tot=              2.9805
 Quadrupole moment (field-independent basis, Debye-Ang):
   XX=           -150.0747   YY=           -140.2944   ZZ=           -126.9064
   XY=             -4.9280   XZ=              2.4100   YZ=             -0.4986

 Summary of Natural Population Analysis:

                                       Natural Population
                Natural  -----------------------------------------------
    Atom  No    Charge         Core      Valence    Rydberg      Total
 -----------------------------------------------------------------------
      C    1   -0.29927      0.99966     2.29530    0.00431     3.29927
      C    2   -0.00630      0.99960     1.99514    0.01157     3.00630
      O    3   -0.30796      0.99988     3.29842    0.00966     4.30796
      C    4   -0.01294      0.99949     2.00031    0.01315     3.01294
      C    5    0.04699      0.99958     1.93810    0.01533     2.95301
      C    6   -0.29262      0.99962     2.28527    0.00773     3.29262
      C    7   -0.20691      0.99953     2.19400    0.01338     3.20691
      C    8   -0.09663      0.99949     2.08269    0.01445     3.09663
      C    9   -0.13095      0.99945     2.12021    0.01129     3.13095
      C   10   -0.12892      0.99953     2.11924    0.01015     3.12892
      C   11   -0.20325      0.99954     2.19237    0.01135     3.20325
      S   12    0.22343      4.99941     2.75671    0.02045     7.77657
      N   13   -0.42826      0.99975     2.91763    0.01089     3.92826
      H   14    0.09844      0.00000     0.40022    0.00134     0.40156
      H   15    0.09964      0.00000     0.39893    0.00143     0.40036
      H   16    0.10074      0.00000     0.39779    0.00147     0.39926
      H   17    0.08762      0.00000     0.41098    0.00140     0.41238
      H   18    0.07823      0.00000     0.42040    0.00137     0.42177
      H   19    0.08478      0.00000     0.41362    0.00160     0.41522
      H   20    0.09175      0.00000     0.40593    0.00232     0.40825
      H   21    0.10091      0.00000     0.39786    0.00124     0.39909
      H   22    0.09847      0.00000     0.39995    0.00158     0.40153
      H   23    0.10712      0.00000     0.39121    0.00167     0.39288
      H   24    0.10815      0.00000     0.39026    0.00159     0.39185
      H   25    0.11104      0.00000     0.38707    0.00190     0.38896
      H   26    0.10717      0.00000     0.39114    0.00169     0.39283
      H   27    0.10426      0.00000     0.39471    0.00104     0.39574
      H   28    0.10620      0.00000     0.39292    0.00088     0.39380
      H   29    0.18349      0.00000     0.31441    0.00210     0.31651
      H   30    0.17560      0.00000     0.32244    0.00195     0.32440
 =======================================================================
   * Total *    0.00000     16.99451    36.82522    0.18027    54.00000

 Normal termination of Gaussian 16 at Wed Dec  9 23:28:40 2020.
