 Gaussian 16, Revision A.03,

 -----------------------------------------------------------
 # opt freq B3LYP/6-31G(d) empiricaldispersion=gd3bj scf=xqc
 -----------------------------------------------------------

 ------------------------------
 CID_44578580_JID_7588_neutraal
 ------------------------------
 Symbolic Z-matrix:
 Charge =  0 Multiplicity = 1

 SCF Done:  E(RB3LYP) =  -843.058830953     A.U. after   14 cycles
 SCF Done:  E(RB3LYP) =  -843.063476284     A.U. after   13 cycles
 SCF Done:  E(RB3LYP) =  -843.061231470     A.U. after   13 cycles
 SCF Done:  E(RB3LYP) =  -843.064842784     A.U. after   13 cycles
 SCF Done:  E(RB3LYP) =  -843.065571158     A.U. after   13 cycles
 SCF Done:  E(RB3LYP) =  -843.066307995     A.U. after   12 cycles
 SCF Done:  E(RB3LYP) =  -843.066570775     A.U. after   12 cycles
 SCF Done:  E(RB3LYP) =  -843.066682505     A.U. after   11 cycles
 SCF Done:  E(RB3LYP) =  -843.066792583     A.U. after   12 cycles
 SCF Done:  E(RB3LYP) =  -843.066811205     A.U. after   12 cycles
 SCF Done:  E(RB3LYP) =  -843.064734739     A.U. after   13 cycles
 SCF Done:  E(RB3LYP) =  -843.067103823     A.U. after    9 cycles
 SCF Done:  E(RB3LYP) =  -843.067135912     A.U. after   10 cycles
 SCF Done:  E(RB3LYP) =  -843.067138364     A.U. after   10 cycles
 SCF Done:  E(RB3LYP) =  -843.067140487     A.U. after    9 cycles
 Optimization completed.
    -- Stationary point found.
 Normal termination of Gaussian 16 at Sun Dec 13 20:16:14 2020.

 --------------------------------------------------------------------
 #N Geom=AllCheck Guess=TCheck SCRF=Check GenChk RB3LYP/6-31G(d) Freq
 --------------------------------------------------------------------

 Structure from the checkpoint file:  "JID_7588.chk"
 ------------------------------
 CID_44578580_JID_7588_neutraal
 ------------------------------
 Charge =  0 Multiplicity = 1

 SCF Done:  E(RB3LYP) =  -843.067140487     A.U. after    1 cycles

  Exact polarizability: 193.795   7.945 155.993   3.415   9.473  85.964
 Approx polarizability: 273.745  14.449 241.692   4.837  18.954 131.524

                      1                      2                      3
                      A                      A                      A
 Frequencies --     39.0114                54.6108                61.4640
 Red. masses --      5.4412                 4.3179                 4.8274
 Frc consts  --      0.0049                 0.0076                 0.0107
 IR Inten    --      0.3627                 1.7210                 1.2476

                      4                      5                      6
                      A                      A                      A
 Frequencies --     83.1502                95.9337               114.0797
 Red. masses --      3.4865                 4.0117                 4.2695
 Frc consts  --      0.0142                 0.0218                 0.0327
 IR Inten    --      0.6460                 2.2541                 0.9913

                      7                      8                      9
                      A                      A                      A
 Frequencies --    123.5020               132.4712               149.7197
 Red. masses --      4.2342                 2.3867                 1.7943
 Frc consts  --      0.0381                 0.0247                 0.0237
 IR Inten    --      1.1673                 2.1320                 0.2680

                     10                     11                     12
                      A                      A                      A
 Frequencies --    157.6116               183.2094               241.9170
 Red. masses --      2.0739                 3.7150                 2.9759
 Frc consts  --      0.0304                 0.0735                 0.1026
 IR Inten    --      1.0541                 5.0210                 4.9384

                     13                     14                     15
                      A                      A                      A
 Frequencies --    248.1829               256.3087               298.8359
 Red. masses --      1.4040                 3.7403                 3.0977
 Frc consts  --      0.0510                 0.1448                 0.1630
 IR Inten    --      0.8812                 1.5458                 1.4950

                     16                     17                     18
                      A                      A                      A
 Frequencies --    310.4533               335.4293               361.0337
 Red. masses --      6.4607                 3.3208                 3.1761
 Frc consts  --      0.3669                 0.2201                 0.2439
 IR Inten    --      2.6479                 5.5145                12.4630

                     19                     20                     21
                      A                      A                      A
 Frequencies --    367.9193               384.4905               405.4855
 Red. masses --      4.0328                 1.3283                 3.8969
 Frc consts  --      0.3216                 0.1157                 0.3775
 IR Inten    --     22.3362               134.6871                24.5389

                     22                     23                     24
                      A                      A                      A
 Frequencies --    449.9253               463.3120               491.8635
 Red. masses --      3.6972                 1.2191                 2.5106
 Frc consts  --      0.4410                 0.1542                 0.3579
 IR Inten    --     10.1688               115.5856                19.0435

                     25                     26                     27
                      A                      A                      A
 Frequencies --    540.6590               566.1954               594.3303
 Red. masses --      3.3026                 3.8332                 3.6364
 Frc consts  --      0.5688                 0.7240                 0.7568
 IR Inten    --      0.8781                18.3735                 9.0602

                     28                     29                     30
                      A                      A                      A
 Frequencies --    626.7093               674.6829               699.8471
 Red. masses --      5.5558                 4.2796                 4.7217
 Frc consts  --      1.2857                 1.1478                 1.3625
 IR Inten    --     20.1934                 9.3831                 9.2779

                     31                     32                     33
                      A                      A                      A
 Frequencies --    750.8005               786.9705               813.1685
 Red. masses --      4.3126                 4.5521                 5.7079
 Frc consts  --      1.4323                 1.6610                 2.2238
 IR Inten    --     11.3842                17.0043                 5.7315

                     34                     35                     36
                      A                      A                      A
 Frequencies --    833.2453               838.8891               884.9703
 Red. masses --      1.7374                 2.8382                 2.6401
 Frc consts  --      0.7107                 1.1768                 1.2182
 IR Inten    --     13.4494                 3.3949                 3.3582

                     37                     38                     39
                      A                      A                      A
 Frequencies --    923.6224               953.2776               960.9408
 Red. masses --      3.3161                 1.5632                 1.4971
 Frc consts  --      1.6667                 0.8369                 0.8145
 IR Inten    --      3.9765                15.3565                15.0351

                     40                     41                     42
                      A                      A                      A
 Frequencies --   1009.4133              1029.4388              1062.7163
 Red. masses --      2.1352                 4.5692                 5.4992
 Frc consts  --      1.2818                 2.8529                 3.6592
 IR Inten    --     10.1606                24.2269                85.4474

                     43                     44                     45
                      A                      A                      A
 Frequencies --   1068.3115              1092.6061              1123.5198
 Red. masses --      3.4806                 2.9705                 4.0393
 Frc consts  --      2.3405                 2.0893                 3.0042
 IR Inten    --     82.8916                48.1075               104.0851

                     46                     47                     48
                      A                      A                      A
 Frequencies --   1174.6308              1185.7382              1186.4504
 Red. masses --      2.8192                 1.2724                 1.2761
 Frc consts  --      2.2918                 1.0540                 1.0584
 IR Inten    --    177.6678                 1.1486                 2.6691

                     49                     50                     51
                      A                      A                      A
 Frequencies --   1201.6518              1204.6484              1213.5319
 Red. masses --      1.2627                 1.6894                 1.3988
 Frc consts  --      1.0742                 1.4444                 1.2137
 IR Inten    --     56.6550                 5.3323                71.5878

                     52                     53                     54
                      A                      A                      A
 Frequencies --   1222.0631              1235.6030              1240.2139
 Red. masses --      1.6603                 1.4307                 1.6154
 Frc consts  --      1.4609                 1.2870                 1.4640
 IR Inten    --    113.7651                68.7092                15.1469

                     55                     56                     57
                      A                      A                      A
 Frequencies --   1280.3772              1295.7351              1313.1932
 Red. masses --      1.5271                 5.2563                 2.5329
 Frc consts  --      1.4750                 5.1995                 2.5735
 IR Inten    --     26.0191               598.6382                60.4900

                     58                     59                     60
                      A                      A                      A
 Frequencies --   1368.3487              1371.9211              1399.2471
 Red. masses --      2.7784                 1.8020                 1.2344
 Frc consts  --      3.0650                 1.9983                 1.4239
 IR Inten    --      6.3599                 4.0423                 2.6553

                     61                     62                     63
                      A                      A                      A
 Frequencies --   1404.2190              1428.0404              1442.3794
 Red. masses --      1.2540                 1.2321                 1.2572
 Frc consts  --      1.4569                 1.4804                 1.5411
 IR Inten    --      5.3136                45.6126                71.3372

                     64                     65                     66
                      A                      A                      A
 Frequencies --   1469.6477              1491.1372              1496.0283
 Red. masses --      3.4298                 1.2632                 1.3143
 Frc consts  --      4.3647                 1.6548                 1.7331
 IR Inten    --      4.6764                39.4536                 8.8955

                     67                     68                     69
                      A                      A                      A
 Frequencies --   1511.7009              1513.1685              1521.8315
 Red. masses --      1.0486                 1.1378                 1.1422
 Frc consts  --      1.4118                 1.5350                 1.5585
 IR Inten    --      6.8330                 3.4568                10.4157

                     70                     71                     72
                      A                      A                      A
 Frequencies --   1522.0372              1525.8995              1536.4795
 Red. masses --      1.6827                 1.0675                 1.0915
 Frc consts  --      2.2967                 1.4645                 1.5182
 IR Inten    --     27.9064                 9.9301                18.1498

                     73                     74                     75
                      A                      A                      A
 Frequencies --   1539.4329              1551.6073              1630.3486
 Red. masses --      1.0943                 1.1154                 6.3345
 Frc consts  --      1.5279                 1.5822                 9.9203
 IR Inten    --      1.4502                 7.9650                96.0402

                     76                     77                     78
                      A                      A                      A
 Frequencies --   1646.2458              1785.6246              3017.9546
 Red. masses --      6.2227                11.0662                 1.0751
 Frc consts  --      9.9361                20.7887                 5.7690
 IR Inten    --     99.1364               238.2719                46.6555

                     79                     80                     81
                      A                      A                      A
 Frequencies --   3040.1873              3058.2167              3074.9505
 Red. masses --      1.0336                 1.0619                 1.0295
 Frc consts  --      5.6286                 5.8513                 5.7351
 IR Inten    --     52.9886                38.0546                42.3739

                     82                     83                     84
                      A                      A                      A
 Frequencies --   3101.4124              3105.2831              3120.9325
 Red. masses --      1.0703                 1.1073                 1.0980
 Frc consts  --      6.0657                 6.2910                 6.3014
 IR Inten    --      6.6294                31.9301                49.9943

                     85                     86                     87
                      A                      A                      A
 Frequencies --   3148.9243              3159.4048              3168.1977
 Red. masses --      1.1073                 1.0996                 1.1015
 Frc consts  --      6.4691                 6.4666                 6.5142
 IR Inten    --     21.2109                 5.8510                19.2054

                     88                     89                     90
                      A                      A                      A
 Frequencies --   3180.6077              3204.8724              3230.4537
 Red. masses --      1.1071                 1.0888                 1.0878
 Frc consts  --      6.5988                 6.5887                 6.6886
 IR Inten    --     18.5746                10.7469                 6.4112

                     91                     92                     93
                      A                      A                      A
 Frequencies --   3247.0748              3731.8096              3738.7278
 Red. masses --      1.0935                 1.0657                 1.0651
 Frc consts  --      6.7932                 8.7445                 8.7720
 IR Inten    --      4.4498                 7.1916                23.9100

 - Thermochemistry -
 -------------------
 Temperature   298.150 Kelvin.  Pressure   1.00000 Atm.
 Atom     1 has atomic number  6 and mass  12.00000

 Molecular mass:   240.09977 amu.
 Principal axes and moments of inertia in atomic units:
                           1         2         3
     Eigenvalues --  2816.706385434.050417496.06613
           X            0.99990   0.01273   0.00530
           Y           -0.01278   0.99988   0.00905
           Z           -0.00518  -0.00912   0.99994
 This molecule is an asymmetric top.
 Rotational symmetry number  1.
 Warning -- assumption of classical behavior for rotation
           may cause significant error
 Rotational temperatures (Kelvin)      0.03075     0.01594     0.01155
 Rotational constants (GHZ):           0.64073     0.33212     0.24076
 Zero-point vibrational energy     717056.2 (Joules/Mol)
                                  171.38053 (Kcal/Mol)
 Warning -- explicit consideration of  27 degrees of freedom as
           vibrations may cause significant error
 Vibrational temperatures:     56.13    78.57    88.43   119.63   138.03
          (Kelvin)            164.14   177.69   190.60   215.41   226.77
                              263.60   348.06   357.08   368.77   429.96
                              446.67   482.61   519.45   529.35   553.20
                              583.40   647.34   666.60   707.68   777.89
                              814.63   855.11   901.69   970.72  1006.92
                             1080.23  1132.28  1169.97  1198.85  1206.97
                             1273.27  1328.89  1371.55  1382.58  1452.32
                             1481.13  1529.01  1537.06  1572.02  1616.49
                             1690.03  1706.01  1707.04  1728.91  1733.22
                             1746.00  1758.28  1777.76  1784.39  1842.18
                             1864.27  1889.39  1968.75  1973.89  2013.20
                             2020.36  2054.63  2075.26  2114.50  2145.41
                             2152.45  2175.00  2177.11  2189.58  2189.87
                             2195.43  2210.65  2214.90  2232.42  2345.71
                             2368.58  2569.12  4342.16  4374.15  4400.09
                             4424.17  4462.24  4467.81  4490.33  4530.60
                             4545.68  4558.33  4576.19  4611.10  4647.90
                             4671.82  5369.24  5379.20

 Zero-point correction=                           0.273112 (Hartree/Particle)
 Thermal correction to Energy=                    0.290580
 Thermal correction to Enthalpy=                  0.291525
 Thermal correction to Gibbs Free Energy=         0.227513
 Sum of electronic and zero-point Energies=           -842.794028
 Sum of electronic and thermal Energies=              -842.776560
 Sum of electronic and thermal Enthalpies=            -842.775616
 Sum of electronic and thermal Free Energies=         -842.839628

                     E (Thermal)             CV                S
                      KCal/Mol        Cal/Mol-Kelvin    Cal/Mol-Kelvin
 Total                  182.342             64.221            134.724
 Electronic               0.000              0.000              0.000
 Translational            0.889              2.981             42.329
 Rotational               0.889              2.981             33.106
 Vibrational            180.564             58.260             59.289
 Vibration     1          0.594              1.981              5.309
 Vibration     2          0.596              1.976              4.643
 Vibration     3          0.597              1.973              4.410
 Vibration     4          0.600              1.961              3.815
 Vibration     5          0.603              1.952              3.535
 Vibration     6          0.607              1.938              3.198
 Vibration     7          0.610              1.929              3.045
 Vibration     8          0.613              1.921              2.910
 Vibration     9          0.618              1.903              2.676
 Vibration    10          0.621              1.894              2.578
 Vibration    11          0.631              1.863              2.295
 Vibration    12          0.658              1.776              1.789
 Vibration    13          0.662              1.766              1.743
 Vibration    14          0.666              1.752              1.687
 Vibration    15          0.692              1.676              1.423
 Vibration    16          0.699              1.654              1.360
 Vibration    17          0.717              1.605              1.234
 Vibration    18          0.735              1.553              1.118
 Vibration    19          0.741              1.538              1.088
 Vibration    20          0.753              1.503              1.021
 Vibration    21          0.770              1.458              0.943
 Vibration    22          0.809              1.361              0.796
 Vibration    23          0.821              1.331              0.757
 Vibration    24          0.848              1.268              0.679
 Vibration    25          0.896              1.160              0.564
 Vibration    26          0.922              1.104              0.512
 Vibration    27          0.952              1.044              0.460

                           ! Non-Optimized Parameters !
 Normal termination of Gaussian 16 at Sun Dec 13 20:28:12 2020.

 ----------------------------------------------------------------------
 # B3LYP/6-311++G(d,p) empiricaldispersion=gd3bj scf=xqc pop=npa geom=c
 heck
 ----------------------------------------------------------------------

 --------------------------------------
 CID_44578580_JID_7588_Energie_neutraal
 --------------------------------------
 Structure from the checkpoint file:  "JID_7588.chk"
 Charge =  0 Multiplicity = 1

 SCF Done:  E(RB3LYP) =  -843.325338988     A.U. after   15 cycles
 Normal termination of Gaussian 16 at Sun Dec 13 20:33:58 2020.

 ----------------------------------------------------------------------
 # B3LYP/6-311++G(d,p) empiricaldispersion=gd3bj scf=xqc pop=npa geom=c
 heck
 ----------------------------------------------------------------------

 ------------------------------------
 CID_44578580_JID_7588_Energie_kation
 ------------------------------------
 Structure from the checkpoint file:  "JID_7588.chk"
 Charge =  1 Multiplicity = 2

 SCF Done:  E(UB3LYP) =  -843.014883217     A.U. after   27 cycles
 Normal termination of Gaussian 16 at Sun Dec 13 20:49:03 2020.
 Gaussian 16:  ES64L-G16RevA.03 25-Dec-2016

 ----------------------------------------------------------------------
 # B3LYP/6-311++G(d,p) empiricaldispersion=gd3bj scf=xqc pop=npa geom=c
 heck
 ----------------------------------------------------------------------

 -----------------------------------
 CID_44578580_JID_7588_Energie_anion
 -----------------------------------
 Structure from the checkpoint file:  "JID_7588.chk"
 Charge = -1 Multiplicity = 2

                         Standard orientation:
 ---------------------------------------------------------------------
 Center     Atomic      Atomic             Coordinates (Angstroms)
 Number     Number       Type             X           Y           Z
 ---------------------------------------------------------------------
      1          6           0       -3.615370   -2.398290   -0.545244
      2          8           0       -3.072631   -1.128838   -0.204986
      3          6           0       -1.712057   -0.992156   -0.148170
      4          6           0       -1.255713    0.308795    0.158390
      5          6           0        0.124389    0.545628    0.283253
      6          6           0        1.028850   -0.527796    0.046955
      7          6           0        0.536337   -1.799529   -0.263553
      8          6           0       -0.826544   -2.044716   -0.367801
      9          6           0        2.504845   -0.348145    0.107912
     10          8           0        3.112725    0.705215    0.037960
     11          8           0        3.152542   -1.533971    0.239320
     12          6           0        4.583476   -1.444687    0.249738
     13          6           0        0.618519    1.930931    0.643275
     14          6           0        0.853178    2.807996   -0.600526
     15          8           0       -0.319079    2.991722   -1.389726
     16          6           0       -2.333571    1.359621    0.383064
     17          8           0       -3.106464    1.102321    1.551371
     18          1           0       -4.698200   -2.267291   -0.549467
     19          1           0       -3.340516   -3.159824    0.194512
     20          1           0       -3.281255   -2.717563   -1.539514
     21          1           0        1.237442   -2.607869   -0.428431
     22          1           0       -1.177514   -3.040196   -0.609374
     23          1           0        4.949420   -0.997912   -0.678600
     24          1           0        4.923705   -0.836155    1.091513
     25          1           0        4.938017   -2.470928    0.349387
     26          1           0       -0.104717    2.422697    1.297668
     27          1           0        1.562483    1.865264    1.184330
     28          1           0        1.155289    3.810286   -0.282900
     29          1           0        1.670513    2.379358   -1.192993
     30          1           0       -0.550074    2.124412   -1.758497
     31          1           0       -1.907369    2.351487    0.499542
     32          1           0       -2.976413    1.395743   -0.508710
     33          1           0       -3.575605    0.270993    1.376254
 ---------------------------------------------------------------------

 SCF Done:  E(UB3LYP) =  -843.325367852     A.U. after   33 cycles
 SCF Done:  E(UB3LYP) =  -843.325367852     a.u. after    1 cycles

 The electronic state is 2-A.
 Alpha  occ. eigenvalues --  -19.04370 -19.03837 -19.01346 -19.00159 -18.96445
 Alpha  occ. eigenvalues --  -10.15018 -10.12056 -10.11812 -10.10167 -10.10059
 Alpha  occ. eigenvalues --  -10.09702 -10.06482 -10.05325 -10.04983 -10.04896
 Alpha  occ. eigenvalues --  -10.04435 -10.04325  -0.97725  -0.95976  -0.91395
 Alpha  occ. eigenvalues --   -0.90226  -0.88304  -0.73845  -0.66581  -0.66019
 Alpha  occ. eigenvalues --   -0.62427  -0.60835  -0.58710  -0.55277  -0.52120
 Alpha  occ. eigenvalues --   -0.49308  -0.46445  -0.44600  -0.41027  -0.40580
 Alpha  occ. eigenvalues --   -0.39523  -0.38755  -0.37254  -0.36762  -0.36598
 Alpha  occ. eigenvalues --   -0.34721  -0.34479  -0.33086  -0.32175  -0.31451
 Alpha  occ. eigenvalues --   -0.31008  -0.29762  -0.28560  -0.28374  -0.27399
 Alpha  occ. eigenvalues --   -0.26511  -0.25530  -0.24755  -0.23952  -0.23134
 Alpha  occ. eigenvalues --   -0.22485  -0.20627  -0.19998  -0.18641  -0.16986
 Alpha  occ. eigenvalues --   -0.15986  -0.14524  -0.12968  -0.11181   0.04483
 Alpha virt. eigenvalues --    0.06258   0.07284   0.08529   0.09043   0.09851
 Alpha virt. eigenvalues --    0.10132   0.10330   0.10902   0.11289   0.11594
 Alpha virt. eigenvalues --    0.11908   0.12660   0.12791   0.13916   0.14150

  Beta  occ. eigenvalues --  -19.04296 -19.03779 -19.01343 -19.00155 -18.96176
  Beta  occ. eigenvalues --  -10.14784 -10.12059 -10.11771 -10.10155 -10.09727
  Beta  occ. eigenvalues --  -10.09698 -10.06382 -10.05382 -10.04991 -10.04981
  Beta  occ. eigenvalues --  -10.04332 -10.04116  -0.97476  -0.95775  -0.91385
  Beta  occ. eigenvalues --   -0.90212  -0.87903  -0.73589  -0.66413  -0.65712
  Beta  occ. eigenvalues --   -0.62300  -0.60748  -0.58612  -0.55092  -0.52052
  Beta  occ. eigenvalues --   -0.48857  -0.46336  -0.44436  -0.40913  -0.40500
  Beta  occ. eigenvalues --   -0.39425  -0.38660  -0.37103  -0.36508  -0.36320
  Beta  occ. eigenvalues --   -0.34551  -0.34353  -0.33039  -0.32039  -0.31368
  Beta  occ. eigenvalues --   -0.30903  -0.29653  -0.28510  -0.27553  -0.27269
  Beta  occ. eigenvalues --   -0.26051  -0.25368  -0.24628  -0.23773  -0.22941
  Beta  occ. eigenvalues --   -0.22431  -0.20049  -0.19927  -0.17803  -0.16909
  Beta  occ. eigenvalues --   -0.15973  -0.14271  -0.12486  -0.10109
  Beta virt. eigenvalues --    0.07047   0.07324   0.08667   0.09096   0.09740
  Beta virt. eigenvalues --    0.09934   0.10222   0.10633   0.11038   0.11372
  Beta virt. eigenvalues --    0.11658   0.11993   0.12668   0.12924   0.13823

 Mulliken charges and spin densities:
               1          2
     1  C    0.761463  -1.057355
     2  O   -0.246222   0.062997
     3  C   -0.819964   0.714893
     4  C   -0.317822  -0.040469
     5  C    0.079257   0.258063
     6  C    0.640433  -0.240359
     7  C    0.127515  -0.424370
     8  C   -0.085854  -0.020225
     9  C   -0.015914   0.096798
    10  O   -0.317597   0.086181
    11  O   -0.095179   0.008988
    12  C   -0.208080  -0.013688
    13  C   -0.212944  -0.022439
    14  C   -0.533608  -0.005155
    15  O   -0.260197   0.003557
    16  C   -0.400412  -0.063441
    17  O   -0.221151  -0.007221
    18  H   -0.697954   0.874159
    19  H   -0.023712   0.171892
    20  H   -0.228709   0.380120
    21  H    0.128799   0.020113
    22  H    0.028754   0.128010
    23  H    0.157995   0.006561
    24  H    0.155654   0.000248
    25  H    0.115621   0.005121
    26  H    0.178374   0.000555
    27  H    0.181814  -0.000121
    28  H    0.133572   0.003319
    29  H    0.208331   0.004152
    30  H    0.235855   0.000633
    31  H    0.164027   0.002579
    32  H    0.172940   0.019191
    33  H    0.214916   0.046711
 Sum of Mulliken charges =  -1.00000   1.00000

 Dipole moment (field-independent basis, Debye):
    X=              5.3095    Y=              0.1161    Z=             -0.0666  Tot=              5.3112
 Quadrupole moment (field-independent basis, Debye-Ang):
   XX=           -160.6055   YY=           -136.5112   ZZ=           -119.6787
   XY=            -12.9305   XZ=              0.2289   YZ=             -0.8905

 Summary of Natural Population Analysis:

                                       Natural Population
                Natural  -----------------------------------------------
    Atom  No    Charge         Core      Valence    Rydberg      Total
 -----------------------------------------------------------------------
      C    1   -0.09854      0.99960     2.08972    0.00922     3.09854
      O    2   -0.28155      0.99986     3.27109    0.01060     4.28155
      C    3    0.22463      0.99934     1.76265    0.01339     2.77537
      C    4   -0.07855      0.99944     2.06717    0.01194     3.07855
      C    5    0.03207      0.99943     1.95765    0.01086     2.96793
      C    6   -0.08149      0.99942     2.07019    0.01187     3.08149
      C    7   -0.02981      0.99955     2.02010    0.01015     3.02981
      C    8   -0.17187      0.99952     2.16347    0.00889     3.17187
      C    9    0.42982      0.99964     1.54781    0.02273     2.57018
      O   10   -0.30724      0.99987     3.30140    0.00596     4.30724
      O   11   -0.28209      0.99986     3.27462    0.00761     4.28209
      C   12   -0.10395      0.99961     2.09589    0.00844     3.10395
      C   13   -0.21747      0.99960     2.21070    0.00717     3.21747
      C   14   -0.00510      0.99960     1.99424    0.01126     3.00510
      O   15   -0.37498      0.99990     3.36891    0.00617     4.37498
      C   16   -0.02184      0.99955     2.00683    0.01546     3.02184
      O   17   -0.37688      0.99990     3.37068    0.00630     4.37688
      H   18    0.09354      0.00000     0.40473    0.00174     0.40646
      H   19    0.08218      0.00000     0.41646    0.00136     0.41782
      H   20    0.08635      0.00000     0.41169    0.00196     0.41365
      H   21    0.10185      0.00000     0.39697    0.00118     0.39815
      H   22    0.10107      0.00000     0.39780    0.00113     0.39893
      H   23    0.08705      0.00000     0.41175    0.00120     0.41295
      H   24    0.08737      0.00000     0.41143    0.00121     0.41263
      H   25    0.08311      0.00000     0.41609    0.00080     0.41689
      H   26    0.09818      0.00000     0.40083    0.00100     0.40182
      H   27    0.11880      0.00000     0.38021    0.00099     0.38120
      H   28    0.07837      0.00000     0.42047    0.00115     0.42163
      H   29    0.08703      0.00000     0.41180    0.00118     0.41297
      H   30    0.23028      0.00000     0.26735    0.00236     0.26972
      H   31    0.09519      0.00000     0.40349    0.00132     0.40481
      H   32    0.08108      0.00000     0.41762    0.00130     0.41892
      H   33    0.23338      0.00000     0.26324    0.00338     0.26662
 =======================================================================
   * Total *    0.00000     16.99369    46.80504    0.20127    64.00000

 Normal termination of Gaussian 16 at Sun Dec 13 21:07:14 2020.
