 Gaussian 16, Revision A.03,

 -----------------------------------------------------------
 # opt freq B3LYP/6-31G(d) empiricaldispersion=gd3bj scf=xqc
 -----------------------------------------------------------

 -------------------------------
 CID_106790521_JID_8205_neutraal
 -------------------------------
 Symbolic Z-matrix:
 Charge =  0 Multiplicity = 1

 SCF Done:  E(RB3LYP) =  -1131.11542687     A.U. after   14 cycles
 SCF Done:  E(RB3LYP) =  -1131.11380271     A.U. after   13 cycles
 SCF Done:  E(RB3LYP) =  -1131.11735116     A.U. after   12 cycles
 SCF Done:  E(RB3LYP) =  -1131.11981239     A.U. after   12 cycles
 SCF Done:  E(RB3LYP) =  -1131.12076444     A.U. after   12 cycles
 SCF Done:  E(RB3LYP) =  -1131.12129816     A.U. after   12 cycles
 SCF Done:  E(RB3LYP) =  -1131.12153507     A.U. after   11 cycles
 SCF Done:  E(RB3LYP) =  -1131.12156815     A.U. after   11 cycles
 SCF Done:  E(RB3LYP) =  -1131.12158342     A.U. after   10 cycles
 SCF Done:  E(RB3LYP) =  -1131.12159073     A.U. after    9 cycles
 SCF Done:  E(RB3LYP) =  -1131.12166189     A.U. after    8 cycles
 SCF Done:  E(RB3LYP) =  -1131.12166198     A.U. after    9 cycles
 SCF Done:  E(RB3LYP) =  -1131.12166218     A.U. after    8 cycles
 SCF Done:  E(RB3LYP) =  -1131.12166218     A.U. after    6 cycles
 SCF Done:  E(RB3LYP) =  -1131.12166218     A.U. after    6 cycles
 Optimization completed.
    -- Stationary point found.
 Normal termination of Gaussian 16 at Fri Dec 11 19:49:10 2020.

 --------------------------------------------------------------------
 #N Geom=AllCheck Guess=TCheck SCRF=Check GenChk RB3LYP/6-31G(d) Freq
 --------------------------------------------------------------------

 Structure from the checkpoint file:  "JID_8205.chk"
 -------------------------------
 CID_106790521_JID_8205_neutraal
 -------------------------------
 Charge =  0 Multiplicity = 1

 SCF Done:  E(RB3LYP) =  -1131.12166218     A.U. after    1 cycles

  Exact polarizability: 224.068   4.510 187.874  26.594  -0.238 104.846
 Approx polarizability: 309.807   3.557 324.712  53.681  -5.847 169.247

                      1                      2                      3
                      A                      A                      A
 Frequencies --     22.8509                30.6251                35.0846
 Red. masses --      5.4756                 1.0319                 5.4258
 Frc consts  --      0.0017                 0.0006                 0.0039
 IR Inten    --      0.1436                 0.2224                 0.0935

                      4                      5                      6
                      A                      A                      A
 Frequencies --     64.3905                77.9021                87.2015
 Red. masses --      4.3314                 4.4872                 5.1424
 Frc consts  --      0.0106                 0.0160                 0.0230
 IR Inten    --      1.0649                 0.3694                 0.1014

                      7                      8                      9
                      A                      A                      A
 Frequencies --     91.4771               143.5295               184.2552
 Red. masses --      3.3503                 5.0870                 4.4768
 Frc consts  --      0.0165                 0.0617                 0.0895
 IR Inten    --      2.7191                 0.4947                 0.1621

                     10                     11                     12
                      A                      A                      A
 Frequencies --    196.3584               220.6741               229.5524
 Red. masses --      3.1164                 2.8917                 3.6626
 Frc consts  --      0.0708                 0.0830                 0.1137
 IR Inten    --      0.3015                 0.2572                 1.9596

                     13                     14                     15
                      A                      A                      A
 Frequencies --    254.9631               290.3971               310.4337
 Red. masses --      3.0510                 1.4038                 4.4287
 Frc consts  --      0.1169                 0.0697                 0.2515
 IR Inten    --      0.9145                 0.1250                 0.7325

                     16                     17                     18
                      A                      A                      A
 Frequencies --    320.3215               372.2547               376.6577
 Red. masses --      2.2793                 3.0252                 4.6431
 Frc consts  --      0.1378                 0.2470                 0.3881
 IR Inten    --      3.3016                 2.0110                 0.4714

                     19                     20                     21
                      A                      A                      A
 Frequencies --    399.3861               438.0962               474.9213
 Red. masses --      2.8141                 1.1711                 3.8032
 Frc consts  --      0.2645                 0.1324                 0.5054
 IR Inten    --     15.0153               222.1808                 0.9216

                     22                     23                     24
                      A                      A                      A
 Frequencies --    490.1965               491.9275               537.4409
 Red. masses --      3.9525                 3.1096                 5.0425
 Frc consts  --      0.5596                 0.4434                 0.8581
 IR Inten    --     39.1596                 5.2539                 5.8493

                     25                     26                     27
                      A                      A                      A
 Frequencies --    563.8841               567.1232               596.6664
 Red. masses --      4.0602                 4.0553                 3.3008
 Frc consts  --      0.7606                 0.7685                 0.6924
 IR Inten    --      7.5653                 3.7002                 2.5026

                     28                     29                     30
                      A                      A                      A
 Frequencies --    603.6571               635.5296               664.5934
 Red. masses --      3.9855                 3.4990                 6.3850
 Frc consts  --      0.8557                 0.8327                 1.6616
 IR Inten    --      9.9000                 0.6819                 2.3232

                     31                     32                     33
                      A                      A                      A
 Frequencies --    700.4803               733.5825               741.4253
 Red. masses --      1.2020                 4.0523                 5.6617
 Frc consts  --      0.3475                 1.2848                 1.8337
 IR Inten    --     61.4648                 5.0591                 6.2786

                     34                     35                     36
                      A                      A                      A
 Frequencies --    751.6878               783.2929               823.2524
 Red. masses --      6.4063                 3.0644                 1.4329
 Frc consts  --      2.1327                 1.1078                 0.5722
 IR Inten    --      1.0091                 2.2652                 8.1824

                     37                     38                     39
                      A                      A                      A
 Frequencies --    832.4099               851.8221               861.8264
 Red. masses --      1.2741                 2.3193                 1.5334
 Frc consts  --      0.5202                 0.9915                 0.6710
 IR Inten    --     31.6487                 4.5128                 5.8871

                     40                     41                     42
                      A                      A                      A
 Frequencies --    873.6929               900.0745               938.6410
 Red. masses --      3.3050                 1.3083                 1.9891
 Frc consts  --      1.4864                 0.6245                 1.0325
 IR Inten    --      8.5612                 1.1842                16.6365

                     43                     44                     45
                      A                      A                      A
 Frequencies --    949.9310               952.7702              1003.7194
 Red. masses --      1.4581                 2.8358                 2.3496
 Frc consts  --      0.7752                 1.5167                 1.3947
 IR Inten    --      0.6990                10.1404                32.2206

                     46                     47                     48
                      A                      A                      A
 Frequencies --   1036.9274              1046.9015              1070.4332
 Red. masses --      1.6881                 2.3775                 1.6022
 Frc consts  --      1.0694                 1.5352                 1.0816
 IR Inten    --      3.3736                15.7369                 2.2855

                     49                     50                     51
                      A                      A                      A
 Frequencies --   1074.1453              1082.5028              1113.6008
 Red. masses --      1.5171                 4.4850                 1.2168
 Frc consts  --      1.0313                 3.0965                 0.8891
 IR Inten    --      9.2325                36.8259                 6.0411

                     52                     53                     54
                      A                      A                      A
 Frequencies --   1125.2353              1154.5710              1176.7671
 Red. masses --      3.3686                 2.3684                 1.5554
 Frc consts  --      2.5130                 1.8601                 1.2690
 IR Inten    --     48.8196                13.6280                13.8660

                     55                     56                     57
                      A                      A                      A
 Frequencies --   1186.5666              1196.7400              1214.5812
 Red. masses --      1.2689                 2.6188                 1.5017
 Frc consts  --      1.0526                 2.2098                 1.3052
 IR Inten    --      0.7883                38.3522                 4.2580

                     58                     59                     60
                      A                      A                      A
 Frequencies --   1225.0380              1234.0408              1265.5453
 Red. masses --      1.4899                 1.6606                 1.2965
 Frc consts  --      1.3174                 1.4900                 1.2235
 IR Inten    --      1.0285                15.5249                 7.2130

                     61                     62                     63
                      A                      A                      A
 Frequencies --   1275.8977              1298.3602              1305.9105
 Red. masses --      1.3071                 1.9019                 2.7393
 Frc consts  --      1.2537                 1.8890                 2.7525
 IR Inten    --     44.0183                59.6654                59.4677

                     64                     65                     66
                      A                      A                      A
 Frequencies --   1342.4985              1346.3600              1374.0367
 Red. masses --      1.9614                 1.3235                 1.9918
 Frc consts  --      2.0828                 1.4135                 2.2157
 IR Inten    --     12.3621                 0.8313                 2.3471

                     67                     68                     69
                      A                      A                      A
 Frequencies --   1385.9026              1404.8216              1420.3235
 Red. masses --      1.8183                 1.5876                 1.6369
 Frc consts  --      2.0577                 1.8460                 1.9456
 IR Inten    --     15.9718                16.2202                 4.4822

                     70                     71                     72
                      A                      A                      A
 Frequencies --   1442.1559              1459.8926              1481.3043
 Red. masses --      1.2460                 2.2257                 1.2459
 Frc consts  --      1.5268                 2.7949                 1.6107
 IR Inten    --      0.0316                33.1028                67.4898

                     73                     74                     75
                      A                      A                      A
 Frequencies --   1502.7479              1504.0379              1508.5501
 Red. masses --      1.2352                 1.8525                 1.6555
 Frc consts  --      1.6435                 2.4691                 2.2197
 IR Inten    --      3.5848                 3.8245                11.1677

                     76                     77                     78
                      A                      A                      A
 Frequencies --   1512.0470              1516.6976              1522.0189
 Red. masses --      1.1789                 1.0516                 1.0583
 Frc consts  --      1.5880                 1.4252                 1.4444
 IR Inten    --     15.9495                 4.5915                17.8091

                     79                     80                     81
                      A                      A                      A
 Frequencies --   1526.3753              1534.8569              1560.1969
 Red. masses --      1.1505                 1.0999                 2.5158
 Frc consts  --      1.5793                 1.5266                 3.6082
 IR Inten    --     13.9516                40.8972                26.0328

                     82                     83                     84
                      A                      A                      A
 Frequencies --   1600.7932              1638.6599              1673.0010
 Red. masses --      5.4334                 5.9014                 6.1426
 Frc consts  --      8.2033                 9.3364                10.1296
 IR Inten    --      1.3002                23.3109                47.2270

                     85                     86                     87
                      A                      A                      A
 Frequencies --   3025.6821              3032.4017              3042.0435
 Red. masses --      1.0692                 1.0349                 1.0658
 Frc consts  --      5.7672                 5.6067                 5.8109
 IR Inten    --     17.3698                45.0057                21.4511

                     88                     89                     90
                      A                      A                      A
 Frequencies --   3042.8715              3057.7778              3080.5181
 Red. masses --      1.0389                 1.0802                 1.1016
 Frc consts  --      5.6674                 5.9509                 6.1591
 IR Inten    --     36.6506                48.7441                21.9351

                     91                     92                     93
                      A                      A                      A
 Frequencies --   3094.6813              3095.8826              3096.0338
 Red. masses --      1.1062                 1.0941                 1.0992
 Frc consts  --      6.2418                 6.1786                 6.2079
 IR Inten    --     30.8600                36.1568                26.9181

                     94                     95                     96
                      A                      A                      A
 Frequencies --   3128.0195              3168.6889              3173.0670
 Red. masses --      1.1011                 1.1002                 1.0873
 Frc consts  --      6.3476                 6.5085                 6.4502
 IR Inten    --     17.4627                17.3684                12.4987

                     97                     98                     99
                      A                      A                      A
 Frequencies --   3195.5522              3212.1477              3213.9009
 Red. masses --      1.0936                 1.0880                 1.0891
 Frc consts  --      6.5793                 6.6141                 6.6279
 IR Inten    --     24.9473                12.2717                 7.9121

                    100                    101                    102
                      A                      A                      A
 Frequencies --   3227.1335              3270.5720              3727.1532
 Red. masses --      1.0953                 1.0969                 1.0647
 Frc consts  --      6.7205                 6.9127                 8.7146
 IR Inten    --     11.2759                 1.7051                49.9990

 - Thermochemistry -
 -------------------
 Temperature   298.150 Kelvin.  Pressure   1.00000 Atm.
 Atom     1 has atomic number  6 and mass  12.00000

 Molecular mass:   262.10275 amu.
 Principal axes and moments of inertia in atomic units:
                           1         2         3
     Eigenvalues --  2143.290878018.899519203.23812
           X            0.99999  -0.00060   0.00453
           Y            0.00053   0.99990   0.01416
           Z           -0.00454  -0.01415   0.99989
 This molecule is an asymmetric top.
 Rotational symmetry number  1.
 Warning -- assumption of classical behavior for rotation
           may cause significant error
 Rotational temperatures (Kelvin)      0.04041     0.01080     0.00941
 Rotational constants (GHZ):           0.84204     0.22506     0.19610
 Zero-point vibrational energy     787717.8 (Joules/Mol)
                                  188.26907 (Kcal/Mol)
 Warning -- explicit consideration of  28 degrees of freedom as
           vibrations may cause significant error
 Vibrational temperatures:     32.88    44.06    50.48    92.64   112.08
          (Kelvin)            125.46   131.62   206.51   265.10   282.52
                              317.50   330.27   366.84   417.82   446.64
                              460.87   535.59   541.93   574.63   630.32
                              683.31   705.28   707.77   773.26   811.30
                              815.96   858.47   868.53   914.39   956.20
                             1007.83  1055.46  1066.75  1081.51  1126.98
                             1184.48  1197.65  1225.58  1239.98  1257.05
                             1295.01  1350.49  1366.74  1370.82  1444.13
                             1491.91  1506.26  1540.11  1545.46  1557.48
                             1602.22  1618.96  1661.17  1693.11  1707.20
                             1721.84  1747.51  1762.56  1775.51  1820.84
                             1835.73  1868.05  1878.91  1931.56  1937.11
                             1976.93  1994.00  2021.22  2043.53  2074.94
                             2100.46  2131.27  2162.12  2163.98  2170.47
                             2175.50  2182.19  2189.85  2196.11  2208.32
                             2244.78  2303.18  2357.67  2407.08  4353.28
                             4362.95  4376.82  4378.01  4399.46  4432.18
                             4452.56  4454.28  4454.50  4500.52  4559.04
                             4565.34  4597.69  4621.56  4624.09  4643.13
                             4705.62  5362.54

 Zero-point correction=                           0.300026 (Hartree/Particle)
 Thermal correction to Energy=                    0.317773
 Thermal correction to Enthalpy=                  0.318717
 Thermal correction to Gibbs Free Energy=         0.252513
 Sum of electronic and zero-point Energies=          -1130.821636
 Sum of electronic and thermal Energies=             -1130.803890
 Sum of electronic and thermal Enthalpies=           -1130.802945
 Sum of electronic and thermal Free Energies=        -1130.869150

                     E (Thermal)             CV                S
                      KCal/Mol        Cal/Mol-Kelvin    Cal/Mol-Kelvin
 Total                  199.405             67.465            139.338
 Electronic               0.000              0.000              0.000
 Translational            0.889              2.981             42.590
 Rotational               0.889              2.981             33.425
 Vibrational            197.628             61.504             63.323
 Vibration     1          0.593              1.985              6.370
 Vibration     2          0.594              1.984              5.789
 Vibration     3          0.594              1.982              5.519
 Vibration     4          0.597              1.971              4.318
 Vibration     5          0.599              1.964              3.943
 Vibration     6          0.601              1.958              3.722
 Vibration     7          0.602              1.955              3.628
 Vibration     8          0.616              1.910              2.756
 Vibration     9          0.631              1.861              2.285
 Vibration    10          0.636              1.845              2.167
 Vibration    11          0.647              1.810              1.954
 Vibration    12          0.652              1.796              1.882
 Vibration    13          0.665              1.754              1.696
 Vibration    14          0.686              1.692              1.472
 Vibration    15          0.699              1.654              1.360
 Vibration    16          0.706              1.635              1.308
 Vibration    17          0.744              1.529              1.070
 Vibration    18          0.747              1.520              1.053
 Vibration    19          0.765              1.471              0.965
 Vibration    20          0.798              1.387              0.833
 Vibration    21          0.832              1.306              0.724
 Vibration    22          0.846              1.272              0.683
 Vibration    23          0.848              1.268              0.679
 Vibration    24          0.892              1.167              0.571
 Vibration    25          0.920              1.109              0.516
 Vibration    26          0.923              1.102              0.510
 Vibration    27          0.955              1.039              0.455
 Vibration    28          0.962              1.024              0.443

 Optimization completed.
    -- Stationary point found.
 Normal termination of Gaussian 16 at Fri Dec 11 20:05:42 2020.

 ----------------------------------------------------------------------
 # B3LYP/6-311++G(d,p) empiricaldispersion=gd3bj scf=xqc pop=npa geom=c
 heck
 ----------------------------------------------------------------------

 ---------------------------------------
 CID_106790521_JID_8205_Energie_neutraal
 ---------------------------------------
 Structure from the checkpoint file:  "JID_8205.chk"
 Charge =  0 Multiplicity = 1

 SCF Done:  E(RB3LYP) =  -1131.35297676     A.U. after   16 cycles
 Normal termination of Gaussian 16 at Fri Dec 11 20:13:05 2020.

 ----------------------------------------------------------------------
 # B3LYP/6-311++G(d,p) empiricaldispersion=gd3bj scf=xqc pop=npa geom=c
 heck
 ----------------------------------------------------------------------

 -------------------------------------
 CID_106790521_JID_8205_Energie_kation
 -------------------------------------
 Structure from the checkpoint file:  "JID_8205.chk"
 Charge =  1 Multiplicity = 2

 SCF Done:  E(UB3LYP) =  -1131.07095466     A.U. after   30 cycles
 Normal termination of Gaussian 16 at Fri Dec 11 20:32:25 2020.
 Gaussian 16:  ES64L-G16RevA.03 25-Dec-2016

 ----------------------------------------------------------------------
 # B3LYP/6-311++G(d,p) empiricaldispersion=gd3bj scf=xqc pop=npa geom=c
 heck
 ----------------------------------------------------------------------

 ------------------------------------
 CID_106790521_JID_8205_Energie_anion
 ------------------------------------
 Structure from the checkpoint file:  "JID_8205.chk"
 Charge = -1 Multiplicity = 2

                         Standard orientation:
 ---------------------------------------------------------------------
 Center     Atomic      Atomic             Coordinates (Angstroms)
 Number     Number       Type             X           Y           Z
 ---------------------------------------------------------------------
      1          6           0       -5.271289    0.954906   -0.573160
      2          6           0       -3.954992    0.287969   -0.256375
      3          6           0       -2.816292    1.065383   -0.005394
      4          6           0       -1.594902    0.467373    0.306644
      5          6           0       -1.473025   -0.933715    0.392591
      6          6           0       -2.618549   -1.687499    0.141788
      7          6           0       -3.841229   -1.099816   -0.185487
      8          6           0       -0.167764   -1.653082    0.723637
      9          6           0        0.637443   -2.023603   -0.541492
     10          6           0        1.170416   -0.859070   -1.393353
     11          6           0        2.282713   -0.049338   -0.786479
     12          6           0        2.436353    1.312991   -0.801342
     13          6           0        3.651242    1.763092   -0.197831
     14          6           0        4.417726    0.732536    0.269049
     15         16           0        3.661913   -0.803547   -0.020305
     16          8           0        0.619945   -1.005540    1.708253
     17          8           0       -0.449024    1.191807    0.533126
     18          6           0       -0.527696    2.606051    0.594522
     19          1           0       -5.704564    1.424160    0.319554
     20          1           0       -5.151251    1.742866   -1.325721
     21          1           0       -6.000429    0.233180   -0.953540
     22          1           0       -2.897012    2.145243   -0.062114
     23          1           0       -2.549783   -2.770986    0.209976
     24          1           0       -4.710159   -1.724400   -0.373460
     25          1           0       -0.452478   -2.605707    1.185990
     26          1           0        1.473524   -2.659149   -0.223568
     27          1           0       -0.007082   -2.643447   -1.177813
     28          1           0        1.518666   -1.278620   -2.347658
     29          1           0        0.352240   -0.174272   -1.642338
     30          1           0        1.698480    1.972898   -1.243781
     31          1           0        3.936304    2.806397   -0.114497
     32          1           0        5.370516    0.779772    0.778326
     33          1           0        0.765898   -0.096003    1.399803
     34          1           0       -0.832073    3.032212   -0.369983
     35          1           0       -1.229150    2.931525    1.372379
     36          1           0        0.479461    2.945864    0.838383
 ---------------------------------------------------------------------

 SCF Done:  E(UB3LYP) =  -1131.34189409     A.U. after   33 cycles
 SCF Done:  E(UB3LYP) =  -1131.34189409     a.u. after    1 cycles

 The electronic state is 2-A.
 Alpha  occ. eigenvalues --  -88.78255 -19.06813 -19.01726 -10.14716 -10.13768
 Alpha  occ. eigenvalues --  -10.12880 -10.11312 -10.10789 -10.09424 -10.09384
 Alpha  occ. eigenvalues --  -10.08827 -10.08678 -10.08650 -10.08573 -10.08026
 Alpha  occ. eigenvalues --  -10.07887 -10.07682 -10.07472  -7.86891  -5.83173
 Alpha  occ. eigenvalues --   -5.82809  -5.82494  -0.98402  -0.92526  -0.79141
 Alpha  occ. eigenvalues --   -0.77113  -0.71354  -0.69065  -0.66381  -0.64394
 Alpha  occ. eigenvalues --   -0.64230  -0.61773  -0.60432  -0.56974  -0.51908
 Alpha  occ. eigenvalues --   -0.51215  -0.49354  -0.46928  -0.44567  -0.44054
 Alpha  occ. eigenvalues --   -0.41694  -0.41151  -0.40468  -0.38541  -0.37353
 Alpha  occ. eigenvalues --   -0.36567  -0.35576  -0.34118  -0.33752  -0.32916
 Alpha  occ. eigenvalues --   -0.32776  -0.31301  -0.31066  -0.30218  -0.29402
 Alpha  occ. eigenvalues --   -0.28659  -0.28336  -0.27704  -0.27017  -0.26803
 Alpha  occ. eigenvalues --   -0.26195  -0.25989  -0.24587  -0.23048  -0.22291
 Alpha  occ. eigenvalues --   -0.18128  -0.16248  -0.15700  -0.13938  -0.13561
 Alpha  occ. eigenvalues --    0.04015
 Alpha virt. eigenvalues --    0.05851   0.05888   0.06630   0.06952   0.07137
 Alpha virt. eigenvalues --    0.07909   0.08357   0.08589   0.09057   0.09098
 Alpha virt. eigenvalues --    0.09790   0.10078   0.10669   0.10895   0.11288

  Beta  occ. eigenvalues --  -88.78252 -19.06806 -19.01724 -10.14716 -10.13766
  Beta  occ. eigenvalues --  -10.12829 -10.11297 -10.10777 -10.09423 -10.09377
  Beta  occ. eigenvalues --  -10.08825 -10.08666 -10.08645 -10.08568 -10.08013
  Beta  occ. eigenvalues --  -10.07868 -10.07669 -10.07435  -7.86888  -5.83171
  Beta  occ. eigenvalues --   -5.82807  -5.82488  -0.98385  -0.92521  -0.79117
  Beta  occ. eigenvalues --   -0.77101  -0.71337  -0.69041  -0.66355  -0.64369
  Beta  occ. eigenvalues --   -0.64204  -0.61715  -0.60397  -0.56941  -0.51880
  Beta  occ. eigenvalues --   -0.51179  -0.49327  -0.46897  -0.44531  -0.44018
  Beta  occ. eigenvalues --   -0.41658  -0.41121  -0.40447  -0.38512  -0.37324
  Beta  occ. eigenvalues --   -0.36540  -0.35545  -0.34094  -0.33730  -0.32879
  Beta  occ. eigenvalues --   -0.32746  -0.31278  -0.31035  -0.30190  -0.29370
  Beta  occ. eigenvalues --   -0.28627  -0.28310  -0.27674  -0.26995  -0.26779
  Beta  occ. eigenvalues --   -0.26173  -0.25967  -0.24569  -0.23025  -0.22275
  Beta  occ. eigenvalues --   -0.18118  -0.16217  -0.15678  -0.13879  -0.13543
  Beta virt. eigenvalues --    0.05887   0.06363   0.06440   0.06910   0.07222
  Beta virt. eigenvalues --    0.07651   0.08278   0.08563   0.08862   0.09248
  Beta virt. eigenvalues --    0.09748   0.10037   0.10243   0.10862   0.11116

 Mulliken charges and spin densities:
               1          2
     1  C    1.986192  -2.517976
     2  C    0.113361   0.120188
     3  C   -2.045382   2.106977
     4  C   -1.560803   1.158520
     5  C    1.623658  -0.755617
     6  C   -0.369747  -0.175847
     7  C    0.533742  -1.406157
     8  C   -0.169852   0.168703
     9  C   -0.279529  -0.136251
    10  C    0.842152  -1.009273
    11  C    0.593038  -0.473537
    12  C   -1.298276   1.385924
    13  C    0.571121  -1.132828
    14  C   -0.272637   0.193166
    15  S   -0.230575  -0.104361
    16  O   -0.148680  -0.013959
    17  O   -0.176690   0.045760
    18  C    0.983054  -1.337075
    19  H   -0.086217   0.253749
    20  H   -0.355674   0.516516
    21  H   -0.284174   0.433215
    22  H    0.029817   0.148853
    23  H   -0.072483   0.192411
    24  H   -0.284555   0.424406
    25  H    0.151951   0.065952
    26  H    0.130998   0.024242
    27  H    0.112348   0.054216
    28  H   -0.040268   0.261640
    29  H    0.381951  -0.246466
    30  H   -0.314980   0.480639
    31  H   -0.407988   0.564505
    32  H    0.051319   0.181694
    33  H    0.325277  -0.017068
    34  H   -0.659936   0.857317
    35  H   -0.262557   0.403574
    36  H   -0.108976   0.284248
 Sum of Mulliken charges =  -1.00000   1.00000

 Dipole moment (field-independent basis, Debye):
    X=              4.4868    Y=             -6.3412    Z=              1.1068  Tot=              7.8465
 Quadrupole moment (field-independent basis, Debye-Ang):
   XX=           -203.4950   YY=           -170.1021   ZZ=           -152.0269
   XY=              3.7957   XZ=             -4.7469   YZ=              5.5502

 Summary of Natural Population Analysis:

                                       Natural Population
                Natural  -----------------------------------------------
    Atom  No    Charge         Core      Valence    Rydberg      Total
 -----------------------------------------------------------------------
      C    1   -0.29128      0.99963     2.28650    0.00515     3.29128
      C    2   -0.00566      0.99953     1.99608    0.01006     3.00566
      C    3   -0.13707      0.99947     2.12866    0.00894     3.13707
      C    4    0.16717      0.99933     1.82021    0.01329     2.83283
      C    5   -0.05222      0.99944     2.04146    0.01131     3.05222
      C    6   -0.08838      0.99953     2.07920    0.00965     3.08838
      C    7   -0.11471      0.99951     2.10540    0.00980     3.11471
      C    8    0.06386      0.99952     1.92222    0.01440     2.93614
      C    9   -0.19259      0.99960     2.18429    0.00871     3.19259
      C   10   -0.21070      0.99956     2.20085    0.01029     3.21070
      C   11   -0.09455      0.99949     2.08033    0.01473     3.09455
      C   12   -0.13110      0.99945     2.12003    0.01162     3.13110
      C   13   -0.12648      0.99953     2.11538    0.01157     3.12648
      C   14   -0.19826      0.99954     2.18840    0.01032     3.19826
      S   15    0.20224      4.99939     2.77885    0.01952     7.79776
      O   16   -0.37350      0.99990     3.36773    0.00588     4.37350
      O   17   -0.28834      0.99985     3.27697    0.01152     4.28834
      C   18   -0.10060      0.99959     2.09147    0.00953     3.10060
      H   19    0.10490      0.00000     0.39386    0.00125     0.39510
      H   20    0.10715      0.00000     0.39114    0.00171     0.39285
      H   21    0.10195      0.00000     0.39672    0.00133     0.39805
      H   22    0.10923      0.00000     0.38893    0.00184     0.39077
      H   23    0.09784      0.00000     0.40113    0.00103     0.40216
      H   24    0.10020      0.00000     0.39885    0.00095     0.39980
      H   25    0.08821      0.00000     0.41006    0.00173     0.41179
      H   26    0.09878      0.00000     0.40011    0.00111     0.40122
      H   27    0.10166      0.00000     0.39734    0.00100     0.39834
      H   28    0.10647      0.00000     0.39241    0.00112     0.39353
      H   29    0.11251      0.00000     0.38547    0.00201     0.38749
      H   30    0.11075      0.00000     0.38718    0.00207     0.38925
      H   31    0.10831      0.00000     0.39052    0.00116     0.39169
      H   32    0.10792      0.00000     0.39127    0.00081     0.39208
      H   33    0.24112      0.00000     0.25527    0.00361     0.25888
      H   34    0.08980      0.00000     0.40709    0.00312     0.41020
      H   35    0.08806      0.00000     0.41053    0.00141     0.41194
      H   36    0.09730      0.00000     0.40132    0.00138     0.40270
 =======================================================================
   * Total *    0.00000     21.99184    47.78323    0.22493    70.00000

 Normal termination of Gaussian 16 at Fri Dec 11 20:54:53 2020.
