 Gaussian 16, Revision A.03,

 -----------------------------------------------------------
 # opt freq B3LYP/6-31G(d) empiricaldispersion=gd3bj scf=xqc
 -----------------------------------------------------------

 ------------------------------
 CID_55168613_JID_3629_neutraal
 ------------------------------
 Symbolic Z-matrix:
 Charge =  0 Multiplicity = 1

 SCF Done:  E(RB3LYP) =  -899.645416840     A.U. after   15 cycles
 SCF Done:  E(RB3LYP) =  -899.649315483     A.U. after   12 cycles
 SCF Done:  E(RB3LYP) =  -899.650335816     A.U. after   12 cycles
 SCF Done:  E(RB3LYP) =  -899.651010939     A.U. after   12 cycles
 SCF Done:  E(RB3LYP) =  -899.651528687     A.U. after   12 cycles
 SCF Done:  E(RB3LYP) =  -899.652002685     A.U. after   11 cycles
 SCF Done:  E(RB3LYP) =  -899.652521176     A.U. after   11 cycles
 SCF Done:  E(RB3LYP) =  -899.652699438     A.U. after   11 cycles
 SCF Done:  E(RB3LYP) =  -899.652806089     A.U. after   11 cycles
 SCF Done:  E(RB3LYP) =  -899.652840257     A.U. after   11 cycles
 SCF Done:  E(RB3LYP) =  -899.652849870     A.U. after    7 cycles
 SCF Done:  E(RB3LYP) =  -899.652849959     A.U. after    8 cycles
 SCF Done:  E(RB3LYP) =  -899.652850063     A.U. after    8 cycles
 SCF Done:  E(RB3LYP) =  -899.652850107     A.U. after    7 cycles
 SCF Done:  E(RB3LYP) =  -899.652850131     A.U. after    7 cycles
 Optimization completed.
    -- Stationary point found.
 Normal termination of Gaussian 16 at Mon Dec 14 18:47:06 2020.

 --------------------------------------------------------------------
 #N Geom=AllCheck Guess=TCheck SCRF=Check GenChk RB3LYP/6-31G(d) Freq
 --------------------------------------------------------------------

 Structure from the checkpoint file:  "JID_3629.chk"
 ------------------------------
 CID_55168613_JID_3629_neutraal
 ------------------------------
 Charge =  0 Multiplicity = 1

 SCF Done:  E(RB3LYP) =  -899.652850131     A.U. after    1 cycles

  Exact polarizability: 166.769  -1.606 137.706  -5.131  -6.589  97.517
 Approx polarizability: 213.776   0.362 224.308 -12.848 -22.538 149.913

                      1                      2                      3
                      A                      A                      A
 Frequencies --     19.3596                35.2119                49.6733
 Red. masses --      3.0480                 3.5293                 2.5982
 Frc consts  --      0.0007                 0.0026                 0.0038
 IR Inten    --      0.3939                 0.0340                 0.2245

                      4                      5                      6
                      A                      A                      A
 Frequencies --     64.4502                73.7361               108.9904
 Red. masses --      2.2642                 2.6204                 2.9125
 Frc consts  --      0.0055                 0.0084                 0.0204
 IR Inten    --      0.8217                 0.6529                 0.6270

                      7                      8                      9
                      A                      A                      A
 Frequencies --    139.3493               182.4944               206.1703
 Red. masses --      3.5261                 2.6043                 1.4745
 Frc consts  --      0.0403                 0.0511                 0.0369
 IR Inten    --      1.1524                 0.9472                 0.6151

                     10                     11                     12
                      A                      A                      A
 Frequencies --    235.0554               262.4991               267.3243
 Red. masses --      1.1899                 1.2597                 5.2427
 Frc consts  --      0.0387                 0.0511                 0.2207
 IR Inten    --      0.3024                 1.0550                 1.4902

                     13                     14                     15
                      A                      A                      A
 Frequencies --    272.0346               309.3363               348.5027
 Red. masses --      1.7211                 2.2277                 3.2182
 Frc consts  --      0.0750                 0.1256                 0.2303
 IR Inten    --      1.9672                 0.7041                 2.2951

                     16                     17                     18
                      A                      A                      A
 Frequencies --    369.5253               395.3649               455.3562
 Red. masses --      2.9710                 2.7108                 2.2311
 Frc consts  --      0.2390                 0.2497                 0.2726
 IR Inten    --      2.3301                 0.2974                 4.4807

                     19                     20                     21
                      A                      A                      A
 Frequencies --    499.1915               551.9764               577.3240
 Red. masses --      3.2365                 4.4698                 4.7354
 Frc consts  --      0.4752                 0.8024                 0.9299
 IR Inten    --      1.7409                 1.6887                 2.9736

                     22                     23                     24
                      A                      A                      A
 Frequencies --    634.6247               706.0788               727.2582
 Red. masses --      5.3736                 2.9446                 3.0504
 Frc consts  --      1.2751                 0.8649                 0.9506
 IR Inten    --      0.4096                 3.6399                13.1789

                     25                     26                     27
                      A                      A                      A
 Frequencies --    748.8160               782.2143               806.4213
 Red. masses --      1.5582                 1.6345                 1.2984
 Frc consts  --      0.5148                 0.5892                 0.4975
 IR Inten    --     50.9265                36.8030                 5.3300

                     28                     29                     30
                      A                      A                      A
 Frequencies --    826.0187               854.7984               861.1292
 Red. masses --      1.2182                 3.7335                 1.9791
 Frc consts  --      0.4897                 1.6073                 0.8647
 IR Inten    --      0.5896                 7.3091                13.0252

                     31                     32                     33
                      A                      A                      A
 Frequencies --    905.3800               923.5284               949.4528
 Red. masses --      1.6592                 1.4718                 2.8175
 Frc consts  --      0.8013                 0.7396                 1.4964
 IR Inten    --      4.2223                 6.4991                 3.4545

                     34                     35                     36
                      A                      A                      A
 Frequencies --    983.4041              1014.6933              1065.1320
 Red. masses --      1.9046                 2.5708                 2.1201
 Frc consts  --      1.0852                 1.5595                 1.4172
 IR Inten    --      1.5056                12.7240                 7.0296

                     37                     38                     39
                      A                      A                      A
 Frequencies --   1073.9844              1100.0963              1104.6950
 Red. masses --      2.2690                 1.9301                 1.5119
 Frc consts  --      1.5420                 1.3762                 1.0871
 IR Inten    --     10.7098                19.6741                 2.5737

                     40                     41                     42
                      A                      A                      A
 Frequencies --   1122.9942              1145.9639              1149.8308
 Red. masses --      2.3853                 1.8627                 2.3567
 Frc consts  --      1.7724                 1.4412                 1.8358
 IR Inten    --     19.2460                25.5103                13.4841

                     43                     44                     45
                      A                      A                      A
 Frequencies --   1173.2757              1184.0927              1227.3465
 Red. masses --      1.8917                 1.7445                 2.2255
 Frc consts  --      1.5342                 1.4411                 1.9752
 IR Inten    --     98.8529                37.2058                 8.0484

                     46                     47                     48
                      A                      A                      A
 Frequencies --   1262.9564              1289.8939              1301.5428
 Red. masses --      1.3804                 1.4088                 1.2412
 Frc consts  --      1.2973                 1.3811                 1.2389
 IR Inten    --      3.3264                 3.3877                 2.3954

                     49                     50                     51
                      A                      A                      A
 Frequencies --   1340.2954              1365.6332              1372.3268
 Red. masses --      1.3299                 2.0909                 1.7352
 Frc consts  --      1.4076                 2.2975                 1.9254
 IR Inten    --      1.7741                14.2351                 1.7003

                     52                     53                     54
                      A                      A                      A
 Frequencies --   1376.3073              1391.8408              1419.5682
 Red. masses --      1.2822                 1.4254                 1.2912
 Frc consts  --      1.4310                 1.6269                 1.5330
 IR Inten    --     13.9777                27.2074                 0.3826

                     55                     56                     57
                      A                      A                      A
 Frequencies --   1432.8310              1434.3424              1443.7229
 Red. masses --      1.2385                 1.2563                 1.3356
 Frc consts  --      1.4981                 1.5228                 1.6402
 IR Inten    --      2.0235                11.3996                 8.0116

                     58                     59                     60
                      A                      A                      A
 Frequencies --   1504.1088              1507.0757              1509.0655
 Red. masses --      1.1193                 1.1335                 1.0890
 Frc consts  --      1.4919                 1.5169                 1.4612
 IR Inten    --      8.8321                13.3770                 1.6787

                     61                     62                     63
                      A                      A                      A
 Frequencies --   1521.0361              1524.8934              1526.1300
 Red. masses --      1.0596                 1.0457                 1.0708
 Frc consts  --      1.4443                 1.4326                 1.4693
 IR Inten    --      0.6258                 8.4975                15.2425

                     64                     65                     66
                      A                      A                      A
 Frequencies --   1530.1943              1534.4052              1537.0562
 Red. masses --      1.0528                 1.2521                 1.1151
 Frc consts  --      1.4525                 1.7368                 1.5522
 IR Inten    --      1.1238                12.4894                 5.4896

                     67                     68                     69
                      A                      A                      A
 Frequencies --   1552.0296              1554.1167              1588.6740
 Red. masses --      2.7869                 1.1508                 7.3489
 Frc consts  --      3.9553                 1.6376                10.9280
 IR Inten    --      6.4706                 5.3318                42.5253

                     70                     71                     72
                      A                      A                      A
 Frequencies --   2951.3240              3040.0659              3045.6184
 Red. masses --      1.0731                 1.0424                 1.0418
 Frc consts  --      5.5069                 5.6763                 5.6934
 IR Inten    --     72.8345                16.3168                24.8465

                     73                     74                     75
                      A                      A                      A
 Frequencies --   3046.1549              3050.2402              3054.2663
 Red. masses --      1.0626                 1.0638                 1.0352
 Frc consts  --      5.8092                 5.8315                 5.6898
 IR Inten    --     24.5709                17.3920                30.9347

                     76                     77                     78
                      A                      A                      A
 Frequencies --   3058.0307              3070.0136              3088.7479
 Red. masses --      1.0833                 1.0807                 1.1003
 Frc consts  --      5.9687                 6.0012                 6.1847
 IR Inten    --     17.8433                15.3233                13.4899

                     79                     80                     81
                      A                      A                      A
 Frequencies --   3100.0947              3110.4027              3112.3204
 Red. masses --      1.1008                 1.0990                 1.0959
 Frc consts  --      6.2330                 6.2645                 6.2546
 IR Inten    --     10.5546                38.5126                39.8632

                     82                     83                     84
                      A                      A                      A
 Frequencies --   3121.3301              3129.4723              3133.6493
 Red. masses --      1.1033                 1.1022                 1.1031
 Frc consts  --      6.3332                 6.3599                 6.3822
 IR Inten    --     41.8924                35.0674                33.6488

                     85                     86                     87
                      A                      A                      A
 Frequencies --   3137.4840              3274.5582              3455.4823
 Red. masses --      1.1025                 1.0945                 1.0730
 Frc consts  --      6.3945                 6.9149                 7.5485
 IR Inten    --     29.5058                 1.5559                 2.3916

 - Thermochemistry -
 -------------------
 Temperature   298.150 Kelvin.  Pressure   1.00000 Atm.
 Atom     1 has atomic number  6 and mass  12.00000

 Molecular mass:   198.11907 amu.
 Principal axes and moments of inertia in atomic units:
                           1         2         3
     Eigenvalues --  1511.386265755.562816687.31250
           X            0.99988  -0.01539  -0.00064
           Y            0.01539   0.99984   0.00957
           Z            0.00049  -0.00958   0.99995
 This molecule is an asymmetric top.
 Rotational symmetry number  1.
 Warning -- assumption of classical behavior for rotation
           may cause significant error
 Rotational temperatures (Kelvin)      0.05731     0.01505     0.01295
 Rotational constants (GHZ):           1.19410     0.31356     0.26988
 Zero-point vibrational energy     713533.3 (Joules/Mol)
                                  170.53856 (Kcal/Mol)
 Warning -- explicit consideration of  21 degrees of freedom as
           vibrations may cause significant error
 Vibrational temperatures:     27.85    50.66    71.47    92.73   106.09
          (Kelvin)            156.81   200.49   262.57   296.63   338.19
                              377.68   384.62   391.40   445.07   501.42
                              531.66   568.84   655.16   718.23   794.17
                              830.64   913.08  1015.89  1046.36  1077.38
                             1125.43  1160.26  1188.46  1229.86  1238.97
                             1302.64  1328.75  1366.05  1414.90  1459.92
                             1532.49  1545.22  1582.79  1589.41  1615.74
                             1648.79  1654.35  1688.08  1703.65  1765.88
                             1817.11  1855.87  1872.63  1928.39  1964.84
                             1974.47  1980.20  2002.55  2042.44  2061.52
                             2063.70  2077.20  2164.08  2168.35  2171.21
                             2188.43  2193.98  2195.76  2201.61  2207.67
                             2211.48  2233.02  2236.03  2285.75  4246.30
                             4373.98  4381.97  4382.74  4388.62  4394.41
                             4399.82  4417.06  4444.02  4460.34  4475.18
                             4477.93  4490.90  4502.61  4508.62  4514.14
                             4711.36  4971.67

 Zero-point correction=                           0.271770 (Hartree/Particle)
 Thermal correction to Energy=                    0.286888
 Thermal correction to Enthalpy=                  0.287832
 Thermal correction to Gibbs Free Energy=         0.227260
 Sum of electronic and zero-point Energies=           -899.381080
 Sum of electronic and thermal Energies=              -899.365962
 Sum of electronic and thermal Enthalpies=            -899.365018
 Sum of electronic and thermal Free Energies=         -899.425590

                     E (Thermal)             CV                S
                      KCal/Mol        Cal/Mol-Kelvin    Cal/Mol-Kelvin
 Total                  180.025             54.727            127.484
 Electronic               0.000              0.000              0.000
 Translational            0.889              2.981             41.756
 Rotational               0.889              2.981             32.431
 Vibrational            178.247             48.766             53.297
 Vibration     1          0.593              1.986              6.699
 Vibration     2          0.594              1.982              5.512
 Vibration     3          0.595              1.978              4.830
 Vibration     4          0.597              1.971              4.316
 Vibration     5          0.599              1.966              4.051
 Vibration     6          0.606              1.942              3.287
 Vibration     7          0.615              1.914              2.813
 Vibration     8          0.630              1.864              2.303
 Vibration     9          0.641              1.831              2.077
 Vibration    10          0.655              1.787              1.840
 Vibration    11          0.670              1.742              1.645
 Vibration    12          0.672              1.733              1.613
 Vibration    13          0.675              1.725              1.583
 Vibration    14          0.699              1.656              1.366
 Vibration    15          0.726              1.578              1.173
 Vibration    16          0.742              1.535              1.082
 Vibration    17          0.762              1.480              0.980
 Vibration    18          0.814              1.349              0.780
 Vibration    19          0.855              1.252              0.660
 Vibration    20          0.907              1.135              0.540
 Vibration    21          0.934              1.080              0.490

 Optimization completed.
    -- Stationary point found.
 Normal termination of Gaussian 16 at Mon Dec 14 18:54:32 2020.

 ----------------------------------------------------------------------
 # B3LYP/6-311++G(d,p) empiricaldispersion=gd3bj scf=xqc pop=npa geom=c
 heck
 ----------------------------------------------------------------------

 --------------------------------------
 CID_55168613_JID_3629_Energie_neutraal
 --------------------------------------
 Structure from the checkpoint file:  "JID_3629.chk"
 Charge =  0 Multiplicity = 1

 SCF Done:  E(RB3LYP) =  -899.820090147     A.U. after   16 cycles
 Normal termination of Gaussian 16 at Mon Dec 14 18:58:38 2020.

 ----------------------------------------------------------------------
 # B3LYP/6-311++G(d,p) empiricaldispersion=gd3bj scf=xqc pop=npa geom=c
 heck
 ----------------------------------------------------------------------

 ------------------------------------
 CID_55168613_JID_3629_Energie_kation
 ------------------------------------
 Structure from the checkpoint file:  "JID_3629.chk"
 Charge =  1 Multiplicity = 2

 SCF Done:  E(UB3LYP) =  -899.527844396     A.U. after   23 cycles
 Normal termination of Gaussian 16 at Mon Dec 14 19:07:08 2020.
 Gaussian 16:  ES64L-G16RevA.03 25-Dec-2016

 ----------------------------------------------------------------------
 # B3LYP/6-311++G(d,p) empiricaldispersion=gd3bj scf=xqc pop=npa geom=c
 heck
 ----------------------------------------------------------------------

 -----------------------------------
 CID_55168613_JID_3629_Energie_anion
 -----------------------------------
 Structure from the checkpoint file:  "JID_3629.chk"
 Charge = -1 Multiplicity = 2

                         Standard orientation:
 ---------------------------------------------------------------------
 Center     Atomic      Atomic             Coordinates (Angstroms)
 Number     Number       Type             X           Y           Z
 ---------------------------------------------------------------------
      1          6           0       -3.018423    2.679072    0.421566
      2          6           0       -3.486552    1.537409   -0.493131
      3          6           0       -2.648273    0.301633   -0.330637
      4          6           0       -3.077385   -0.913470    0.125576
      5         16           0       -1.756884   -2.039652    0.180892
      6          6           0       -0.697808   -0.772068   -0.428653
      7          7           0       -1.299808    0.363072   -0.636017
      8          6           0        0.768148   -0.998092   -0.646427
      9          6           0        1.642191    0.012839    0.123224
     10          6           0        1.408652   -0.078344    1.638405
     11          7           0        3.031938   -0.187599   -0.295088
     12          6           0        3.955856    0.881140    0.079212
     13          6           0        5.353143    0.590526   -0.461137
     14          1           0       -3.112631    2.396834    1.476051
     15          1           0       -3.612103    3.584220    0.253612
     16          1           0       -1.967095    2.911435    0.226807
     17          1           0       -4.535354    1.292646   -0.290348
     18          1           0       -3.431432    1.866843   -1.538865
     19          1           0       -4.076592   -1.200504    0.421538
     20          1           0        1.036339   -2.019860   -0.349026
     21          1           0        1.000899   -0.901477   -1.712548
     22          1           0        1.348147    1.012536   -0.217716
     23          1           0        1.651024   -1.084657    2.005837
     24          1           0        2.033710    0.639202    2.179250
     25          1           0        0.364133    0.130262    1.891693
     26          1           0        3.371348   -1.069606    0.091123
     27          1           0        3.575195    1.811642   -0.361234
     28          1           0        4.015036    1.054432    1.169503
     29          1           0        5.323036    0.459341   -1.547297
     30          1           0        6.042895    1.407207   -0.221941
     31          1           0        5.761393   -0.328246   -0.020964
 ---------------------------------------------------------------------

 SCF Done:  E(UB3LYP) =  -899.805123111     A.U. after   33 cycles
 SCF Done:  E(UB3LYP) =  -899.805123111     a.u. after    1 cycles

 The electronic state is 2-A.
 Alpha  occ. eigenvalues --  -88.78050 -14.21081 -14.20196 -10.13770 -10.10731
 Alpha  occ. eigenvalues --  -10.10686 -10.09765 -10.09513 -10.08712 -10.07829
 Alpha  occ. eigenvalues --  -10.06589 -10.06375 -10.06176  -7.86688  -5.82947
 Alpha  occ. eigenvalues --   -5.82608  -5.82313  -0.86572  -0.81608  -0.71060
 Alpha  occ. eigenvalues --   -0.69744  -0.68257  -0.64244  -0.61726  -0.59158
 Alpha  occ. eigenvalues --   -0.53041  -0.51801  -0.49954  -0.48298  -0.43271
 Alpha  occ. eigenvalues --   -0.39575  -0.38626  -0.37220  -0.36210  -0.35541
 Alpha  occ. eigenvalues --   -0.34024  -0.32340  -0.31901  -0.31101  -0.30683
 Alpha  occ. eigenvalues --   -0.29631  -0.29208  -0.27547  -0.27168  -0.26526
 Alpha  occ. eigenvalues --   -0.25545  -0.25176  -0.25080  -0.24406  -0.24057
 Alpha  occ. eigenvalues --   -0.18468  -0.17766  -0.14113  -0.13379   0.04315
 Alpha virt. eigenvalues --    0.05556   0.06540   0.07188   0.07412   0.07857
 Alpha virt. eigenvalues --    0.08749   0.09071   0.09391   0.10019   0.10413
 Alpha virt. eigenvalues --    0.10871   0.11366   0.11621   0.12209   0.12458

  Beta  occ. eigenvalues --  -88.78041 -14.21078 -14.20183 -10.13704 -10.10727
  Beta  occ. eigenvalues --  -10.10676 -10.09749 -10.09436 -10.08713 -10.07812
  Beta  occ. eigenvalues --  -10.06555 -10.06350 -10.06155  -7.86679  -5.82942
  Beta  occ. eigenvalues --   -5.82604  -5.82287  -0.86520  -0.81582  -0.71007
  Beta  occ. eigenvalues --   -0.69674  -0.68223  -0.64190  -0.61674  -0.59113
  Beta  occ. eigenvalues --   -0.52966  -0.51717  -0.49900  -0.48224  -0.43207
  Beta  occ. eigenvalues --   -0.39525  -0.38576  -0.37169  -0.36168  -0.35501
  Beta  occ. eigenvalues --   -0.33990  -0.32262  -0.31836  -0.31065  -0.30637
  Beta  occ. eigenvalues --   -0.29578  -0.29141  -0.27497  -0.27114  -0.26480
  Beta  occ. eigenvalues --   -0.25504  -0.25133  -0.25042  -0.24368  -0.24020
  Beta  occ. eigenvalues --   -0.18325  -0.17750  -0.13874  -0.13318
  Beta virt. eigenvalues --    0.06392   0.06699   0.07020   0.07659   0.07977
  Beta virt. eigenvalues --    0.08256   0.08938   0.09319   0.09777   0.10294
  Beta virt. eigenvalues --    0.10636   0.11099   0.11577   0.11914   0.12387

 Mulliken charges and spin densities:
               1          2
     1  C    0.245599  -0.791600
     2  C    0.211182  -0.732340
     3  C   -0.818109   0.126238
     4  C    0.461331   0.036510
     5  S    0.063952  -0.513821
     6  C   -0.454442   0.707215
     7  N    0.083877   0.062716
     8  C    0.933214  -1.004587
     9  C   -1.137404   0.833056
    10  C    0.475555  -1.111017
    11  N    0.089585   0.020564
    12  C   -0.321476   0.238118
    13  C    0.913132  -1.456169
    14  H    0.018220   0.107366
    15  H   -0.266438   0.400884
    16  H    0.100311   0.058426
    17  H   -0.308403   0.463272
    18  H   -0.012618   0.160524
    19  H   -0.848090   1.120983
    20  H   -0.009004   0.150480
    21  H    0.207904   0.009069
    22  H    0.190517   0.004512
    23  H   -0.273955   0.416863
    24  H   -0.107960   0.245866
    25  H    0.133216   0.033971
    26  H    0.309926  -0.104092
    27  H   -0.036613   0.152305
    28  H   -0.112635   0.229385
    29  H    0.011165   0.135249
    30  H   -0.267659   0.399717
    31  H   -0.473880   0.600337
 Sum of Mulliken charges =  -1.00000   1.00000

 Dipole moment (field-independent basis, Debye):
    X=             -0.5228    Y=             -1.9275    Z=             -1.8097  Tot=              2.6951
 Quadrupole moment (field-independent basis, Debye-Ang):
   XX=           -209.6583   YY=           -125.4644   ZZ=           -119.2539
   XY=              3.0985   XZ=             -3.6232   YZ=              1.8082

 Summary of Natural Population Analysis:

                                       Natural Population
                Natural  -----------------------------------------------
    Atom  No    Charge         Core      Valence    Rydberg      Total
 -----------------------------------------------------------------------
      C    1   -0.28023      0.99966     2.27650    0.00407     3.28023
      C    2   -0.19982      0.99960     2.19078    0.00943     3.19982
      C    3    0.06684      0.99949     1.91843    0.01524     2.93316
      C    4   -0.19946      0.99945     2.18902    0.01099     3.19946
      S    5    0.18324      4.99942     2.79792    0.01942     7.81676
      C    6    0.05710      0.99960     1.92646    0.01684     2.94290
      N    7   -0.25463      0.99962     2.74428    0.01073     3.75463
      C    8   -0.21347      0.99955     2.20364    0.01027     3.21347
      C    9   -0.00566      0.99960     1.99406    0.01200     3.00566
      C   10   -0.29792      0.99964     2.29253    0.00574     3.29792
      N   11   -0.34198      0.99973     2.83069    0.01155     3.84198
      C   12   -0.08598      0.99964     2.07577    0.01057     3.08598
      C   13   -0.28728      0.99967     2.28211    0.00551     3.28728
      H   14    0.09658      0.00000     0.40211    0.00131     0.40342
      H   15    0.09672      0.00000     0.40199    0.00129     0.40328
      H   16    0.10235      0.00000     0.39619    0.00146     0.39765
      H   17    0.10184      0.00000     0.39647    0.00169     0.39816
      H   18    0.10194      0.00000     0.39685    0.00121     0.39806
      H   19    0.11357      0.00000     0.38450    0.00193     0.38643
      H   20    0.10063      0.00000     0.39837    0.00100     0.39937
      H   21    0.11580      0.00000     0.38283    0.00137     0.38420
      H   22    0.09665      0.00000     0.40058    0.00277     0.40335
      H   23    0.09521      0.00000     0.40344    0.00136     0.40479
      H   24    0.10124      0.00000     0.39772    0.00104     0.39876
      H   25    0.10596      0.00000     0.39306    0.00097     0.39404
      H   26    0.16812      0.00000     0.32901    0.00287     0.33188
      H   27    0.08833      0.00000     0.41020    0.00147     0.41167
      H   28    0.07976      0.00000     0.41845    0.00179     0.42024
      H   29    0.09829      0.00000     0.40059    0.00112     0.40171
      H   30    0.09967      0.00000     0.39918    0.00114     0.40033
      H   31    0.09657      0.00000     0.40193    0.00150     0.40343
 =======================================================================
   * Total *   -0.00000     16.99468    36.83566    0.16965    54.00000

 Normal termination of Gaussian 16 at Mon Dec 14 19:19:13 2020.
