 Gaussian 16, Revision A.03,

 -----------------------------------------------------------
 # opt freq B3LYP/6-31G(d) empiricaldispersion=gd3bj scf=xqc
 -----------------------------------------------------------

 -------------------------------
 CID_104168665_JID_5014_neutraal
 -------------------------------
 Symbolic Z-matrix:
 Charge =  0 Multiplicity = 1

 SCF Done:  E(RB3LYP) =  -654.026245184     A.U. after   14 cycles
 SCF Done:  E(RB3LYP) =  -654.031600559     A.U. after   12 cycles
 SCF Done:  E(RB3LYP) =  -654.032136752     A.U. after   12 cycles
 SCF Done:  E(RB3LYP) =  -654.033500434     A.U. after   12 cycles
 SCF Done:  E(RB3LYP) =  -654.034461899     A.U. after   12 cycles
 SCF Done:  E(RB3LYP) =  -654.035338809     A.U. after   14 cycles
 SCF Done:  E(RB3LYP) =  -654.036087855     A.U. after   11 cycles
 SCF Done:  E(RB3LYP) =  -654.036430575     A.U. after   11 cycles
 SCF Done:  E(RB3LYP) =  -654.036554824     A.U. after   11 cycles
 SCF Done:  E(RB3LYP) =  -654.036640751     A.U. after   11 cycles
 SCF Done:  E(RB3LYP) =  -654.036657519     A.U. after    8 cycles
 SCF Done:  E(RB3LYP) =  -654.036657823     A.U. after    7 cycles
 SCF Done:  E(RB3LYP) =  -654.036657993     A.U. after    8 cycles
 SCF Done:  E(RB3LYP) =  -654.036658066     A.U. after    7 cycles
 SCF Done:  E(RB3LYP) =  -654.036658098     A.U. after    7 cycles
 Optimization completed.
    -- Stationary point found.
 Normal termination of Gaussian 16 at Thu Dec 10 14:50:42 2020.

 --------------------------------------------------------------------
 #N Geom=AllCheck Guess=TCheck SCRF=Check GenChk RB3LYP/6-31G(d) Freq
 --------------------------------------------------------------------

 Structure from the checkpoint file:  "JID_5014.chk"
 -------------------------------
 CID_104168665_JID_5014_neutraal
 -------------------------------
 Charge =  0 Multiplicity = 1

 SCF Done:  E(RB3LYP) =  -654.036658098     A.U. after    1 cycles

  Exact polarizability: 162.355  -5.550 117.172   5.649   5.269 125.688
 Approx polarizability: 220.364  -9.038 162.109   7.466  13.164 204.512

                      1                      2                      3
                      A                      A                      A
 Frequencies --     23.6548                41.0560                68.8602
 Red. masses --      3.8885                 4.0224                 3.1640
 Frc consts  --      0.0013                 0.0040                 0.0088
 IR Inten    --      0.6276                 0.1305                 0.3866

                      4                      5                      6
                      A                      A                      A
 Frequencies --     85.4516                92.7858               116.9893
 Red. masses --      3.0574                 3.1205                 3.6741
 Frc consts  --      0.0132                 0.0158                 0.0296
 IR Inten    --      1.4609                 1.1924                 3.6502

                      7                      8                      9
                      A                      A                      A
 Frequencies --    172.4337               181.6666               193.3698
 Red. masses --      2.8212                 1.7270                 1.7664
 Frc consts  --      0.0494                 0.0336                 0.0389
 IR Inten    --      0.2648                 2.7733                 3.9325

                     10                     11                     12
                      A                      A                      A
 Frequencies --    235.6251               236.3857               266.1491
 Red. masses --      3.7395                 1.4550                 1.7517
 Frc consts  --      0.1223                 0.0479                 0.0731
 IR Inten    --      6.5856                24.8364                27.9888

                     13                     14                     15
                      A                      A                      A
 Frequencies --    288.3053               293.7574               321.0636
 Red. masses --      2.8133                 1.2532                 3.0532
 Frc consts  --      0.1378                 0.0637                 0.1854
 IR Inten    --      0.6463                 2.9989                 3.5781

                     16                     17                     18
                      A                      A                      A
 Frequencies --    327.1076               370.9136               418.9627
 Red. masses --      2.5917                 2.7695                 2.0673
 Frc consts  --      0.1634                 0.2245                 0.2138
 IR Inten    --      0.4698                12.1815                 0.4657

                     19                     20                     21
                      A                      A                      A
 Frequencies --    462.4740               481.8046               506.6808
 Red. masses --      3.0941                 3.2736                 3.2839
 Frc consts  --      0.3899                 0.4477                 0.4967
 IR Inten    --      3.6436                 1.3605                 2.2401

                     22                     23                     24
                      A                      A                      A
 Frequencies --    598.7812               639.3660               668.8193
 Red. masses --      3.3582                 4.1210                 2.4214
 Frc consts  --      0.7094                 0.9925                 0.6382
 IR Inten    --      1.5321                 7.0340                 1.5245

                     25                     26                     27
                      A                      A                      A
 Frequencies --    684.2902               723.4354               741.1554
 Red. masses --      1.4675                 2.0343                 3.7071
 Frc consts  --      0.4049                 0.6273                 1.1998
 IR Inten    --      4.8143                11.5836                13.0744

                     28                     29                     30
                      A                      A                      A
 Frequencies --    775.2678               789.6750               804.3942
 Red. masses --      1.4687                 1.5474                 2.3908
 Frc consts  --      0.5201                 0.5685                 0.9114
 IR Inten    --     10.0149                47.6355                 9.1810

                     31                     32                     33
                      A                      A                      A
 Frequencies --    820.4221               823.5822               842.7660
 Red. masses --      1.3509                 1.4337                 1.2847
 Frc consts  --      0.5357                 0.5729                 0.5376
 IR Inten    --      5.9607                24.1044                17.3496

                     34                     35                     36
                      A                      A                      A
 Frequencies --    912.4841               923.4718               928.5601
 Red. masses --      2.7463                 1.7633                 2.1476
 Frc consts  --      1.3473                 0.8860                 1.0910
 IR Inten    --     10.7816                 0.7516                72.6447

                     37                     38                     39
                      A                      A                      A
 Frequencies --    946.5695               993.2901              1019.6550
 Red. masses --      3.6125                 3.0955                 3.1869
 Frc consts  --      1.9070                 1.7994                 1.9522
 IR Inten    --      8.9850                28.0968                69.7269

                     40                     41                     42
                      A                      A                      A
 Frequencies --   1025.0918              1041.5220              1062.7354
 Red. masses --      2.4786                 2.4057                 1.3278
 Frc consts  --      1.5346                 1.5376                 0.8836
 IR Inten    --     17.8483                13.5116                 9.1692

                     43                     44                     45
                      A                      A                      A
 Frequencies --   1082.8405              1087.7492              1090.6715
 Red. masses --      1.5534                 1.5778                 1.7345
 Frc consts  --      1.0731                 1.0999                 1.2157
 IR Inten    --      2.0712                17.1028                22.6726

                     46                     47                     48
                      A                      A                      A
 Frequencies --   1107.2159              1128.5769              1135.0680
 Red. masses --      1.4085                 1.7707                 1.3984
 Frc consts  --      1.0173                 1.3288                 1.0615
 IR Inten    --     10.9547                12.4279                 8.2921

                     49                     50                     51
                      A                      A                      A
 Frequencies --   1153.4239              1182.5433              1185.0675
 Red. masses --      1.1551                 1.3603                 1.2955
 Frc consts  --      0.9054                 1.1208                 1.0719
 IR Inten    --      2.4764                 5.9945                 3.3984

                     52                     53                     54
                      A                      A                      A
 Frequencies --   1203.9012              1213.6506              1217.4458
 Red. masses --      2.0791                 1.7093                 1.8423
 Frc consts  --      1.7755                 1.4834                 1.6088
 IR Inten    --     24.0293                38.2727                38.5464

                     55                     56                     57
                      A                      A                      A
 Frequencies --   1232.6193              1246.1990              1257.9686
 Red. masses --      1.4062                 1.9659                 1.5678
 Frc consts  --      1.2588                 1.7988                 1.4618
 IR Inten    --      1.4053                13.7054                15.2906

                     58                     59                     60
                      A                      A                      A
 Frequencies --   1296.8289              1337.1383              1364.0264
 Red. masses --      1.5026                 1.4968                 1.6491
 Frc consts  --      1.4889                 1.5768                 1.8078
 IR Inten    --     12.2912                13.7440                 2.7682

                     61                     62                     63
                      A                      A                      A
 Frequencies --   1381.8454              1396.5025              1397.5853
 Red. masses --      2.4728                 1.4256                 1.3308
 Frc consts  --      2.7820                 1.6380                 1.5315
 IR Inten    --     33.3568                 2.5326                 5.9318

                     64                     65                     66
                      A                      A                      A
 Frequencies --   1417.6645              1429.6526              1435.7176
 Red. masses --      1.2931                 3.0749                 1.5645
 Frc consts  --      1.5312                 3.7029                 1.9001
 IR Inten    --     31.8432                 1.3604                11.4448

                     67                     68                     69
                      A                      A                      A
 Frequencies --   1452.3229              1459.8847              1485.9568
 Red. masses --      1.9602                 1.9516                 1.0911
 Frc consts  --      2.4359                 2.4506                 1.4195
 IR Inten    --     11.5668                 3.7112                 3.4760

                     70                     71                     72
                      A                      A                      A
 Frequencies --   1502.3301              1505.9797              1519.5592
 Red. masses --      1.1716                 1.1396                 1.0496
 Frc consts  --      1.5579                 1.5228                 1.4279
 IR Inten    --      7.5898                 7.6825                 2.0059

                     73                     74                     75
                      A                      A                      A
 Frequencies --   1527.4084              1531.0874              1536.3051
 Red. masses --      1.1166                 1.2909                 1.0855
 Frc consts  --      1.5349                 1.7829                 1.5095
 IR Inten    --      6.4097                 5.5383                 4.8265

                     76                     77                     78
                      A                      A                      A
 Frequencies --   1542.6586              1551.0408              1612.7570
 Red. masses --      1.0712                 2.6319                 4.9984
 Frc consts  --      1.5019                 3.7305                 7.6599
 IR Inten    --      0.6712                44.0321                 7.2074

                     79                     80                     81
                      A                      A                      A
 Frequencies --   1699.3176              3031.0161              3034.7043
 Red. masses --      1.0857                 1.0515                 1.0844
 Frc consts  --      1.8472                 5.6917                 5.8843
 IR Inten    --     25.6859                61.7375                35.1855

                     82                     83                     84
                      A                      A                      A
 Frequencies --   3035.6892              3060.1148              3066.2156
 Red. masses --      1.0719                 1.0495                 1.0521
 Frc consts  --      5.8198                 5.7902                 5.8279
 IR Inten    --     22.0883                29.6775                45.4678

                     85                     86                     87
                      A                      A                      A
 Frequencies --   3105.4811              3122.1451              3123.8154
 Red. masses --      1.0944                 1.1016                 1.0866
 Frc consts  --      6.2186                 6.3267                 6.2472
 IR Inten    --     25.4589                15.3834                37.1869

                     88                     89                     90
                      A                      A                      A
 Frequencies --   3127.7055              3140.7081              3146.3922
 Red. masses --      1.1017                 1.1043                 1.0553
 Frc consts  --      6.3499                 6.4181                 6.1555
 IR Inten    --     26.7777                21.1579                29.1787

                     91                     92                     93
                      A                      A                      A
 Frequencies --   3147.6276              3149.5113              3222.6722
 Red. masses --      1.0951                 1.0611                 1.1183
 Frc consts  --      6.3925                 6.2015                 6.8427
 IR Inten    --     20.7101                15.5629                 0.5969

                     94                     95                     96
                      A                      A                      A
 Frequencies --   3234.4553              3253.7709              3267.8771
 Red. masses --      1.1156                 1.0910                 1.0957
 Frc consts  --      6.8764                 6.8056                 6.8940
 IR Inten    --     27.6831                 3.8576                 1.2189

                     97                     98                     99
                      A                      A                      A
 Frequencies --   3282.5160              3442.3307              3525.0406
 Red. masses --      1.1018                 1.0496                 1.0910
 Frc consts  --      6.9947                 7.3280                 7.9876
 IR Inten    --      1.3923                 4.3032                 2.9503

 - Thermochemistry -
 -------------------
 Temperature   298.150 Kelvin.  Pressure   1.00000 Atm.
 Atom     1 has atomic number  6 and mass  12.00000

 Molecular mass:   208.15756 amu.
 Principal axes and moments of inertia in atomic units:
                           1         2         3
     Eigenvalues --  1801.812304561.994575175.38319
           X            0.99993  -0.00410   0.01140
           Y            0.00398   0.99994   0.01018
           Z           -0.01144  -0.01014   0.99988
 This molecule is an asymmetric top.
 Rotational symmetry number  1.
 Warning -- assumption of classical behavior for rotation
           may cause significant error
 Rotational temperatures (Kelvin)      0.04807     0.01899     0.01674
 Rotational constants (GHZ):           1.00163     0.39560     0.34872
 Zero-point vibrational energy     815728.4 (Joules/Mol)
                                  194.96376 (Kcal/Mol)
 Warning -- explicit consideration of  22 degrees of freedom as
           vibrations may cause significant error
 Vibrational temperatures:     34.03    59.07    99.07   122.95   133.50
          (Kelvin)            168.32   248.09   261.38   278.22   339.01
                              340.11   382.93   414.81   422.65   461.94
                              470.63   533.66   602.79   665.40   693.21
                              729.00   861.51   919.91   962.28   984.54
                             1040.86  1066.36  1115.44  1136.17  1157.34
                             1180.40  1184.95  1212.55  1312.86  1328.67
                             1335.99  1361.90  1429.12  1467.06  1474.88
                             1498.52  1529.04  1557.97  1565.03  1569.23
                             1593.04  1623.77  1633.11  1659.52  1701.42
                             1705.05  1732.15  1746.17  1751.63  1773.46
                             1793.00  1809.94  1865.85  1923.84  1962.53
                             1988.17  2009.26  2010.81  2039.70  2056.95
                             2065.68  2089.57  2100.45  2137.96  2161.52
                             2166.77  2186.31  2197.60  2202.89  2210.40
                             2219.54  2231.60  2320.40  2444.94  4360.96
                             4366.26  4367.68  4402.82  4411.60  4468.09
                             4492.07  4494.47  4500.07  4518.78  4526.96
                             4528.73  4531.44  4636.71  4653.66  4681.45
                             4701.75  4722.81  4952.75  5071.75

 Zero-point correction=                           0.310695 (Hartree/Particle)
 Thermal correction to Energy=                    0.326496
 Thermal correction to Enthalpy=                  0.327440
 Thermal correction to Gibbs Free Energy=         0.266986
 Sum of electronic and zero-point Energies=           -653.725964
 Sum of electronic and thermal Energies=              -653.710162
 Sum of electronic and thermal Enthalpies=            -653.709218
 Sum of electronic and thermal Free Energies=         -653.769672

                     E (Thermal)             CV                S
                      KCal/Mol        Cal/Mol-Kelvin    Cal/Mol-Kelvin
 Total                  204.879             60.128            127.235
 Electronic               0.000              0.000              0.000
 Translational            0.889              2.981             41.903
 Rotational               0.889              2.981             32.120
 Vibrational            203.102             54.167             53.212
 Vibration     1          0.593              1.985              6.301
 Vibration     2          0.594              1.981              5.207
 Vibration     3          0.598              1.969              4.186
 Vibration     4          0.601              1.959              3.762
 Vibration     5          0.602              1.954              3.600
 Vibration     6          0.608              1.935              3.150
 Vibration     7          0.626              1.876              2.409
 Vibration     8          0.630              1.865              2.311
 Vibration     9          0.635              1.849              2.195
 Vibration    10          0.655              1.786              1.836
 Vibration    11          0.655              1.785              1.830
 Vibration    12          0.672              1.735              1.621
 Vibration    13          0.685              1.695              1.484
 Vibration    14          0.689              1.685              1.452
 Vibration    15          0.707              1.633              1.305
 Vibration    16          0.711              1.621              1.274
 Vibration    17          0.743              1.532              1.076
 Vibration    18          0.782              1.429              0.895
 Vibration    19          0.820              1.333              0.759
 Vibration    20          0.838              1.290              0.705
 Vibration    21          0.862              1.235              0.642
 Vibration    22          0.957              1.034              0.452

                           ! Non-Optimized Parameters !
 Normal termination of Gaussian 16 at Thu Dec 10 15:02:54 2020.

 ----------------------------------------------------------------------
 # B3LYP/6-311++G(d,p) empiricaldispersion=gd3bj scf=xqc pop=npa geom=c
 heck
 ----------------------------------------------------------------------

 ---------------------------------------
 CID_104168665_JID_5014_Energie_neutraal
 ---------------------------------------
 Structure from the checkpoint file:  "JID_5014.chk"
 Charge =  0 Multiplicity = 1

 SCF Done:  E(RB3LYP) =  -654.225383717     A.U. after   15 cycles
 Normal termination of Gaussian 16 at Thu Dec 10 15:09:06 2020.

 ----------------------------------------------------------------------
 # B3LYP/6-311++G(d,p) empiricaldispersion=gd3bj scf=xqc pop=npa geom=c
 heck
 ----------------------------------------------------------------------

 -------------------------------------
 CID_104168665_JID_5014_Energie_kation
 -------------------------------------
 Structure from the checkpoint file:  "JID_5014.chk"
 Charge =  1 Multiplicity = 2

 SCF Done:  E(UB3LYP) =  -653.942339074     A.U. after   26 cycles
 Normal termination of Gaussian 16 at Thu Dec 10 15:23:46 2020.
 Gaussian 16:  ES64L-G16RevA.03 25-Dec-2016

 ----------------------------------------------------------------------
 # B3LYP/6-311++G(d,p) empiricaldispersion=gd3bj scf=xqc pop=npa geom=c
 heck
 ----------------------------------------------------------------------

 ------------------------------------
 CID_104168665_JID_5014_Energie_anion
 ------------------------------------
 Structure from the checkpoint file:  "JID_5014.chk"
 Charge = -1 Multiplicity = 2

                         Standard orientation:
 ---------------------------------------------------------------------
 Center     Atomic      Atomic             Coordinates (Angstroms)
 Number     Number       Type             X           Y           Z
 ---------------------------------------------------------------------
      1          6           0        2.643133    1.108707    1.430612
      2          6           0        3.102646    0.080744    0.396938
      3          6           0        2.413365   -1.292961    0.543125
      4          7           0        1.009917   -1.306725    0.177479
      5          6           0        0.530977   -1.596038   -1.079457
      6          6           0       -0.823198   -1.341177   -1.096362
      7          6           0       -1.193253   -0.876360    0.204649
      8          6           0       -0.036996   -0.866849    0.960408
      9          6           0       -2.557461   -0.442632    0.671724
     10          6           0       -2.848639    1.040303    0.399986
     11          6           0       -1.789469    2.109926    0.437617
     12          6           0       -2.418052    1.716016   -0.878347
     13          7           0       -3.592700   -1.327888    0.101625
     14          8           0        3.039920    0.527764   -0.954267
     15          6           0        1.961899    1.380600   -1.319755
     16          1           0        1.572610    1.317710    1.358499
     17          1           0        3.190460    2.048074    1.305314
     18          1           0        2.845407    0.731259    2.439034
     19          1           0        4.170576   -0.110962    0.569112
     20          1           0        2.926044   -2.006349   -0.107704
     21          1           0        2.516567   -1.648303    1.575374
     22          1           0        1.202354   -1.940836   -1.851893
     23          1           0       -1.483417   -1.508543   -1.936204
     24          1           0        0.118809   -0.606552    1.997403
     25          1           0       -2.598341   -0.585144    1.759917
     26          1           0       -3.825607    1.340364    0.780673
     27          1           0       -2.044710    3.074212    0.868528
     28          1           0       -0.765372    1.792309    0.610236
     29          1           0       -1.802521    1.145112   -1.567665
     30          1           0       -3.104965    2.410418   -1.354289
     31          1           0       -4.501989   -1.026842    0.454207
     32          1           0       -3.633644   -1.160052   -0.904394
     33          1           0        0.978875    0.943230   -1.116657
     34          1           0        2.029129    2.360207   -0.827727
     35          1           0        2.060151    1.529205   -2.398174
 ---------------------------------------------------------------------

 SCF Done:  E(UB3LYP) =  -654.212144323     A.U. after   33 cycles
 SCF Done:  E(UB3LYP) =  -654.212144323     a.u. after    1 cycles

 The electronic state is 2-A.
 Alpha  occ. eigenvalues --  -19.02943 -14.26502 -14.19866 -10.13218 -10.11585
 Alpha  occ. eigenvalues --  -10.11362 -10.10981 -10.09456 -10.09116 -10.07897
 Alpha  occ. eigenvalues --  -10.07207 -10.07163 -10.06824 -10.06692 -10.06190
 Alpha  occ. eigenvalues --   -0.94012  -0.89023  -0.80016  -0.75203  -0.72107
 Alpha  occ. eigenvalues --   -0.67056  -0.63526  -0.61007  -0.59686  -0.56834
 Alpha  occ. eigenvalues --   -0.50438  -0.49768  -0.49024  -0.46110  -0.45264
 Alpha  occ. eigenvalues --   -0.42732  -0.40689  -0.40057  -0.39065  -0.37456
 Alpha  occ. eigenvalues --   -0.37175  -0.36709  -0.33921  -0.32763  -0.32752
 Alpha  occ. eigenvalues --   -0.31808  -0.31642  -0.30384  -0.29633  -0.28667
 Alpha  occ. eigenvalues --   -0.27566  -0.27302  -0.26801  -0.26205  -0.25550
 Alpha  occ. eigenvalues --   -0.21535  -0.20770  -0.19272  -0.17001  -0.14979
 Alpha  occ. eigenvalues --   -0.13918  -0.12149   0.04172
 Alpha virt. eigenvalues --    0.05556   0.07076   0.07135   0.08088   0.08255
 Alpha virt. eigenvalues --    0.08486   0.09494   0.10095   0.10462   0.10653
 Alpha virt. eigenvalues --    0.11030   0.11943   0.12040   0.12347   0.13235

  Beta  occ. eigenvalues --  -19.02942 -14.26504 -14.19850 -10.13203 -10.11559
  Beta  occ. eigenvalues --  -10.11352 -10.10976 -10.09447 -10.09101 -10.07883
  Beta  occ. eigenvalues --  -10.07193 -10.07151 -10.06789 -10.06691 -10.06185
  Beta  occ. eigenvalues --   -0.94002  -0.89015  -0.79990  -0.75177  -0.72079
  Beta  occ. eigenvalues --   -0.67023  -0.63503  -0.60961  -0.59658  -0.56799
  Beta  occ. eigenvalues --   -0.50397  -0.49727  -0.48996  -0.46073  -0.45234
  Beta  occ. eigenvalues --   -0.42695  -0.40648  -0.40025  -0.39035  -0.37420
  Beta  occ. eigenvalues --   -0.37137  -0.36674  -0.33900  -0.32743  -0.32727
  Beta  occ. eigenvalues --   -0.31788  -0.31615  -0.30351  -0.29595  -0.28638
  Beta  occ. eigenvalues --   -0.27536  -0.27274  -0.26777  -0.26174  -0.25525
  Beta  occ. eigenvalues --   -0.21515  -0.20746  -0.19249  -0.16989  -0.14961
  Beta  occ. eigenvalues --   -0.13902  -0.12113
  Beta virt. eigenvalues --    0.06300   0.06816   0.07425   0.07603   0.08608
  Beta virt. eigenvalues --    0.08751   0.09126   0.09656   0.10489   0.10988
  Beta virt. eigenvalues --    0.11103   0.11390   0.12128   0.12294   0.12636

 Mulliken charges and spin densities:
               1          2
     1  C    1.498044  -1.968635
     2  C   -1.353671   1.422534
     3  C    0.864652  -1.420614
     4  N    0.188340   0.106680
     5  C   -0.444585  -0.056191
     6  C   -0.256655   0.551505
     7  C   -0.238549   0.598765
     8  C    0.452733  -1.135572
     9  C    0.013154  -0.798097
    10  C    0.143335  -0.059422
    11  C    0.469873  -0.820696
    12  C   -0.066263  -0.355730
    13  N   -0.333228   0.018784
    14  O   -0.086707  -0.013411
    15  C   -0.215440  -0.252184
    16  H    0.166209  -0.020711
    17  H   -0.187743   0.345174
    18  H   -0.414579   0.576137
    19  H   -0.722802   0.949734
    20  H    0.025228   0.162994
    21  H   -0.464834   0.638588
    22  H    0.026983   0.115270
    23  H    0.005071   0.149421
    24  H    0.029125   0.146339
    25  H   -0.013098   0.236472
    26  H   -0.416158   0.657578
    27  H   -0.202248   0.376323
    28  H   -0.092999   0.191264
    29  H    0.103150   0.056874
    30  H   -0.319458   0.493838
    31  H    0.055749   0.170081
    32  H    0.180067   0.021820
    33  H    0.573229  -0.317937
    34  H   -0.015298   0.152734
    35  H    0.049374   0.080292
 Sum of Mulliken charges =  -1.00000   1.00000

 Dipole moment (field-independent basis, Debye):
    X=             -1.2504    Y=             -0.8291    Z=             -4.2850  Tot=              4.5400
 Quadrupole moment (field-independent basis, Debye-Ang):
   XX=           -182.5185   YY=           -139.2633   ZZ=           -129.9566
   XY=              6.0542   XZ=             -8.0684   YZ=              2.1999

 Summary of Natural Population Analysis:

                                       Natural Population
                Natural  -----------------------------------------------
    Atom  No    Charge         Core      Valence    Rydberg      Total
 -----------------------------------------------------------------------
      C    1   -0.30562      0.99964     2.29995    0.00604     3.30562
      C    2    0.06380      0.99955     1.91992    0.01673     2.93620
      C    3   -0.08821      0.99958     2.07568    0.01295     3.08821
      N    4   -0.20611      0.99965     2.69487    0.01159     3.70611
      C    5   -0.01559      0.99956     2.00413    0.01190     3.01559
      C    6   -0.14841      0.99951     2.14071    0.00820     3.14841
      C    7   -0.05594      0.99951     2.04373    0.01270     3.05594
      C    8   -0.01625      0.99948     2.00531    0.01147     3.01625
      C    9   -0.01879      0.99953     2.00608    0.01318     3.01879
      C   10   -0.11729      0.99958     2.10408    0.01363     3.11729
      C   11   -0.19986      0.99961     2.19104    0.00922     3.19986
      C   12   -0.20480      0.99961     2.19559    0.00960     3.20480
      N   13   -0.41283      0.99978     2.90360    0.00944     3.91283
      O   14   -0.30507      0.99988     3.29560    0.00959     4.30507
      C   15   -0.10070      0.99959     2.09279    0.00833     3.10070
      H   16    0.10059      0.00000     0.39749    0.00192     0.39941
      H   17    0.10435      0.00000     0.39461    0.00104     0.39565
      H   18    0.10892      0.00000     0.38902    0.00206     0.39108
      H   19    0.09333      0.00000     0.40398    0.00269     0.40667
      H   20    0.10271      0.00000     0.39590    0.00139     0.39729
      H   21    0.10429      0.00000     0.39373    0.00197     0.39571
      H   22    0.10181      0.00000     0.39723    0.00096     0.39819
      H   23    0.10380      0.00000     0.39540    0.00080     0.39620
      H   24    0.10439      0.00000     0.39422    0.00138     0.39561
      H   25    0.09632      0.00000     0.40202    0.00166     0.40368
      H   26    0.10233      0.00000     0.39520    0.00247     0.39767
      H   27    0.10171      0.00000     0.39725    0.00104     0.39829
      H   28    0.10460      0.00000     0.39359    0.00182     0.39540
      H   29    0.10521      0.00000     0.39335    0.00143     0.39479
      H   30    0.10165      0.00000     0.39721    0.00114     0.39835
      H   31    0.17191      0.00000     0.32644    0.00165     0.32809
      H   32    0.16906      0.00000     0.32911    0.00183     0.33094
      H   33    0.08787      0.00000     0.41012    0.00201     0.41213
      H   34    0.07893      0.00000     0.41986    0.00121     0.42107
      H   35    0.08791      0.00000     0.41115    0.00095     0.41209
 =======================================================================
   * Total *    0.00000     14.99405    41.80997    0.19598    57.00000

 Normal termination of Gaussian 16 at Thu Dec 10 15:46:23 2020.
