 Gaussian 16, Revision A.03,

 -----------------------------------------------------------
 # opt freq B3LYP/6-31G(d) empiricaldispersion=gd3bj scf=xqc
 -----------------------------------------------------------

 ------------------------------
 CID_13797176_JID_1721_neutraal
 ------------------------------
 Symbolic Z-matrix:
 Charge =  0 Multiplicity = 1

 SCF Done:  E(RB3LYP) =  -801.378402659     A.U. after   15 cycles
 SCF Done:  E(RB3LYP) =  -801.381978636     A.U. after   12 cycles
 SCF Done:  E(RB3LYP) =  -801.382505298     A.U. after   11 cycles
 SCF Done:  E(RB3LYP) =  -801.382765402     A.U. after   11 cycles
 SCF Done:  E(RB3LYP) =  -801.383043347     A.U. after   12 cycles
 SCF Done:  E(RB3LYP) =  -801.383249427     A.U. after   12 cycles
 SCF Done:  E(RB3LYP) =  -801.383534683     A.U. after   11 cycles
 SCF Done:  E(RB3LYP) =  -801.383905844     A.U. after   12 cycles
 SCF Done:  E(RB3LYP) =  -801.383965937     A.U. after   10 cycles
 SCF Done:  E(RB3LYP) =  -801.383958776     A.U. after   11 cycles
 SCF Done:  E(RB3LYP) =  -801.384516379     A.U. after   11 cycles
 SCF Done:  E(RB3LYP) =  -801.384538065     A.U. after   11 cycles
 SCF Done:  E(RB3LYP) =  -801.384541335     A.U. after    9 cycles
 SCF Done:  E(RB3LYP) =  -801.384541472     A.U. after    7 cycles
 SCF Done:  E(RB3LYP) =  -801.384541486     A.U. after    6 cycles
 Optimization completed.
    -- Stationary point found.
 Normal termination of Gaussian 16 at Tue Dec  8 21:01:19 2020.

 --------------------------------------------------------------------
 #N Geom=AllCheck Guess=TCheck SCRF=Check GenChk RB3LYP/6-31G(d) Freq
 --------------------------------------------------------------------

 Structure from the checkpoint file:  "JID_1721.chk"
 ------------------------------
 CID_13797176_JID_1721_neutraal
 ------------------------------
 Charge =  0 Multiplicity = 1

 SCF Done:  E(RB3LYP) =  -801.384541486     A.U. after    1 cycles

  Exact polarizability: 160.991   7.440 126.914   0.000  -0.000  53.455
 Approx polarizability: 251.364  15.860 231.099   0.001  -0.000  84.116

                      1                      2                      3
                      A                      A                      A
 Frequencies --     89.5786               116.8354               122.1956
 Red. masses --      1.1299                 1.6278                 1.5739
 Frc consts  --      0.0053                 0.0131                 0.0138
 IR Inten    --      0.7893                 0.3728                 0.9172

                      4                      5                      6
                      A                      A                      A
 Frequencies --    160.5517               207.1341               247.9331
 Red. masses --      3.6207                 3.1025                 3.5853
 Frc consts  --      0.0550                 0.0784                 0.1299
 IR Inten    --      1.0199                 1.5287                 2.6557

                      7                      8                      9
                      A                      A                      A
 Frequencies --    305.0021               306.3597               444.5816
 Red. masses --      4.2104                 3.1319                 6.5997
 Frc consts  --      0.2308                 0.1732                 0.7686
 IR Inten    --      0.4607                 1.0749                 0.9195

                     10                     11                     12
                      A                      A                      A
 Frequencies --    470.4837               500.5841               512.5293
 Red. masses --      5.2026                 4.6439                 4.0244
 Frc consts  --      0.6785                 0.6856                 0.6229
 IR Inten    --      1.1504                 0.4537                 0.0722

                     13                     14                     15
                      A                      A                      A
 Frequencies --    520.3530               606.5547               614.9542
 Red. masses --      4.4245                 5.8027                 4.7882
 Frc consts  --      0.7059                 1.2578                 1.0669
 IR Inten    --      0.0194                 2.2066                 0.5684

                     16                     17                     18
                      A                      A                      A
 Frequencies --    632.0066               678.0743               740.7139
 Red. masses --      5.7227                 7.3372                 2.6759
 Frc consts  --      1.3468                 1.9876                 0.8650
 IR Inten    --     22.5304                 3.8414                 6.4910

                     19                     20                     21
                      A                      A                      A
 Frequencies --    801.3499               806.2024               905.6198
 Red. masses --      1.6223                 5.7128                 1.3589
 Frc consts  --      0.6138                 2.1877                 0.6566
 IR Inten    --     32.6008                 2.6746                 0.5100

                     22                     23                     24
                      A                      A                      A
 Frequencies --    970.7126               981.0817              1022.3445
 Red. masses --      1.2743                 2.0521                 1.8074
 Frc consts  --      0.7074                 1.1637                 1.1130
 IR Inten    --      0.4261                10.5568                 5.8219

                     25                     26                     27
                      A                      A                      A
 Frequencies --   1063.9140              1064.8178              1074.9795
 Red. masses --      1.4306                 4.3733                 1.4881
 Frc consts  --      0.9541                 2.9215                 1.0132
 IR Inten    --      1.2367                 5.9010                 2.2399

                     28                     29                     30
                      A                      A                      A
 Frequencies --   1089.3376              1124.0159              1193.0138
 Red. masses --      2.8089                 1.6831                 2.3796
 Frc consts  --      1.9639                 1.2529                 1.9954
 IR Inten    --     15.6313                 7.2410                44.5063

                     31                     32                     33
                      A                      A                      A
 Frequencies --   1199.1342              1291.3817              1311.7111
 Red. masses --      1.5552                 1.6859                 5.5920
 Frc consts  --      1.3175                 1.6565                 5.6688
 IR Inten    --     16.6672                 0.2341                 7.9915

                     34                     35                     36
                      A                      A                      A
 Frequencies --   1366.8164              1432.9483              1442.2550
 Red. masses --      6.2357                 1.2808                 2.5708
 Frc consts  --      6.8636                 1.5495                 3.1507
 IR Inten    --     10.1218                 2.1131                 9.7559

                     37                     38                     39
                      A                      A                      A
 Frequencies --   1444.4756              1504.7747              1505.7525
 Red. masses --      1.2756                 1.0976                 1.0431
 Frc consts  --      1.5681                 1.4643                 1.3934
 IR Inten    --      1.9029                14.5191                10.3028

                     40                     41                     42
                      A                      A                      A
 Frequencies --   1512.1945              1523.5612              1528.0746
 Red. masses --      1.0430                 1.4421                 1.8200
 Frc consts  --      1.4053                 1.9722                 2.5039
 IR Inten    --      7.2389                 4.9928                17.8443

                     43                     44                     45
                      A                      A                      A
 Frequencies --   1604.5524              1630.5896              1656.9981
 Red. masses --      6.6047                 6.7779                 6.4082
 Frc consts  --     10.0187                10.6178                10.3664
 IR Inten    --     34.4798                18.1593                 7.2991

                     46                     47                     48
                      A                      A                      A
 Frequencies --   3040.0350              3056.9231              3089.6665
 Red. masses --      1.0381                 1.0371                 1.1007
 Frc consts  --      5.6524                 5.7101                 6.1910
 IR Inten    --     21.4746                17.0945                16.3937

                     49                     50                     51
                      A                      A                      A
 Frequencies --   3112.3966              3132.2025              3161.7565
 Red. masses --      1.1013                 1.1001                 1.1011
 Frc consts  --      6.2855                 6.3591                 6.4851
 IR Inten    --      9.5886                18.2027                 4.7030

                     52                     53                     54
                      A                      A                      A
 Frequencies --   3184.7223              3202.9322              3223.3252
 Red. masses --      1.0874                 1.0913                 1.0947
 Frc consts  --      6.4981                 6.5963                 6.7012
 IR Inten    --      9.4028                20.3416                11.9097

 - Thermochemistry -
 -------------------
 Temperature   298.150 Kelvin.  Pressure   1.00000 Atm.
 Atom     1 has atomic number  6 and mass  12.00000

 Molecular mass:   163.04557 amu.
 Principal axes and moments of inertia in atomic units:
                           1         2         3
     Eigenvalues --  1000.063382157.553163135.15420
           X            0.99968  -0.02522  -0.00000
           Y            0.02522   0.99968  -0.00000
           Z            0.00000   0.00000   1.00000
 This molecule is an asymmetric top.
 Rotational symmetry number  1.
 Warning -- assumption of classical behavior for rotation
           may cause significant error
 Rotational temperatures (Kelvin)      0.08661     0.04014     0.02763
 Rotational constants (GHZ):           1.80463     0.83648     0.57565
 Zero-point vibrational energy     415899.7 (Joules/Mol)
                                   99.40241 (Kcal/Mol)
 Warning -- explicit consideration of  15 degrees of freedom as
           vibrations may cause significant error
 Vibrational temperatures:    128.88   168.10   175.81   231.00   298.02
          (Kelvin)            356.72   438.83   440.78   639.65   676.92
                              720.23   737.42   748.67   872.70   884.78
                              909.32   975.60  1065.72  1152.96  1159.95
                             1302.98  1396.64  1411.56  1470.93  1530.73
                             1532.04  1546.66  1567.31  1617.21  1716.48
                             1725.29  1858.01  1887.26  1966.54  2061.69
                             2075.08  2078.28  2165.04  2166.44  2175.71
                             2192.06  2198.56  2308.59  2346.05  2384.05
                             4373.93  4398.23  4445.34  4478.04  4506.54
                             4549.06  4582.11  4608.31  4637.65

 Zero-point correction=                           0.158408 (Hartree/Particle)
 Thermal correction to Energy=                    0.168287
 Thermal correction to Enthalpy=                  0.169231
 Thermal correction to Gibbs Free Energy=         0.123033
 Sum of electronic and zero-point Energies=           -801.226134
 Sum of electronic and thermal Energies=              -801.216255
 Sum of electronic and thermal Enthalpies=            -801.215311
 Sum of electronic and thermal Free Energies=         -801.261509

                     E (Thermal)             CV                S
                      KCal/Mol        Cal/Mol-Kelvin    Cal/Mol-Kelvin
 Total                  105.601             37.591             97.233
 Electronic               0.000              0.000              0.000
 Translational            0.889              2.981             41.175
 Rotational               0.889              2.981             30.293
 Vibrational            103.824             31.630             25.764
 Vibration     1          0.602              1.957              3.669
 Vibration     2          0.608              1.935              3.152
 Vibration     3          0.610              1.931              3.065
 Vibration     4          0.622              1.891              2.543
 Vibration     5          0.641              1.830              2.069
 Vibration     6          0.662              1.766              1.745
 Vibration     7          0.696              1.664              1.389
 Vibration     8          0.697              1.662              1.382
 Vibration     9          0.804              1.373              0.812
 Vibration    10          0.828              1.316              0.736
 Vibration    11          0.856              1.249              0.657
 Vibration    12          0.868              1.222              0.628
 Vibration    13          0.875              1.205              0.609
 Vibration    14          0.965              1.018              0.439
 Vibration    15          0.974              1.000              0.425

 Optimization completed.
    -- Stationary point found.
 Normal termination of Gaussian 16 at Tue Dec  8 21:05:04 2020.

 ----------------------------------------------------------------------
 # B3LYP/6-311++G(d,p) empiricaldispersion=gd3bj scf=xqc pop=npa geom=c
 heck
 ----------------------------------------------------------------------

 --------------------------------------
 CID_13797176_JID_1721_Energie_neutraal
 --------------------------------------
 Structure from the checkpoint file:  "JID_1721.chk"
 Charge =  0 Multiplicity = 1

 SCF Done:  E(RB3LYP) =  -801.512436337     A.U. after   15 cycles
 Normal termination of Gaussian 16 at Tue Dec  8 21:06:42 2020.

 ----------------------------------------------------------------------
 # B3LYP/6-311++G(d,p) empiricaldispersion=gd3bj scf=xqc pop=npa geom=c
 heck
 ----------------------------------------------------------------------

 ------------------------------------
 CID_13797176_JID_1721_Energie_kation
 ------------------------------------
 Structure from the checkpoint file:  "JID_1721.chk"
 Charge =  1 Multiplicity = 2

 SCF Done:  E(UB3LYP) =  -801.209383175     A.U. after   28 cycles
 Normal termination of Gaussian 16 at Tue Dec  8 21:11:36 2020.
 Gaussian 16:  ES64L-G16RevA.03 25-Dec-2016

 ----------------------------------------------------------------------
 # B3LYP/6-311++G(d,p) empiricaldispersion=gd3bj scf=xqc pop=npa geom=c
 heck
 ----------------------------------------------------------------------

 -----------------------------------
 CID_13797176_JID_1721_Energie_anion
 -----------------------------------
 Structure from the checkpoint file:  "JID_1721.chk"
 Charge = -1 Multiplicity = 2

                         Standard orientation:
 ---------------------------------------------------------------------
 Center     Atomic      Atomic             Coordinates (Angstroms)
 Number     Number       Type             X           Y           Z
 ---------------------------------------------------------------------
      1          6           0       -2.025025    2.189743   -0.000015
      2          6           0       -1.671209    0.726576   -0.000006
      3          6           0       -0.336730    0.301897    0.000003
      4          6           0        0.025511   -1.065272    0.000006
      5          6           0       -0.974373   -2.045792   -0.000001
      6          6           0       -2.302492   -1.639464   -0.000004
      7          6           0       -2.641843   -0.276882   -0.000003
      8          7           0        1.391680   -1.317544    0.000014
      9          6           0        2.077732   -0.222274    0.000010
     10         16           0        1.117148    1.284258    0.000021
     11          6           0        3.571707   -0.159719   -0.000030
     12          1           0       -1.613807    2.697170    0.881950
     13          1           0       -3.108913    2.335745    0.000153
     14          1           0       -1.614104    2.697093   -0.882164
     15          1           0       -0.694047   -3.093758    0.000006
     16          1           0       -3.093529   -2.383521   -0.000002
     17          1           0       -3.689654    0.011911   -0.000001
     18          1           0        3.946691    0.367717    0.884493
     19          1           0        3.964929   -1.178491   -0.000178
     20          1           0        3.946634    0.367934   -0.884450
 ---------------------------------------------------------------------

 SCF Done:  E(UB3LYP) =  -801.496639851     A.U. after   33 cycles
 SCF Done:  E(UB3LYP) =  -801.496639851     a.u. after    1 cycles

 The electronic state is 2-A.
 Alpha  occ. eigenvalues --  -88.71384 -14.13978 -10.05405 -10.04634 -10.04472
 Alpha  occ. eigenvalues --  -10.04027 -10.03883 -10.03534 -10.02750 -10.01455
 Alpha  occ. eigenvalues --  -10.01400  -7.80039  -5.76326  -5.75999  -5.75605
 Alpha  occ. eigenvalues --   -0.79705  -0.70337  -0.64771  -0.61608  -0.61072
 Alpha  occ. eigenvalues --   -0.55725  -0.54040  -0.45233  -0.43704  -0.39991
 Alpha  occ. eigenvalues --   -0.34059  -0.33437  -0.32268  -0.30198  -0.29381
 Alpha  occ. eigenvalues --   -0.28441  -0.27259  -0.25902  -0.24598  -0.24139
 Alpha  occ. eigenvalues --   -0.23805  -0.21086  -0.18582  -0.18380  -0.14506
 Alpha  occ. eigenvalues --   -0.11575  -0.08909  -0.08497   0.06971
 Alpha virt. eigenvalues --    0.08589   0.08996   0.09884   0.11363   0.11880
 Alpha virt. eigenvalues --    0.12338   0.12493   0.13508   0.13571   0.14007
 Alpha virt. eigenvalues --    0.15493   0.15950   0.16449   0.16832   0.17716

  Beta  occ. eigenvalues --  -88.71374 -14.13911 -10.04768 -10.04605 -10.04476
  Beta  occ. eigenvalues --  -10.03933 -10.03898 -10.03455 -10.02823 -10.01281
  Beta  occ. eigenvalues --  -10.01158  -7.80031  -5.76332  -5.76007  -5.75550
  Beta  occ. eigenvalues --   -0.79220  -0.70039  -0.64500  -0.61385  -0.60770
  Beta  occ. eigenvalues --   -0.55448  -0.53897  -0.44803  -0.43524  -0.39570
  Beta  occ. eigenvalues --   -0.33928  -0.33196  -0.31966  -0.29703  -0.28884
  Beta  occ. eigenvalues --   -0.28302  -0.27160  -0.25835  -0.23964  -0.23944
  Beta  occ. eigenvalues --   -0.23601  -0.20932  -0.18445  -0.17348  -0.13813
  Beta  occ. eigenvalues --   -0.11441  -0.07867  -0.07081
  Beta virt. eigenvalues --    0.08587   0.09105   0.09823   0.11320   0.11365
  Beta virt. eigenvalues --    0.12208   0.12680   0.13485   0.13686   0.13856
  Beta virt. eigenvalues --    0.13942   0.15459   0.15725   0.16833   0.17222

 Mulliken charges and spin densities:
               1          2
     1  C   -0.455266  -0.040561
     2  C    1.040332  -0.036393
     3  C    1.539653   0.013612
     4  C   -1.462193   0.051897
     5  C   -0.595212   0.164111
     6  C   -0.190259  -0.062823
     7  C   -0.886052   0.259352
     8  N    0.017851   0.028288
     9  C    0.144012   0.297508
    10  S   -0.761200   0.064147
    11  C   -0.136198  -0.106927
    12  H    0.074081   0.065422
    13  H    0.128677  -0.000507
    14  H    0.073991   0.065532
    15  H    0.115620  -0.009820
    16  H    0.114066   0.004070
    17  H    0.065180  -0.018360
    18  H    0.021460   0.130340
    19  H    0.129925   0.000856
    20  H    0.021529   0.130258
 Sum of Mulliken charges =  -1.00000   1.00000

 Dipole moment (field-independent basis, Debye):
    X=             -1.7840    Y=              0.9168    Z=             -0.0000  Tot=              2.0058
 Quadrupole moment (field-independent basis, Debye-Ang):
   XX=           -102.3937   YY=            -91.6745   ZZ=            -87.0080
   XY=             -1.0673   XZ=             -0.0020   YZ=              0.0011

 Summary of Natural Population Analysis:

                                       Natural Population
                Natural  -----------------------------------------------
    Atom  No    Charge         Core      Valence    Rydberg      Total
 -----------------------------------------------------------------------
      C    1   -0.29029      0.99964     2.28557    0.00507     3.29029
      C    2   -0.02613      0.99945     2.01671    0.00997     3.02613
      C    3   -0.09625      0.99936     2.08680    0.01009     3.09625
      C    4    0.08097      0.99943     1.90749    0.01211     2.91903
      C    5   -0.07569      0.99952     2.06727    0.00890     3.07569
      C    6   -0.12629      0.99958     2.11795    0.00876     3.12629
      C    7   -0.07132      0.99953     2.06144    0.01035     3.07132
      N    8   -0.25393      0.99962     2.74395    0.01035     3.75393
      C    9    0.16156      0.99963     1.82110    0.01771     2.83844
      S   10    0.13053      4.99946     2.85051    0.01950     7.86947
      C   11   -0.31151      0.99961     2.30646    0.00543     3.31151
      H   12    0.10005      0.00000     0.39831    0.00164     0.39995
      H   13    0.09508      0.00000     0.40422    0.00071     0.40492
      H   14    0.10005      0.00000     0.39830    0.00164     0.39995
      H   15    0.09401      0.00000     0.40447    0.00152     0.40599
      H   16    0.08877      0.00000     0.40977    0.00146     0.41123
      H   17    0.08629      0.00000     0.41286    0.00085     0.41371
      H   18    0.10392      0.00000     0.39454    0.00154     0.39608
      H   19    0.10627      0.00000     0.39292    0.00080     0.39373
      H   20    0.10391      0.00000     0.39455    0.00154     0.39609
 =======================================================================
   * Total *    0.00000     14.99484    27.87519    0.12996    43.00000

 Normal termination of Gaussian 16 at Tue Dec  8 21:17:34 2020.
