 Gaussian 16, Revision A.03,

 -----------------------------------------------------------
 # opt freq B3LYP/6-31G(d) empiricaldispersion=gd3bj scf=xqc
 -----------------------------------------------------------

 -------------------------------
 CID_111331352_JID_9014_neutraal
 -------------------------------
 Symbolic Z-matrix:
 Charge =  0 Multiplicity = 1

 SCF Done:  E(RB3LYP) =  -1204.96579842     A.U. after   15 cycles
 SCF Done:  E(RB3LYP) =  -1204.95403024     A.U. after   13 cycles
 SCF Done:  E(RB3LYP) =  -1204.97380939     A.U. after   12 cycles
 SCF Done:  E(RB3LYP) =  -1204.97410321     A.U. after   12 cycles
 SCF Done:  E(RB3LYP) =  -1204.97480425     A.U. after   12 cycles
 SCF Done:  E(RB3LYP) =  -1204.97500711     A.U. after   12 cycles
 SCF Done:  E(RB3LYP) =  -1204.97514847     A.U. after   12 cycles
 SCF Done:  E(RB3LYP) =  -1204.97535090     A.U. after   11 cycles
 SCF Done:  E(RB3LYP) =  -1204.97449420     A.U. after   14 cycles
 SCF Done:  E(RB3LYP) =  -1204.97566766     A.U. after   12 cycles
 SCF Done:  E(RB3LYP) =  -1204.97670020     A.U. after    7 cycles
 SCF Done:  E(RB3LYP) =  -1204.97670030     A.U. after    8 cycles
 SCF Done:  E(RB3LYP) =  -1204.97670038     A.U. after    7 cycles
 SCF Done:  E(RB3LYP) =  -1204.97670043     A.U. after    7 cycles
 Optimization completed.
    -- Stationary point found.
 Normal termination of Gaussian 16 at Sat Dec 12 10:16:37 2020.

 --------------------------------------------------------------------
 #N Geom=AllCheck Guess=TCheck SCRF=Check GenChk RB3LYP/6-31G(d) Freq
 --------------------------------------------------------------------

 Structure from the checkpoint file:  "JID_9014.chk"
 -------------------------------
 CID_111331352_JID_9014_neutraal
 -------------------------------
 Charge =  0 Multiplicity = 1

 SCF Done:  E(RB3LYP) =  -1204.97670043     A.U. after    1 cycles

  Exact polarizability: 176.048 -14.022 180.586   3.721   7.613 159.058
 Approx polarizability: 238.307 -32.709 270.218  12.775  23.152 278.246

                      1                      2                      3
                      A                      A                      A
 Frequencies --     20.8618                30.8260                45.4172
 Red. masses --      2.7189                 2.9425                 8.6637
 Frc consts  --      0.0007                 0.0016                 0.0105
 IR Inten    --      0.6348                 0.0863                 1.3102

                      4                      5                      6
                      A                      A                      A
 Frequencies --     56.4187                63.6477                68.1971
 Red. masses --      5.2816                 3.4968                 5.0252
 Frc consts  --      0.0099                 0.0083                 0.0138
 IR Inten    --      0.3760                 0.4441                 2.2995

                      7                      8                      9
                      A                      A                      A
 Frequencies --     86.2201               104.7089               143.7682
 Red. masses --      4.4607                 4.6782                 3.5864
 Frc consts  --      0.0195                 0.0302                 0.0437
 IR Inten    --      1.3185                 0.4318                 0.7338

                     10                     11                     12
                      A                      A                      A
 Frequencies --    158.3947               204.5114               221.2030
 Red. masses --      3.4330                 3.1050                 2.7313
 Frc consts  --      0.0507                 0.0765                 0.0787
 IR Inten    --      3.6444                 0.5640                 0.9888

                     13                     14                     15
                      A                      A                      A
 Frequencies --    238.2475               269.5945               278.4566
 Red. masses --      1.1342                 2.5467                 2.5431
 Frc consts  --      0.0379                 0.1091                 0.1162
 IR Inten    --      0.2637                18.1903                12.1753

                     16                     17                     18
                      A                      A                      A
 Frequencies --    280.3692               300.9313               303.6261
 Red. masses --      1.3600                 1.1792                 3.2574
 Frc consts  --      0.0630                 0.0629                 0.1769
 IR Inten    --     76.6612                16.5689                 0.7595

                     19                     20                     21
                      A                      A                      A
 Frequencies --    326.4747               349.6448               359.5035
 Red. masses --      2.5141                 2.8035                 3.1552
 Frc consts  --      0.1579                 0.2019                 0.2403
 IR Inten    --      2.0496                 3.3426                 3.1417

                     22                     23                     24
                      A                      A                      A
 Frequencies --    365.6944               440.2648               452.1466
 Red. masses --      3.8580                 2.8282                 2.9917
 Frc consts  --      0.3040                 0.3230                 0.3604
 IR Inten    --      4.6423                 1.4692                13.4363

                     25                     26                     27
                      A                      A                      A
 Frequencies --    460.5682               474.4039               512.4954
 Red. masses --      2.7687                 2.7799                 3.4127
 Frc consts  --      0.3460                 0.3686                 0.5281
 IR Inten    --      3.7487                 5.0223                 2.9516

                     28                     29                     30
                      A                      A                      A
 Frequencies --    572.9483               584.7635               597.3427
 Red. masses --      4.4102                 2.1370                 3.2793
 Frc consts  --      0.8530                 0.4305                 0.6894
 IR Inten    --      5.0769                 4.1146                 7.4810

                     31                     32                     33
                      A                      A                      A
 Frequencies --    620.6032               637.3326               652.5983
 Red. masses --      3.7470                 3.0506                 1.9205
 Frc consts  --      0.8503                 0.7301                 0.4819
 IR Inten    --      3.3724                35.9056                89.3918

                     34                     35                     36
                      A                      A                      A
 Frequencies --    687.0705               719.4236               753.1544
 Red. masses --      4.8344                 4.0736                 1.4984
 Frc consts  --      1.3446                 1.2422                 0.5008
 IR Inten    --     22.8859                 2.2886                17.0848

                     37                     38                     39
                      A                      A                      A
 Frequencies --    755.4993               779.7404               806.3541
 Red. masses --      1.7205                 4.2967                 2.0033
 Frc consts  --      0.5786                 1.5392                 0.7675
 IR Inten    --     12.1626                 2.8053                 2.6384

                     40                     41                     42
                      A                      A                      A
 Frequencies --    849.0381               863.5569               874.9133
 Red. masses --      2.0918                 3.7150                 3.5552
 Frc consts  --      0.8884                 1.6323                 1.6034
 IR Inten    --      0.5012                 3.1027                 2.7381

                     43                     44                     45
                      A                      A                      A
 Frequencies --    885.9307               897.9602               915.1373
 Red. masses --      2.8838                 2.1860                 2.6492
 Frc consts  --      1.3335                 1.0385                 1.3072
 IR Inten    --      1.8839                 5.8891                 1.9767

                     46                     47                     48
                      A                      A                      A
 Frequencies --    923.5060               954.5444               960.9228
 Red. masses --      1.9538                 1.1832                 1.9778
 Frc consts  --      0.9818                 0.6352                 1.0760
 IR Inten    --      2.2422                 2.9752                13.9798

                     49                     50                     51
                      A                      A                      A
 Frequencies --    979.8224               988.2954               992.8005
 Red. masses --      1.5085                 3.2546                 2.0577
 Frc consts  --      0.8533                 1.8729                 1.1950
 IR Inten    --      0.1374                 1.4850                 4.1407

                     52                     53                     54
                      A                      A                      A
 Frequencies --   1015.0642              1036.1699              1062.8045
 Red. masses --      1.7332                 2.0315                 1.6465
 Frc consts  --      1.0522                 1.2851                 1.0958
 IR Inten    --     37.9139                 6.5496                 4.2132

                     55                     56                     57
                      A                      A                      A
 Frequencies --   1083.1763              1089.8996              1114.7144
 Red. masses --      3.2198                 1.7454                 1.9823
 Frc consts  --      2.2258                 1.2215                 1.4513
 IR Inten    --     67.8191                30.7120                31.6769

                     58                     59                     60
                      A                      A                      A
 Frequencies --   1131.4858              1137.4858              1170.2819
 Red. masses --      1.6292                 2.2444                 1.4564
 Frc consts  --      1.2289                 1.7109                 1.1752
 IR Inten    --     23.4723                 7.2825                 7.0825

                     61                     62                     63
                      A                      A                      A
 Frequencies --   1181.4864              1185.8137              1196.5061
 Red. masses --      1.9819                 2.1032                 1.3545
 Frc consts  --      1.6300                 1.7425                 1.1425
 IR Inten    --     21.2532                 0.1731                27.0568

                     64                     65                     66
                      A                      A                      A
 Frequencies --   1217.1966              1226.0889              1247.5556
 Red. masses --      1.8844                 1.7196                 1.4312
 Frc consts  --      1.6449                 1.5230                 1.3124
 IR Inten    --      5.3027                13.5211                11.2512

                     67                     68                     69
                      A                      A                      A
 Frequencies --   1276.4225              1310.6803              1317.5857
 Red. masses --      1.3235                 1.3302                 1.3021
 Frc consts  --      1.2705                 1.3463                 1.3318
 IR Inten    --      4.7467                 9.7770                 1.6208

                     70                     71                     72
                      A                      A                      A
 Frequencies --   1319.4254              1330.9701              1350.4212
 Red. masses --      1.3800                 1.3754                 1.3252
 Frc consts  --      1.4154                 1.4356                 1.4238
 IR Inten    --      4.5999                13.1916                 1.4414

                     73                     74                     75
                      A                      A                      A
 Frequencies --   1355.8652              1359.1187              1370.4866
 Red. masses --      1.4414                 1.4522                 2.8659
 Frc consts  --      1.5612                 1.5805                 3.1715
 IR Inten    --      3.8840                13.4431                30.5362

                     76                     77                     78
                      A                      A                      A
 Frequencies --   1388.1922              1397.9497              1413.7915
 Red. masses --      1.7636                 1.6083                 1.9078
 Frc consts  --      2.0023                 1.8518                 2.2468
 IR Inten    --     73.2987                 0.6905                32.1376

                     79                     80                     81
                      A                      A                      A
 Frequencies --   1421.9765              1428.6917              1448.1620
 Red. masses --      1.7926                 1.2304                 1.2277
 Frc consts  --      2.1356                 1.4797                 1.5170
 IR Inten    --     49.7188                 2.7469                 3.9864

                     82                     83                     84
                      A                      A                      A
 Frequencies --   1501.8188              1509.3261              1511.1552
 Red. masses --      1.3799                 1.1243                 1.0978
 Frc consts  --      1.8337                 1.5090                 1.4770
 IR Inten    --     29.8484                18.5961                17.1116

                     85                     86                     87
                      A                      A                      A
 Frequencies --   1516.7969              1518.9354              1524.4806
 Red. masses --      1.0502                 1.2633                 1.0909
 Frc consts  --      1.4236                 1.7172                 1.4937
 IR Inten    --      0.6902                16.1466                 8.2080

                     88                     89                     90
                      A                      A                      A
 Frequencies --   1530.3920              1533.4944              1536.0587
 Red. masses --      1.0985                 1.0872                 1.1693
 Frc consts  --      1.5158                 1.5063                 1.6256
 IR Inten    --      6.7853                 6.2226                18.2215

                     91                     92                     93
                      A                      A                      A
 Frequencies --   1538.2405              1546.5599              1551.8934
 Red. masses --      2.0954                 1.1797                 1.3194
 Frc consts  --      2.9212                 1.6625                 1.8722
 IR Inten    --      2.8527                 2.0019                11.2776

                     94                     95                     96
                      A                      A                      A
 Frequencies --   1577.6904              1785.9305              3018.5535
 Red. masses --      6.3522                 7.8006                 1.0732
 Frc consts  --      9.3158                14.6590                 5.7613
 IR Inten    --     40.5258               374.1956                34.5833

                     97                     98                     99
                      A                      A                      A
 Frequencies --   3043.1786              3047.3409              3050.1056
 Red. masses --      1.0819                 1.0362                 1.0711
 Frc consts  --      5.9031                 5.6692                 5.8711
 IR Inten    --     16.8718                24.5462                30.6210

                    100                    101                    102
                      A                      A                      A
 Frequencies --   3056.3588              3061.4105              3067.8987
 Red. masses --      1.0649                 1.0359                 1.0638
 Frc consts  --      5.8607                 5.7200                 5.8992
 IR Inten    --     33.1008                29.4996                42.1975

                    103                    104                    105
                      A                      A                      A
 Frequencies --   3080.1001              3092.9403              3096.1324
 Red. masses --      1.0686                 1.0594                 1.1003
 Frc consts  --      5.9729                 5.9709                 6.2142
 IR Inten    --     10.7150                 8.2255                 9.1895

                    106                    107                    108
                      A                      A                      A
 Frequencies --   3108.1625              3114.9624              3116.9891
 Red. masses --      1.0921                 1.1027                 1.1032
 Frc consts  --      6.2162                 6.3037                 6.3153
 IR Inten    --     23.1877                34.7791                56.8390

                    109                    110                    111
                      A                      A                      A
 Frequencies --   3128.6853              3135.9763              3144.2257
 Red. masses --      1.1029                 1.1036                 1.1054
 Frc consts  --      6.3609                 6.3947                 6.4387
 IR Inten    --     28.4178                 8.5995                 4.4890

                    112                    113                    114
                      A                      A                      A
 Frequencies --   3147.3050              3162.9932              3166.4798
 Red. masses --      1.1020                 1.0937                 1.0946
 Frc consts  --      6.4317                 6.4467                 6.4664
 IR Inten    --     20.4367                 0.6546                 9.8925

                    115                    116                    117
                      A                      A                      A
 Frequencies --   3278.7581              3579.0644              3746.2130
 Red. masses --      1.0948                 1.0746                 1.0660
 Frc consts  --      6.9344                 8.1104                 8.8146
 IR Inten    --      2.4205                 9.9711                 7.5591

 - Thermochemistry -
 -------------------
 Temperature   298.150 Kelvin.  Pressure   1.00000 Atm.
 Atom     1 has atomic number  6 and mass  12.00000

 Molecular mass:   282.14020 amu.
 Principal axes and moments of inertia in atomic units:
                           1         2         3
     Eigenvalues --  4375.402446114.791187983.62790
           X            0.99965  -0.00129  -0.02647
           Y            0.00094   0.99991  -0.01301
           Z            0.02648   0.01298   0.99956
 This molecule is an asymmetric top.
 Rotational symmetry number  1.
 Warning -- assumption of classical behavior for rotation
           may cause significant error
 Rotational temperatures (Kelvin)      0.01980     0.01416     0.01085
 Rotational constants (GHZ):           0.41247     0.29514     0.22606
 Zero-point vibrational energy     924605.3 (Joules/Mol)
                                  220.98596 (Kcal/Mol)
 Warning -- explicit consideration of  31 degrees of freedom as
           vibrations may cause significant error
 Vibrational temperatures:     30.02    44.35    65.35    81.17    91.57
          (Kelvin)             98.12   124.05   150.65   206.85   227.89
                              294.25   318.26   342.79   387.89   400.64
                              403.39   432.97   436.85   469.72   503.06
                              517.25   526.15   633.44   650.54   662.65
                              682.56   737.37   824.34   841.34   859.44
                              892.91   916.98   938.94   988.54  1035.09
                             1083.62  1086.99  1121.87  1160.16  1221.58
                             1242.47  1258.81  1274.66  1291.96  1316.68
                             1328.72  1373.38  1382.55  1409.75  1421.94
                             1428.42  1460.45  1490.82  1529.14  1558.45
                             1568.12  1603.83  1627.96  1636.59  1683.77
                             1699.90  1706.12  1721.51  1751.27  1764.07
                             1794.95  1836.49  1885.78  1895.71  1898.36
                             1914.97  1942.95  1950.79  1955.47  1971.82
                             1997.30  2011.34  2034.13  2045.91  2055.57
                             2083.58  2160.78  2171.58  2174.22  2182.33
                             2185.41  2193.39  2201.89  2206.36  2210.05
                             2213.19  2225.15  2232.83  2269.94  2569.56
                             4343.03  4378.46  4384.44  4388.42  4397.42
                             4404.69  4414.02  4431.58  4450.05  4454.64
                             4471.95  4481.74  4484.65  4501.48  4511.97
                             4523.84  4528.27  4550.84  4555.86  4717.40
                             5149.48  5389.97

 Zero-point correction=                           0.352164 (Hartree/Particle)
 Thermal correction to Energy=                    0.371894
 Thermal correction to Enthalpy=                  0.372838
 Thermal correction to Gibbs Free Energy=         0.302459
 Sum of electronic and zero-point Energies=          -1204.624537
 Sum of electronic and thermal Energies=             -1204.604807
 Sum of electronic and thermal Enthalpies=           -1204.603863
 Sum of electronic and thermal Free Energies=        -1204.674241

                     E (Thermal)             CV                S
                      KCal/Mol        Cal/Mol-Kelvin    Cal/Mol-Kelvin
 Total                  233.367             74.994            148.124
 Electronic               0.000              0.000              0.000
 Translational            0.889              2.981             42.810
 Rotational               0.889              2.981             33.723
 Vibrational            231.589             69.032             71.591
 Vibration     1          0.593              1.986              6.550
 Vibration     2          0.594              1.984              5.776
 Vibration     3          0.595              1.979              5.008
 Vibration     4          0.596              1.975              4.579
 Vibration     5          0.597              1.972              4.341
 Vibration     6          0.598              1.969              4.205
 Vibration     7          0.601              1.959              3.744
 Vibration     8          0.605              1.945              3.365
 Vibration     9          0.616              1.909              2.753
 Vibration    10          0.621              1.893              2.569
 Vibration    11          0.640              1.833              2.092
 Vibration    12          0.648              1.809              1.949
 Vibration    13          0.656              1.782              1.816
 Vibration    14          0.674              1.729              1.599
 Vibration    15          0.679              1.713              1.543
 Vibration    16          0.680              1.710              1.531
 Vibration    17          0.693              1.672              1.412
 Vibration    18          0.695              1.667              1.397
 Vibration    19          0.710              1.623              1.277
 Vibration    20          0.727              1.576              1.168
 Vibration    21          0.734              1.556              1.124
 Vibration    22          0.739              1.543              1.098
 Vibration    23          0.800              1.382              0.826
 Vibration    24          0.811              1.356              0.789
 Vibration    25          0.818              1.338              0.764
 Vibration    26          0.831              1.307              0.725
 Vibration    27          0.868              1.222              0.628
 Vibration    28          0.929              1.090              0.499
 Vibration    29          0.942              1.064              0.477
 Vibration    30          0.955              1.037              0.454
 Vibration    31          0.981              0.988              0.416

                           ! Non-Optimized Parameters !
 Normal termination of Gaussian 16 at Sat Dec 12 10:39:02 2020.

 ----------------------------------------------------------------------
 # B3LYP/6-311++G(d,p) empiricaldispersion=gd3bj scf=xqc pop=npa geom=c
 heck
 ----------------------------------------------------------------------

 ---------------------------------------
 CID_111331352_JID_9014_Energie_neutraal
 ---------------------------------------
 Structure from the checkpoint file:  "JID_9014.chk"
 Charge =  0 Multiplicity = 1

 SCF Done:  E(RB3LYP) =  -1205.23740237     A.U. after   16 cycles
 Normal termination of Gaussian 16 at Sat Dec 12 10:48:41 2020.

 ----------------------------------------------------------------------
 # B3LYP/6-311++G(d,p) empiricaldispersion=gd3bj scf=xqc pop=npa geom=c
 heck
 ----------------------------------------------------------------------

 -------------------------------------
 CID_111331352_JID_9014_Energie_kation
 -------------------------------------
 Structure from the checkpoint file:  "JID_9014.chk"
 Charge =  1 Multiplicity = 2

 SCF Done:  E(UB3LYP) =  -1204.93316428     A.U. after   33 cycles
 SCF Done:  E(UB3LYP) =  -1204.93316428     a.u. after    1 cycles
 Normal termination of Gaussian 16 at Sat Dec 12 11:15:13 2020.
 Gaussian 16:  ES64L-G16RevA.03 25-Dec-2016

 ----------------------------------------------------------------------
 # B3LYP/6-311++G(d,p) empiricaldispersion=gd3bj scf=xqc pop=npa geom=c
 heck
 ----------------------------------------------------------------------

 ------------------------------------
 CID_111331352_JID_9014_Energie_anion
 ------------------------------------
 Structure from the checkpoint file:  "JID_9014.chk"
 Charge = -1 Multiplicity = 2

                         Standard orientation:
 ---------------------------------------------------------------------
 Center     Atomic      Atomic             Coordinates (Angstroms)
 Number     Number       Type             X           Y           Z
 ---------------------------------------------------------------------
      1          6           0        2.175489   -2.501894   -0.089202
      2          6           0        3.099658   -1.279408   -0.261274
      3          6           0        3.634587   -1.186677   -1.696519
      4          6           0        2.362308   -0.018555    0.112021
      5          7           0        1.626413    0.675990   -0.708018
      6          6           0        1.010281    1.744124   -0.083272
      7          6           0        1.278046    1.863596    1.251862
      8         16           0        2.353204    0.601314    1.761215
      9          6           0        0.100757    2.640056   -0.883805
     10          6           0       -1.366564    2.537918   -0.453771
     11          8           0       -1.883827    3.408604    0.235904
     12          7           0       -2.083435    1.454656   -0.884297
     13          6           0       -1.607398    0.218017   -1.477260
     14          6           0       -1.803843   -1.001586   -0.562142
     15          6           0       -3.296436   -1.353231   -0.285036
     16          6           0       -3.379872   -1.801088    1.198923
     17          6           0       -1.914503   -1.938750    1.661151
     18          6           0       -1.190521   -0.863030    0.842537
     19          8           0       -1.170285   -2.063606   -1.296989
     20          1           0        1.291137   -2.401242   -0.726626
     21          1           0        1.840514   -2.600596    0.949446
     22          1           0        2.708873   -3.418940   -0.364108
     23          1           0        3.947597   -1.390288    0.427125
     24          1           0        2.808379   -1.059613   -2.401221
     25          1           0        4.311158   -0.334239   -1.812684
     26          1           0        4.179122   -2.101322   -1.954371
     27          1           0        0.908050    2.612217    1.938256
     28          1           0        0.368779    3.688735   -0.737731
     29          1           0        0.221888    2.397632   -1.942987
     30          1           0       -3.042570    1.477309   -0.557334
     31          1           0       -2.129127    0.026090   -2.423458
     32          1           0       -0.543494    0.302632   -1.699311
     33          1           0       -3.956682   -0.498551   -0.472252
     34          1           0       -3.603222   -2.136646   -0.985252
     35          1           0       -3.957050   -2.721308    1.332093
     36          1           0       -3.873743   -1.025443    1.795116
     37          1           0       -1.522140   -2.936478    1.413871
     38          1           0       -1.793144   -1.815167    2.741498
     39          1           0       -0.105157   -0.966140    0.819210
     40          1           0       -1.426546    0.126527    1.249268
     41          1           0       -1.263765   -2.877660   -0.778379
 ---------------------------------------------------------------------

 SCF Done:  E(UB3LYP) =  -1205.23050228     A.U. after   33 cycles
 SCF Done:  E(UB3LYP) =  -1205.23050228     a.u. after    1 cycles

 The electronic state is 2-A.
 Alpha  occ. eigenvalues --  -88.76542 -19.02270 -18.99540 -14.24448 -14.19857
 Alpha  occ. eigenvalues --  -10.18174 -10.13227 -10.11536 -10.10973 -10.10278
 Alpha  occ. eigenvalues --  -10.08905 -10.08651 -10.08274 -10.07285 -10.07085
 Alpha  occ. eigenvalues --  -10.06823 -10.06201 -10.05959 -10.05390  -7.85196
 Alpha  occ. eigenvalues --   -5.81468  -5.81120  -5.80824  -0.94662  -0.92761
 Alpha  occ. eigenvalues --   -0.85459  -0.83169  -0.73274  -0.71210  -0.68564
 Alpha  occ. eigenvalues --   -0.67510  -0.64771  -0.61836  -0.59458  -0.58444
 Alpha  occ. eigenvalues --   -0.57112  -0.51330  -0.50037  -0.48073  -0.47953
 Alpha  occ. eigenvalues --   -0.46781  -0.42132  -0.41776  -0.39908  -0.38821
 Alpha  occ. eigenvalues --   -0.38023  -0.36980  -0.35883  -0.35504  -0.34472
 Alpha  occ. eigenvalues --   -0.34059  -0.33137  -0.32386  -0.32012  -0.30908
 Alpha  occ. eigenvalues --   -0.30623  -0.29978  -0.28864  -0.28769  -0.27524
 Alpha  occ. eigenvalues --   -0.26076  -0.25326  -0.25208  -0.24881  -0.24647
 Alpha  occ. eigenvalues --   -0.24500  -0.23969  -0.23688  -0.23341  -0.22652
 Alpha  occ. eigenvalues --   -0.17926  -0.17476  -0.16965  -0.16600  -0.16201
 Alpha  occ. eigenvalues --   -0.13177   0.04241
 Alpha virt. eigenvalues --    0.06140   0.06836   0.07384   0.08059   0.08389
 Alpha virt. eigenvalues --    0.08850   0.09152   0.09542   0.09709   0.10227
 Alpha virt. eigenvalues --    0.10684   0.11268   0.11513   0.11687   0.12263

  Beta  occ. eigenvalues --  -88.76507 -19.02241 -18.99541 -14.24443 -14.19839
  Beta  occ. eigenvalues --  -10.18169 -10.13227 -10.11301 -10.10971 -10.10273
  Beta  occ. eigenvalues --  -10.08907 -10.08661 -10.08108 -10.07270 -10.07061
  Beta  occ. eigenvalues --  -10.06794 -10.06191 -10.05953 -10.05341  -7.85165
  Beta  occ. eigenvalues --   -5.81454  -5.81107  -5.80708  -0.94658  -0.92702
  Beta  occ. eigenvalues --   -0.85287  -0.83158  -0.73245  -0.71076  -0.68363
  Beta  occ. eigenvalues --   -0.67478  -0.64739  -0.61798  -0.59277  -0.58373
  Beta  occ. eigenvalues --   -0.57077  -0.51187  -0.49939  -0.47991  -0.47849
  Beta  occ. eigenvalues --   -0.46713  -0.41997  -0.41741  -0.39850  -0.38786
  Beta  occ. eigenvalues --   -0.37983  -0.36937  -0.35827  -0.35416  -0.34419
  Beta  occ. eigenvalues --   -0.34026  -0.32938  -0.32332  -0.31952  -0.30750
  Beta  occ. eigenvalues --   -0.30586  -0.29938  -0.28800  -0.28694  -0.27341
  Beta  occ. eigenvalues --   -0.26032  -0.25269  -0.25078  -0.24836  -0.24570
  Beta  occ. eigenvalues --   -0.24418  -0.23920  -0.23620  -0.23298  -0.22614
  Beta  occ. eigenvalues --   -0.17634  -0.17382  -0.16721  -0.16534  -0.16187
  Beta  occ. eigenvalues --   -0.12378
  Beta virt. eigenvalues --    0.06609   0.07146   0.07598   0.08107   0.08287
  Beta virt. eigenvalues --    0.08708   0.09098   0.09396   0.09579   0.09836
  Beta virt. eigenvalues --    0.10573   0.10718   0.11440   0.11648   0.11920

 Mulliken charges and spin densities:
               1          2
     1  C    0.328283  -0.867823
     2  C   -0.154899   0.895526
     3  C   -0.309091  -0.334659
     4  C    0.010671  -0.364683
     5  N    0.180293   0.018255
     6  C    0.031035  -0.224345
     7  C   -0.407146   0.305578
     8  S   -0.033734  -0.064664
     9  C   -0.495074  -0.086007
    10  C   -0.117866   0.017560
    11  O   -0.306347   0.001877
    12  N   -0.060917  -0.043451
    13  C   -0.510879   0.002866
    14  C   -0.261752   0.960423
    15  C    0.720365  -1.224382
    16  C   -0.206216  -0.248707
    17  C    0.008074  -0.234075
    18  C   -0.251899  -0.313399
    19  O   -0.112434  -0.018610
    20  H    0.062217   0.121467
    21  H   -0.024324   0.150856
    22  H   -0.459767   0.625596
    23  H   -0.165379   0.332800
    24  H    0.154522   0.013014
    25  H    0.108891   0.021360
    26  H    0.035133   0.106001
    27  H    0.223335   0.005373
    28  H    0.196505   0.002045
    29  H    0.179350   0.002675
    30  H    0.278654   0.032873
    31  H    0.146522   0.039482
    32  H    0.217859   0.000175
    33  H   -0.081571   0.186310
    34  H    0.005262   0.176746
    35  H   -0.457125   0.639063
    36  H    0.119245   0.005680
    37  H   -0.196204   0.309061
    38  H   -0.093545   0.276945
    39  H    0.500026  -0.463029
    40  H    0.223483  -0.034347
    41  H   -0.023561   0.272578
 Sum of Mulliken charges =  -1.00000   1.00000

 Dipole moment (field-independent basis, Debye):
    X=              0.8015    Y=              4.8921    Z=             -1.5435  Tot=              5.1921
 Quadrupole moment (field-independent basis, Debye-Ang):
   XX=           -181.4306   YY=           -193.0382   ZZ=           -147.8687
   XY=              1.7491   XZ=              4.0798   YZ=             -2.3784

 Summary of Natural Population Analysis:

                                       Natural Population
                Natural  -----------------------------------------------
    Atom  No    Charge         Core      Valence    Rydberg      Total
 -----------------------------------------------------------------------
      C    1   -0.28169      0.99964     2.27569    0.00636     3.28169
      C    2   -0.13672      0.99955     2.12712    0.01005     3.13672
      C    3   -0.27871      0.99965     2.27254    0.00652     3.27871
      C    4    0.08659      0.99957     1.89349    0.02035     2.91341
      N    5   -0.26193      0.99962     2.75181    0.01050     3.76193
      C    6    0.05218      0.99947     1.93288    0.01547     2.94782
      C    7   -0.17902      0.99944     2.17099    0.00858     3.17902
      S    8    0.19134      4.99942     2.78958    0.01966     7.80866
      C    9   -0.24237      0.99955     2.23539    0.00743     3.24237
      C   10    0.35083      0.99967     1.62664    0.02286     2.64917
      O   11   -0.32844      0.99988     3.32255    0.00602     4.32844
      N   12   -0.31759      0.99966     2.80921    0.00872     3.81759
      C   13   -0.10013      0.99953     2.08830    0.01230     3.10013
      C   14    0.13079      0.99951     1.85369    0.01601     2.86921
      C   15   -0.20340      0.99959     2.19532    0.00849     3.20340
      C   16   -0.19418      0.99964     2.18636    0.00818     3.19418
      C   17   -0.19163      0.99964     2.18314    0.00885     3.19163
      C   18   -0.21129      0.99957     2.20244    0.00928     3.21129
      O   19   -0.37753      0.99989     3.37123    0.00641     4.37753
      H   20    0.10996      0.00000     0.38850    0.00154     0.39004
      H   21    0.09879      0.00000     0.40001    0.00120     0.40121
      H   22    0.09832      0.00000     0.40018    0.00149     0.40168
      H   23    0.09888      0.00000     0.39913    0.00199     0.40112
      H   24    0.10573      0.00000     0.39330    0.00097     0.39427
      H   25    0.09809      0.00000     0.40119    0.00073     0.40191
      H   26    0.09546      0.00000     0.40386    0.00068     0.40454
      H   27    0.11132      0.00000     0.38791    0.00077     0.38868
      H   28    0.11524      0.00000     0.38378    0.00098     0.38476
      H   29    0.11345      0.00000     0.38557    0.00098     0.38655
      H   30    0.19125      0.00000     0.30615    0.00261     0.30875
      H   31    0.09442      0.00000     0.40458    0.00100     0.40558
      H   32    0.12118      0.00000     0.37705    0.00177     0.37882
      H   33    0.09427      0.00000     0.40447    0.00126     0.40573
      H   34    0.10683      0.00000     0.39200    0.00117     0.39317
      H   35    0.10203      0.00000     0.39634    0.00163     0.39797
      H   36    0.09446      0.00000     0.40435    0.00118     0.40554
      H   37    0.09309      0.00000     0.40482    0.00209     0.40691
      H   38    0.10146      0.00000     0.39762    0.00092     0.39854
      H   39    0.11283      0.00000     0.38446    0.00271     0.38717
      H   40    0.10291      0.00000     0.39501    0.00208     0.39709
      H   41    0.23295      0.00000     0.26308    0.00397     0.26705
 =======================================================================
   * Total *   -0.00000     22.99251    52.76172    0.24577    76.00000

 Normal termination of Gaussian 16 at Sat Dec 12 11:42:16 2020.
