 Gaussian 16, Revision A.03,

 -----------------------------------------------------------
 # opt freq B3LYP/6-31G(d) empiricaldispersion=gd3bj scf=xqc
 -----------------------------------------------------------

 -------------------------------
 CID_101589694_JID_6688_neutraal
 -------------------------------
 Symbolic Z-matrix:
 Charge =  0 Multiplicity = 1

 SCF Done:  E(RB3LYP) =  -777.592128652     A.U. after   16 cycles
 SCF Done:  E(RB3LYP) =  -777.594868128     A.U. after   14 cycles
 SCF Done:  E(RB3LYP) =  -777.596489839     A.U. after   14 cycles
 SCF Done:  E(RB3LYP) =  -777.596727834     A.U. after   13 cycles
 SCF Done:  E(RB3LYP) =  -777.597336201     A.U. after   13 cycles
 SCF Done:  E(RB3LYP) =  -777.597510463     A.U. after   12 cycles
 SCF Done:  E(RB3LYP) =  -777.597557017     A.U. after   12 cycles
 SCF Done:  E(RB3LYP) =  -777.597613098     A.U. after   11 cycles
 SCF Done:  E(RB3LYP) =  -777.597686362     A.U. after   12 cycles
 SCF Done:  E(RB3LYP) =  -777.597746157     A.U. after   13 cycles
 SCF Done:  E(RB3LYP) =  -777.597835645     A.U. after   12 cycles
 SCF Done:  E(RB3LYP) =  -777.597860022     A.U. after   12 cycles
 SCF Done:  E(RB3LYP) =  -777.597869128     A.U. after   12 cycles
 SCF Done:  E(RB3LYP) =  -777.597870563     A.U. after    9 cycles
 Optimization completed.
    -- Stationary point found.
 Normal termination of Gaussian 16 at Thu Dec 10 22:53:20 2020.

 --------------------------------------------------------------------
 #N Geom=AllCheck Guess=TCheck SCRF=Check GenChk RB3LYP/6-31G(d) Freq
 --------------------------------------------------------------------

 Structure from the checkpoint file:  "JID_6688.chk"
 -------------------------------
 CID_101589694_JID_6688_neutraal
 -------------------------------
 Charge =  0 Multiplicity = 1

 SCF Done:  E(RB3LYP) =  -777.597870563     A.U. after    1 cycles

  Exact polarizability: 188.012  15.727 107.034  20.856 -15.003 104.243
 Approx polarizability: 265.461  20.583 172.218  56.997 -38.854 201.808

                      1                      2                      3
                      A                      A                      A
 Frequencies --     23.5765                33.7364                66.1557
 Red. masses --      7.5346                 6.1432                 5.2159
 Frc consts  --      0.0025                 0.0041                 0.0134
 IR Inten    --      0.4733                 1.9951                 0.3424

                      4                      5                      6
                      A                      A                      A
 Frequencies --     70.5804                86.2710                94.2203
 Red. masses --      7.9273                 4.7243                 4.0887
 Frc consts  --      0.0233                 0.0207                 0.0214
 IR Inten    --      0.8826                 0.5425                 0.3604

                      7                      8                      9
                      A                      A                      A
 Frequencies --    135.9332               139.8142               165.7256
 Red. masses --      1.2581                 4.1189                 3.7000
 Frc consts  --      0.0137                 0.0474                 0.0599
 IR Inten    --      0.7241                 0.3514                 4.0645

                     10                     11                     12
                      A                      A                      A
 Frequencies --    230.0135               238.0012               290.5661
 Red. masses --      5.2057                 5.1568                 4.0463
 Frc consts  --      0.1623                 0.1721                 0.2013
 IR Inten    --      3.0857                 8.1206                 0.8188

                     13                     14                     15
                      A                      A                      A
 Frequencies --    309.7028               323.2081               360.7541
 Red. masses --      6.4266                 4.2874                 3.2699
 Frc consts  --      0.3632                 0.2639                 0.2507
 IR Inten    --      3.6919                12.2153                 9.3984

                     16                     17                     18
                      A                      A                      A
 Frequencies --    425.5845               453.3284               486.1193
 Red. masses --      3.2033                 4.6483                 5.4177
 Frc consts  --      0.3418                 0.5628                 0.7543
 IR Inten    --      0.0792                 6.4181                 4.2926

                     19                     20                     21
                      A                      A                      A
 Frequencies --    518.5665               534.7213               567.0626
 Red. masses --      2.9588                 2.5643                13.1897
 Frc consts  --      0.4688                 0.4320                 2.4989
 IR Inten    --      0.8898                 6.7659                16.4861

                     22                     23                     24
                      A                      A                      A
 Frequencies --    627.7082               648.8778               658.3022
 Red. masses --      6.0481                 6.1369                 5.2224
 Frc consts  --      1.4041                 1.5224                 1.3334
 IR Inten    --     21.0369                 1.2328                10.7054

                     25                     26                     27
                      A                      A                      A
 Frequencies --    701.1346               769.1602               785.2473
 Red. masses --      4.0834                 5.3300                 4.7136
 Frc consts  --      1.1827                 1.8579                 1.7125
 IR Inten    --     12.0473                31.2242                 2.1886

                     28                     29                     30
                      A                      A                      A
 Frequencies --    832.9751               843.9706               862.6064
 Red. masses --      1.5537                 2.7474                 2.8798
 Frc consts  --      0.6351                 1.1530                 1.2625
 IR Inten    --      6.1296                 4.5541                17.2090

                     31                     32                     33
                      A                      A                      A
 Frequencies --    865.6191               929.0235               967.3401
 Red. masses --      2.1188                 2.4738                 1.3102
 Frc consts  --      0.9354                 1.2580                 0.7223
 IR Inten    --     25.6632                26.1876                 0.3295

                     34                     35                     36
                      A                      A                      A
 Frequencies --    988.6527              1006.7311              1008.3087
 Red. masses --      1.2987                 2.9002                 6.2319
 Frc consts  --      0.7479                 1.7318                 3.7330
 IR Inten    --      0.1797                 4.6615                 5.1774

                     37                     38                     39
                      A                      A                      A
 Frequencies --   1037.2205              1087.4489              1126.0459
 Red. masses --      2.6895                 4.4281                 1.9656
 Frc consts  --      1.7048                 3.0852                 1.4684
 IR Inten    --      8.1108                62.4336                31.1400

                     40                     41                     42
                      A                      A                      A
 Frequencies --   1145.1033              1155.0431              1186.7200
 Red. masses --      1.8543                 2.0279                 1.2730
 Frc consts  --      1.4325                 1.5940                 1.0563
 IR Inten    --     86.7327                35.2574                 0.8415

                     43                     44                     45
                      A                      A                      A
 Frequencies --   1210.2665              1224.3442              1266.0756
 Red. masses --      1.2183                 1.5943                 1.7254
 Frc consts  --      1.0514                 1.4081                 1.6295
 IR Inten    --    190.2095                54.0271               148.1788

                     46                     47                     48
                      A                      A                      A
 Frequencies --   1279.7408              1315.8500              1319.4593
 Red. masses --      1.6002                 2.0387                 4.3901
 Frc consts  --      1.5440                 2.0798                 4.5031
 IR Inten    --     60.7613               117.4997               503.2605

                     49                     50                     51
                      A                      A                      A
 Frequencies --   1341.1863              1360.4978              1375.6794
 Red. masses --      1.3256                 3.1509                 5.0818
 Frc consts  --      1.4048                 3.4362                 5.6663
 IR Inten    --      1.4442               136.7544                32.8904

                     52                     53                     54
                      A                      A                      A
 Frequencies --   1401.7413              1422.6024              1469.3153
 Red. masses --      1.3151                 1.3156                 3.1432
 Frc consts  --      1.5225                 1.5688                 3.9981
 IR Inten    --     15.6015                11.8595                16.6452

                     55                     56                     57
                      A                      A                      A
 Frequencies --   1493.2533              1508.5021              1511.8049
 Red. masses --      1.2225                 1.0877                 1.0482
 Frc consts  --      1.6060                 1.4583                 1.4115
 IR Inten    --     29.8505                 7.5442                 5.5022

                     58                     59                     60
                      A                      A                      A
 Frequencies --   1526.0455              1529.4647              1561.9778
 Red. masses --      1.0491                 1.0933                 2.6061
 Frc consts  --      1.4395                 1.5069                 3.7461
 IR Inten    --      8.3157                 4.1647                59.9540

                     61                     62                     63
                      A                      A                      A
 Frequencies --   1632.2572              1669.9743              1799.1871
 Red. masses --      7.0880                 5.8136                11.6472
 Frc consts  --     11.1263                 9.5524                22.2140
 IR Inten    --     28.3373               177.9675               255.1843

                     64                     65                     66
                      A                      A                      A
 Frequencies --   2269.8496              3056.8273              3068.2387
 Red. masses --     13.6500                 1.0644                 1.0602
 Frc consts  --     41.4360                 5.8600                 5.8807
 IR Inten    --    373.7960                21.6863                57.1764

                     67                     68                     69
                      A                      A                      A
 Frequencies --   3073.7786              3119.9103              3129.1029
 Red. masses --      1.0295                 1.1037                 1.1044
 Frc consts  --      5.7310                 6.3299                 6.3710
 IR Inten    --     40.9643                20.6403                19.8990

                     70                     71                     72
                      A                      A                      A
 Frequencies --   3147.1239              3179.3418              3216.1064
 Red. masses --      1.1073                 1.1070                 1.0885
 Frc consts  --      6.4618                 6.5930                 6.6334
 IR Inten    --     22.2412                18.7941                 3.4910

                     73                     74                     75
                      A                      A                      A
 Frequencies --   3228.1702              3231.9278              3241.9897
 Red. masses --      1.0878                 1.0943                 1.0936
 Frc consts  --      6.6792                 6.7344                 6.7723
 IR Inten    --      3.1344                 3.6361                 3.4666

 - Thermochemistry -
 -------------------
 Temperature   298.150 Kelvin.  Pressure   1.00000 Atm.
 Atom     1 has atomic number  6 and mass  12.00000

 Molecular mass:   221.08004 amu.
 Principal axes and moments of inertia in atomic units:
                           1         2         3
     Eigenvalues --  1528.481307176.405177683.65125
           X            0.99986   0.01591   0.00434
           Y           -0.01565   0.99838  -0.05466
           Z           -0.00521   0.05459   0.99850
 This molecule is an asymmetric top.
 Rotational symmetry number  1.
 Warning -- assumption of classical behavior for rotation
           may cause significant error
 Rotational temperatures (Kelvin)      0.05667     0.01207     0.01127
 Rotational constants (GHZ):           1.18074     0.25148     0.23488
 Zero-point vibrational energy     550093.6 (Joules/Mol)
                                  131.47553 (Kcal/Mol)
 Warning -- explicit consideration of  21 degrees of freedom as
           vibrations may cause significant error
 Vibrational temperatures:     33.92    48.54    95.18   101.55   124.12
          (Kelvin)            135.56   195.58   201.16   238.44   330.94
                              342.43   418.06   445.59   465.02   519.04
                              612.32   652.24   699.42   746.10   769.34
                              815.88   903.13   933.59   947.15  1008.78
                             1106.65  1129.80  1198.47  1214.29  1241.10
                             1245.43  1336.66  1391.79  1422.45  1448.46
                             1450.73  1492.33  1564.60  1620.13  1647.55
                             1661.85  1707.43  1741.30  1761.56  1821.60
                             1841.26  1893.21  1898.41  1929.67  1957.45
                             1979.30  2016.79  2046.81  2114.02  2148.46
                             2170.40  2175.15  2195.64  2200.56  2247.34
                             2348.45  2402.72  2588.63  3265.81  4398.09
                             4414.51  4422.48  4488.85  4502.08  4528.01
                             4574.36  4627.26  4644.62  4650.02  4664.50

 Zero-point correction=                           0.209520 (Hartree/Particle)
 Thermal correction to Energy=                    0.224580
 Thermal correction to Enthalpy=                  0.225524
 Thermal correction to Gibbs Free Energy=         0.164964
 Sum of electronic and zero-point Energies=           -777.388351
 Sum of electronic and thermal Energies=              -777.373290
 Sum of electronic and thermal Enthalpies=            -777.372346
 Sum of electronic and thermal Free Energies=         -777.432907

                     E (Thermal)             CV                S
                      KCal/Mol        Cal/Mol-Kelvin    Cal/Mol-Kelvin
 Total                  140.926             54.199            127.461
 Electronic               0.000              0.000              0.000
 Translational            0.889              2.981             42.083
 Rotational               0.889              2.981             32.799
 Vibrational            139.149             48.238             52.579
 Vibration     1          0.593              1.985              6.308
 Vibration     2          0.594              1.983              5.597
 Vibration     3          0.598              1.970              4.265
 Vibration     4          0.598              1.968              4.137
 Vibration     5          0.601              1.959              3.743
 Vibration     6          0.603              1.953              3.570
 Vibration     7          0.614              1.917              2.860
 Vibration     8          0.615              1.914              2.806
 Vibration     9          0.624              1.885              2.483
 Vibration    10          0.652              1.795              1.879
 Vibration    11          0.656              1.782              1.818
 Vibration    12          0.687              1.691              1.471
 Vibration    13          0.699              1.655              1.364
 Vibration    14          0.708              1.629              1.294
 Vibration    15          0.735              1.553              1.119
 Vibration    16          0.787              1.415              0.873
 Vibration    17          0.812              1.354              0.786
 Vibration    18          0.842              1.281              0.694
 Vibration    19          0.874              1.209              0.613
 Vibration    20          0.890              1.173              0.577
 Vibration    21          0.923              1.103              0.510

                           ! Non-Optimized Parameters !
 Normal termination of Gaussian 16 at Thu Dec 10 23:01:32 2020.

 ----------------------------------------------------------------------
 # B3LYP/6-311++G(d,p) empiricaldispersion=gd3bj scf=xqc pop=npa geom=c
 heck
 ----------------------------------------------------------------------

 ---------------------------------------
 CID_101589694_JID_6688_Energie_neutraal
 ---------------------------------------
 Structure from the checkpoint file:  "JID_6688.chk"
 Charge =  0 Multiplicity = 1

 SCF Done:  E(RB3LYP) =  -777.814801646     A.U. after   15 cycles
 Normal termination of Gaussian 16 at Thu Dec 10 23:05:05 2020.

 ----------------------------------------------------------------------
 # B3LYP/6-311++G(d,p) empiricaldispersion=gd3bj scf=xqc pop=npa geom=c
 heck
 ----------------------------------------------------------------------

 -------------------------------------
 CID_101589694_JID_6688_Energie_kation
 -------------------------------------
 Structure from the checkpoint file:  "JID_6688.chk"
 Charge =  1 Multiplicity = 2

 SCF Done:  E(UB3LYP) =  -777.507900396     A.U. after   29 cycles
 Normal termination of Gaussian 16 at Thu Dec 10 23:13:36 2020.
 Gaussian 16:  ES64L-G16RevA.03 25-Dec-2016

 ----------------------------------------------------------------------
 # B3LYP/6-311++G(d,p) empiricaldispersion=gd3bj scf=xqc pop=npa geom=c
 heck
 ----------------------------------------------------------------------

 ------------------------------------
 CID_101589694_JID_6688_Energie_anion
 ------------------------------------
 Structure from the checkpoint file:  "JID_6688.chk"
 Charge = -1 Multiplicity = 2

                         Standard orientation:
 ---------------------------------------------------------------------
 Center     Atomic      Atomic             Coordinates (Angstroms)
 Number     Number       Type             X           Y           Z
 ---------------------------------------------------------------------
      1          6           0        4.958660    1.242520   -0.497012
      2          8           0        3.559805    0.939941   -0.576052
      3          6           0        3.167985   -0.144720    0.136340
      4          8           0        3.940914   -0.817219    0.792227
      5          6           0        1.713973   -0.404095    0.018346
      6          6           0        1.177855   -1.498438    0.713809
      7          6           0       -0.174195   -1.787685    0.635670
      8          6           0       -1.019497   -0.981658   -0.140547
      9          6           0       -0.499478    0.120592   -0.830460
     10          6           0        0.862425    0.398722   -0.747517
     11          8           0       -2.336169   -1.352029   -0.133323
     12          6           0       -3.248576   -0.832273   -1.095528
     13          6           0       -4.132080    0.254885   -0.489807
     14          7           0       -3.388135    1.484480   -0.158259
     15          7           0       -2.821566    1.482419    0.942983
     16          7           0       -2.259787    1.617752    1.925991
     17          1           0        5.102839    2.125346   -1.120534
     18          1           0        5.554965    0.405458   -0.869858
     19          1           0        5.249374    1.449294    0.536460
     20          1           0        1.845089   -2.113331    1.307912
     21          1           0       -0.604600   -2.632928    1.162061
     22          1           0       -1.145342    0.783194   -1.392700
     23          1           0        1.267057    1.255026   -1.274342
     24          1           0       -2.723707   -0.467020   -1.983045
     25          1           0       -3.883829   -1.673734   -1.394204
     26          1           0       -4.888848    0.548384   -1.222822
     27          1           0       -4.645422   -0.144882    0.393490
 ---------------------------------------------------------------------

 SCF Done:  E(UB3LYP) =  -777.817040546     A.U. after   33 cycles
 SCF Done:  E(UB3LYP) =  -777.817040546     a.u. after    1 cycles

 The electronic state is 2-A.
 Alpha  occ. eigenvalues --  -19.04913 -19.04286 -18.97573 -14.34707 -14.25006
 Alpha  occ. eigenvalues --  -14.23641 -10.16203 -10.12730 -10.12411 -10.11219
 Alpha  occ. eigenvalues --  -10.10736 -10.05692 -10.05434 -10.05360 -10.05293
 Alpha  occ. eigenvalues --  -10.05003  -1.01379  -0.98644  -0.95818  -0.89289
 Alpha  occ. eigenvalues --   -0.85667  -0.73993  -0.68159  -0.64696  -0.63326
 Alpha  occ. eigenvalues --   -0.61127  -0.56172  -0.50323  -0.49470  -0.45521
 Alpha  occ. eigenvalues --   -0.43474  -0.42719  -0.40880  -0.39835  -0.38857
 Alpha  occ. eigenvalues --   -0.37677  -0.37240  -0.35232  -0.33890  -0.33417
 Alpha  occ. eigenvalues --   -0.33127  -0.32379  -0.31163  -0.30350  -0.29534
 Alpha  occ. eigenvalues --   -0.29399  -0.26938  -0.26635  -0.25210  -0.24430
 Alpha  occ. eigenvalues --   -0.21849  -0.21010  -0.19557  -0.18487  -0.15749
 Alpha  occ. eigenvalues --   -0.14252  -0.13753  -0.11340   0.04169
 Alpha virt. eigenvalues --    0.06458   0.07163   0.07604   0.09286   0.09450
 Alpha virt. eigenvalues --    0.10118   0.10217   0.10354   0.11323   0.11485
 Alpha virt. eigenvalues --    0.11968   0.12488   0.13288   0.14038   0.14434

  Beta  occ. eigenvalues --  -19.04865 -19.04277 -18.97391 -14.34529 -14.24758
  Beta  occ. eigenvalues --  -14.23685 -10.16030 -10.12733 -10.12384 -10.10992
  Beta  occ. eigenvalues --  -10.10646 -10.05597 -10.05402 -10.05368 -10.05307
  Beta  occ. eigenvalues --  -10.04923  -1.01029  -0.98460  -0.95728  -0.89010
  Beta  occ. eigenvalues --   -0.85493  -0.73801  -0.67990  -0.64489  -0.63178
  Beta  occ. eigenvalues --   -0.60987  -0.56001  -0.50080  -0.49289  -0.45386
  Beta  occ. eigenvalues --   -0.43384  -0.42611  -0.40704  -0.39629  -0.38289
  Beta  occ. eigenvalues --   -0.37417  -0.37057  -0.35095  -0.33668  -0.33178
  Beta  occ. eigenvalues --   -0.32876  -0.32161  -0.31067  -0.30196  -0.29299
  Beta  occ. eigenvalues --   -0.28726  -0.26811  -0.26217  -0.25117  -0.24339
  Beta  occ. eigenvalues --   -0.21690  -0.20737  -0.18933  -0.18076  -0.15571
  Beta  occ. eigenvalues --   -0.13846  -0.13611  -0.10711
  Beta virt. eigenvalues --    0.07119   0.07405   0.08608   0.08993   0.09455
  Beta virt. eigenvalues --    0.09780   0.10330   0.10393   0.10835   0.11336
  Beta virt. eigenvalues --    0.11562   0.12099   0.12671   0.13311   0.14115

 Mulliken charges and spin densities:
               1          2
     1  C   -0.228445  -0.005146
     2  O   -0.132377   0.008563
     3  C   -0.249060  -0.000302
     4  O   -0.352805   0.062263
     5  C    1.058445  -0.052626
     6  C   -0.335445   0.166418
     7  C   -0.348765   0.071619
     8  C   -0.548571   0.410979
     9  C   -0.100322  -0.336889
    10  C   -0.118025  -0.123972
    11  O   -0.089451   0.003420
    12  C   -0.365311   0.169420
    13  C    1.048894  -1.436854
    14  N   -0.780577   0.323340
    15  N    0.634688  -0.021860
    16  N   -0.147522   0.029024
    17  H    0.119171  -0.000070
    18  H    0.159924   0.003683
    19  H    0.164966   0.001250
    20  H    0.165056  -0.002831
    21  H    0.155083   0.000137
    22  H    0.015861   0.150010
    23  H    0.164262   0.011160
    24  H    0.130896   0.025074
    25  H   -0.430672   0.599889
    26  H   -0.661234   0.838922
    27  H    0.071337   0.105380
 Sum of Mulliken charges =  -1.00000   1.00000

 Dipole moment (field-independent basis, Debye):
    X=              4.6561    Y=              0.3865    Z=             -0.7798  Tot=              4.7367
 Quadrupole moment (field-independent basis, Debye-Ang):
   XX=           -164.5957   YY=           -112.7462   ZZ=           -114.4467
   XY=             11.8453   XZ=            -15.0236   YZ=             -2.4597

 Summary of Natural Population Analysis:

                                       Natural Population
                Natural  -----------------------------------------------
    Atom  No    Charge         Core      Valence    Rydberg      Total
 -----------------------------------------------------------------------
      C    1   -0.10449      0.99961     2.09641    0.00846     3.10449
      O    2   -0.28074      0.99986     3.27313    0.00775     4.28074
      C    3    0.41955      0.99963     1.55748    0.02334     2.58045
      O    4   -0.30875      0.99988     3.30322    0.00565     4.30875
      C    5   -0.08458      0.99945     2.07590    0.00923     3.08458
      C    6   -0.05245      0.99955     2.04494    0.00796     3.05245
      C    7   -0.13702      0.99953     2.12923    0.00826     3.13702
      C    8    0.20251      0.99938     1.78406    0.01406     2.79749
      C    9   -0.16295      0.99952     2.15430    0.00913     3.16295
      C   10   -0.05254      0.99955     2.04423    0.00875     3.05254
      O   11   -0.28071      0.99985     3.27146    0.00939     4.28071
      C   12   -0.01490      0.99955     2.00224    0.01311     3.01490
      C   13   -0.10179      0.99958     2.08984    0.01237     3.10179
      N   14   -0.20833      0.99971     2.69423    0.01440     3.70833
      N   15    0.12808      0.99970     2.35615    0.01607     3.37192
      N   16   -0.01521      0.99982     2.50249    0.01290     3.51521
      H   17    0.08420      0.00000     0.41499    0.00081     0.41580
      H   18    0.08761      0.00000     0.41120    0.00119     0.41239
      H   19    0.08811      0.00000     0.41071    0.00118     0.41189
      H   20    0.10582      0.00000     0.39315    0.00103     0.39418
      H   21    0.10148      0.00000     0.39758    0.00094     0.39852
      H   22    0.10732      0.00000     0.39080    0.00187     0.39268
      H   23    0.10321      0.00000     0.39549    0.00130     0.39679
      H   24    0.08958      0.00000     0.40876    0.00166     0.41042
      H   25    0.09235      0.00000     0.40608    0.00157     0.40765
      H   26    0.10291      0.00000     0.39316    0.00393     0.39709
      H   27    0.09173      0.00000     0.40682    0.00146     0.40827
 =======================================================================
   * Total *    0.00000     15.99418    41.80804    0.19778    58.00000

 Normal termination of Gaussian 16 at Thu Dec 10 23:22:36 2020.
