 Gaussian 16, Revision A.03,

 -----------------------------------------------------------
 # opt freq B3LYP/6-31G(d) empiricaldispersion=gd3bj scf=xqc
 -----------------------------------------------------------

 ------------------------------
 CID_82411045_JID_1039_neutraal
 ------------------------------
 Symbolic Z-matrix:
 Charge =  0 Multiplicity = 1

 SCF Done:  E(RB3LYP) =  -877.902312770     A.U. after   14 cycles
 SCF Done:  E(RB3LYP) =  -877.911456357     A.U. after   12 cycles
 SCF Done:  E(RB3LYP) =  -877.912302481     A.U. after   12 cycles
 SCF Done:  E(RB3LYP) =  -877.912524524     A.U. after   12 cycles
 SCF Done:  E(RB3LYP) =  -877.912720882     A.U. after   12 cycles
 SCF Done:  E(RB3LYP) =  -877.912885361     A.U. after   12 cycles
 SCF Done:  E(RB3LYP) =  -877.913175774     A.U. after   12 cycles
 SCF Done:  E(RB3LYP) =  -877.913652787     A.U. after   13 cycles
 SCF Done:  E(RB3LYP) =  -877.915159455     A.U. after   12 cycles
 SCF Done:  E(RB3LYP) =  -877.918599404     A.U. after   13 cycles
 SCF Done:  E(RB3LYP) =  -877.921884842     A.U. after   11 cycles
 SCF Done:  E(RB3LYP) =  -877.921952109     A.U. after   11 cycles
 SCF Done:  E(RB3LYP) =  -877.921964225     A.U. after   10 cycles
 SCF Done:  E(RB3LYP) =  -877.921969113     A.U. after    8 cycles
 SCF Done:  E(RB3LYP) =  -877.921970215     A.U. after    8 cycles
 SCF Done:  E(RB3LYP) =  -877.921970303     A.U. after    7 cycles
 Optimization completed.
    -- Stationary point found.
 Normal termination of Gaussian 16 at Tue Dec  8 19:15:23 2020.

 --------------------------------------------------------------------
 #N Geom=AllCheck Guess=TCheck SCRF=Check GenChk RB3LYP/6-31G(d) Freq
 --------------------------------------------------------------------

 Structure from the checkpoint file:  "JID_1039.chk"
 ------------------------------
 CID_82411045_JID_1039_neutraal
 ------------------------------
 Charge =  0 Multiplicity = 1

 SCF Done:  E(RB3LYP) =  -877.921970303     A.U. after    1 cycles

  Exact polarizability: 104.063   1.215  94.289  -1.162   0.784  88.591
 Approx polarizability: 146.552  -3.788 136.415  -2.464   6.101 145.613

                      1                      2                      3
                      A                      A                      A
 Frequencies --    107.1201               115.7605               186.2731
 Red. masses --      4.2925                 3.5654                 5.0526
 Frc consts  --      0.0290                 0.0282                 0.1033
 IR Inten    --      2.7797                 1.9092                 1.5923

                      4                      5                      6
                      A                      A                      A
 Frequencies --    222.6014               245.1398               253.2896
 Red. masses --      3.1694                 2.3451                 2.9524
 Frc consts  --      0.0925                 0.0830                 0.1116
 IR Inten    --      4.2564                 1.0372                11.6531

                      7                      8                      9
                      A                      A                      A
 Frequencies --    278.7013               302.3311               350.3783
 Red. masses --      2.2282                 1.9422                 2.7428
 Frc consts  --      0.1020                 0.1046                 0.1984
 IR Inten    --      0.7963                30.6459                 8.5928

                     10                     11                     12
                      A                      A                      A
 Frequencies --    364.3523               387.8171               408.3636
 Red. masses --      2.2633                 3.5176                 3.1717
 Frc consts  --      0.1770                 0.3117                 0.3116
 IR Inten    --      6.3731                 3.3504                12.8624

                     13                     14                     15
                      A                      A                      A
 Frequencies --    447.2304               468.3010               538.7646
 Red. masses --      4.4131                 3.0554                 4.8025
 Frc consts  --      0.5201                 0.3948                 0.8213
 IR Inten    --     15.3851                19.5922                25.4252

                     16                     17                     18
                      A                      A                      A
 Frequencies --    563.8349               644.2871               721.2186
 Red. masses --      3.6593                 3.0076                 2.5941
 Frc consts  --      0.6854                 0.7356                 0.7950
 IR Inten    --     11.0612                 5.2238                 6.1641

                     19                     20                     21
                      A                      A                      A
 Frequencies --    776.1805               795.5731               858.9052
 Red. masses --      1.6116                 1.3451                 1.6455
 Frc consts  --      0.5721                 0.5016                 0.7152
 IR Inten    --     56.7473                45.6673                38.5440

                     22                     23                     24
                      A                      A                      A
 Frequencies --    878.3515               900.1224               928.4963
 Red. masses --      2.1357                 1.8973                 2.1774
 Frc consts  --      0.9708                 0.9057                 1.1060
 IR Inten    --     15.3086                35.4178                 2.4900

                     25                     26                     27
                      A                      A                      A
 Frequencies --    939.3087               960.4747               978.8035
 Red. masses --      2.0875                 1.4124                 1.9862
 Frc consts  --      1.0852                 0.7677                 1.1211
 IR Inten    --      4.8500                 4.4084                 4.8601

                     28                     29                     30
                      A                      A                      A
 Frequencies --    990.8286              1056.7206              1064.9790
 Red. masses --      2.4825                 1.9215                 1.4400
 Frc consts  --      1.4359                 1.2642                 0.9623
 IR Inten    --      6.3371                 3.9998                11.7358

                     31                     32                     33
                      A                      A                      A
 Frequencies --   1077.4953              1087.9522              1103.2771
 Red. masses --      1.8917                 1.4626                 4.3634
 Frc consts  --      1.2940                 1.0200                 3.1293
 IR Inten    --     12.8895                 5.8075               114.0468

                     34                     35                     36
                      A                      A                      A
 Frequencies --   1122.2205              1153.6137              1195.1774
 Red. masses --      2.7175                 1.2517                 1.3027
 Frc consts  --      2.0164                 0.9814                 1.0964
 IR Inten    --     18.4871                 7.1635                 0.1732

                     37                     38                     39
                      A                      A                      A
 Frequencies --   1197.3668              1224.9786              1265.0581
 Red. masses --      1.2975                 1.3641                 1.5697
 Frc consts  --      1.0960                 1.2060                 1.4801
 IR Inten    --     13.4807                 6.4278                12.0948

                     40                     41                     42
                      A                      A                      A
 Frequencies --   1295.0606              1321.0562              1328.2096
 Red. masses --      5.1052                 1.6246                 1.4786
 Frc consts  --      5.0447                 1.6705                 1.5369
 IR Inten    --    140.7914                13.3064                 4.7234

                     43                     44                     45
                      A                      A                      A
 Frequencies --   1345.9586              1352.8876              1388.7164
 Red. masses --      1.6385                 1.4596                 1.8295
 Frc consts  --      1.7489                 1.5740                 2.0788
 IR Inten    --      2.1159                16.9593                 2.1097

                     46                     47                     48
                      A                      A                      A
 Frequencies --   1405.8960              1429.6741              1475.6908
 Red. masses --      1.3846                 1.8391                 1.0970
 Frc consts  --      1.6124                 2.2148                 1.4075
 IR Inten    --      1.6236                 7.1789                10.7375

                     49                     50                     51
                      A                      A                      A
 Frequencies --   1495.9997              1509.8894              1517.9797
 Red. masses --      1.0864                 1.0982                 1.0967
 Frc consts  --      1.4326                 1.4751                 1.4889
 IR Inten    --      3.9656                 2.2206                 7.5773

                     52                     53                     54
                      A                      A                      A
 Frequencies --   1535.7392              1669.8992              2983.3334
 Red. masses --      1.3395                 1.0951                 1.0835
 Frc consts  --      1.8613                 1.7991                 5.6816
 IR Inten    --      1.0886                49.6347                30.6702

                     55                     56                     57
                      A                      A                      A
 Frequencies --   3055.4538              3061.6319              3092.5222
 Red. masses --      1.0609                 1.0610                 1.0868
 Frc consts  --      5.8355                 5.8596                 6.1241
 IR Inten    --     15.1897                33.3019                13.1709

                     58                     59                     60
                      A                      A                      A
 Frequencies --   3096.6799              3108.8229              3141.1461
 Red. masses --      1.0775                 1.1009                 1.0540
 Frc consts  --      6.0878                 6.2687                 6.1275
 IR Inten    --      5.8059                24.2407                15.3658

                     61                     62                     63
                      A                      A                      A
 Frequencies --   3159.5025              3159.6933              3219.2679
 Red. masses --      1.0952                 1.0677                 1.1184
 Frc consts  --      6.4414                 6.2804                 6.8293
 IR Inten    --      0.9158                 8.9127                 5.7735

                     64                     65                     66
                      A                      A                      A
 Frequencies --   3242.1943              3489.0697              3581.8586
 Red. masses --      1.1165                 1.0488                 1.0944
 Frc consts  --      6.9146                 7.5227                 8.2727
 IR Inten    --      9.1506                 2.9626                 6.3464

 - Thermochemistry -
 -------------------
 Temperature   298.150 Kelvin.  Pressure   1.00000 Atm.
 Atom     1 has atomic number  6 and mass  12.00000

 Molecular mass:   175.06670 amu.
 Principal axes and moments of inertia in atomic units:
                           1         2         3
     Eigenvalues --  1220.824812042.631482203.19706
           X            0.99957   0.02056  -0.02088
           Y           -0.02127   0.99919  -0.03430
           Z            0.02015   0.03473   0.99919
 This molecule is an asymmetric top.
 Rotational symmetry number  1.
 Warning -- assumption of classical behavior for rotation
           may cause significant error
 Rotational temperatures (Kelvin)      0.07095     0.04240     0.03931
 Rotational constants (GHZ):           1.47830     0.88354     0.81915
 Zero-point vibrational energy     536079.4 (Joules/Mol)
                                  128.12606 (Kcal/Mol)
 Warning -- explicit consideration of  16 degrees of freedom as
           vibrations may cause significant error
 Vibrational temperatures:    154.12   166.55   268.01   320.27   352.70
          (Kelvin)            364.43   400.99   434.99   504.12   524.22
                              557.98   587.54   643.46   673.78   775.16
                              811.23   926.99  1037.67  1116.75  1144.65
                             1235.77  1263.75  1295.08  1335.90  1351.46
                             1381.91  1408.28  1425.58  1520.39  1532.27
                             1550.28  1565.32  1587.37  1614.62  1659.79
                             1719.59  1722.74  1762.47  1820.14  1863.30
                             1900.71  1911.00  1936.53  1946.50  1998.05
                             2022.77  2056.98  2123.19  2152.41  2172.39
                             2184.03  2209.59  2402.61  4292.35  4396.12
                             4405.01  4449.45  4455.43  4472.90  4519.41
                             4545.82  4546.09  4631.81  4664.79  5019.99
                             5153.50

 Zero-point correction=                           0.204182 (Hartree/Particle)
 Thermal correction to Energy=                    0.214749
 Thermal correction to Enthalpy=                  0.215693
 Thermal correction to Gibbs Free Energy=         0.168953
 Sum of electronic and zero-point Energies=           -877.717788
 Sum of electronic and thermal Energies=              -877.707222
 Sum of electronic and thermal Enthalpies=            -877.706277
 Sum of electronic and thermal Free Energies=         -877.753017

                     E (Thermal)             CV                S
                      KCal/Mol        Cal/Mol-Kelvin    Cal/Mol-Kelvin
 Total                  134.757             42.393             98.371
 Electronic               0.000              0.000              0.000
 Translational            0.889              2.981             41.387
 Rotational               0.889              2.981             30.086
 Vibrational            132.979             36.432             26.898
 Vibration     1          0.606              1.944              3.320
 Vibration     2          0.608              1.936              3.170
 Vibration     3          0.632              1.859              2.265
 Vibration     4          0.648              1.807              1.938
 Vibration     5          0.660              1.771              1.765
 Vibration     6          0.664              1.757              1.708
 Vibration     7          0.679              1.713              1.542
 Vibration     8          0.694              1.669              1.404
 Vibration     9          0.727              1.574              1.164
 Vibration    10          0.738              1.546              1.103
 Vibration    11          0.756              1.496              1.009
 Vibration    12          0.773              1.452              0.932
 Vibration    13          0.806              1.367              0.804
 Vibration    14          0.825              1.320              0.742
 Vibration    15          0.894              1.164              0.568
 Vibration    16          0.920              1.110              0.516

 Optimization completed.
    -- Stationary point found.
 Normal termination of Gaussian 16 at Tue Dec  8 19:20:47 2020.

 ----------------------------------------------------------------------
 # B3LYP/6-311++G(d,p) empiricaldispersion=gd3bj scf=xqc pop=npa geom=c
 heck
 ----------------------------------------------------------------------

 --------------------------------------
 CID_82411045_JID_1039_Energie_neutraal
 --------------------------------------
 Structure from the checkpoint file:  "JID_1039.chk"
 Charge =  0 Multiplicity = 1

 SCF Done:  E(RB3LYP) =  -878.092762684     A.U. after   15 cycles
 Normal termination of Gaussian 16 at Tue Dec  8 19:22:49 2020.

 ----------------------------------------------------------------------
 # B3LYP/6-311++G(d,p) empiricaldispersion=gd3bj scf=xqc pop=npa geom=c
 heck
 ----------------------------------------------------------------------

 ------------------------------------
 CID_82411045_JID_1039_Energie_kation
 ------------------------------------
 Structure from the checkpoint file:  "JID_1039.chk"
 Charge =  1 Multiplicity = 2

 SCF Done:  E(UB3LYP) =  -877.756547995     A.U. after   23 cycles
 Normal termination of Gaussian 16 at Tue Dec  8 19:26:55 2020.
 Gaussian 16:  ES64L-G16RevA.03 25-Dec-2016

 ----------------------------------------------------------------------
 # B3LYP/6-311++G(d,p) empiricaldispersion=gd3bj scf=xqc pop=npa geom=c
 heck
 ----------------------------------------------------------------------

 -----------------------------------
 CID_82411045_JID_1039_Energie_anion
 -----------------------------------
 Structure from the checkpoint file:  "JID_1039.chk"
 Charge = -1 Multiplicity = 2

                         Standard orientation:
 ---------------------------------------------------------------------
 Center     Atomic      Atomic             Coordinates (Angstroms)
 Number     Number       Type             X           Y           Z
 ---------------------------------------------------------------------
      1          6           0       -0.128414    2.047074   -0.451825
      2          6           0       -1.316186    1.158539   -0.855713
      3          6           0       -1.388566   -0.119415   -0.031580
      4          6           0       -2.057191   -0.065848    1.317021
      5          6           0       -2.730379   -0.790419    0.179021
      6          6           0       -0.191833   -1.041464   -0.171525
      7         16           0        1.328574   -0.151168    0.356164
      8          8           0        2.490085   -0.949339   -0.080946
      9          8           0        1.169164    0.217254    1.774655
     10          6           0        1.221130    1.351330   -0.654125
     11          7           0        0.020966   -1.439468   -1.549126
     12          1           0       -0.222818    2.339862    0.599742
     13          1           0       -0.131564    2.966872   -1.048533
     14          1           0       -1.239462    0.904334   -1.919358
     15          1           0       -2.247982    1.719837   -0.722380
     16          1           0       -1.623874   -0.646004    2.125048
     17          1           0       -2.464623    0.891301    1.629641
     18          1           0       -3.599600   -0.333876   -0.286489
     19          1           0       -2.763774   -1.876760    0.213665
     20          1           0       -0.260610   -1.863915    0.560581
     21          1           0        2.067490    1.968134   -0.337816
     22          1           0        1.369923    1.026950   -1.686738
     23          1           0        0.802681   -2.087396   -1.612654
     24          1           0       -0.815092   -1.896477   -1.906772
 ---------------------------------------------------------------------

 SCF Done:  E(UB3LYP) =  -878.081609896     A.U. after   28 cycles

 The electronic state is 2-A.
 Alpha  occ. eigenvalues --  -88.93410 -19.01182 -19.01083 -14.20680 -10.13836
 Alpha  occ. eigenvalues --  -10.10777 -10.09692 -10.08328 -10.07498 -10.07456
 Alpha  occ. eigenvalues --  -10.07251  -8.00026  -5.96296  -5.96156  -5.96100
 Alpha  occ. eigenvalues --   -1.00106  -0.89872  -0.81811  -0.76761  -0.71704
 Alpha  occ. eigenvalues --   -0.63658  -0.61859  -0.53357  -0.51188  -0.50003
 Alpha  occ. eigenvalues --   -0.44513  -0.41544  -0.40987  -0.39267  -0.38277
 Alpha  occ. eigenvalues --   -0.37485  -0.35191  -0.34393  -0.33432  -0.32006
 Alpha  occ. eigenvalues --   -0.31488  -0.27516  -0.26984  -0.25878  -0.25107
 Alpha  occ. eigenvalues --   -0.22989  -0.22090  -0.21149  -0.20470  -0.19418
 Alpha  occ. eigenvalues --   -0.17261  -0.15625   0.04435
 Alpha virt. eigenvalues --    0.06605   0.07717   0.08501   0.09657   0.09769
 Alpha virt. eigenvalues --    0.10247   0.10993   0.11924   0.12620   0.12995
 Alpha virt. eigenvalues --    0.13482   0.14305   0.14636   0.16389   0.16440

  Beta  occ. eigenvalues --  -88.93410 -19.01179 -19.01081 -14.20632 -10.13821
  Beta  occ. eigenvalues --  -10.10761 -10.09694 -10.08305 -10.07463 -10.07436
  Beta  occ. eigenvalues --  -10.07219  -8.00027  -5.96296  -5.96156  -5.96101
  Beta  occ. eigenvalues --   -1.00103  -0.89868  -0.81760  -0.76722  -0.71670
  Beta  occ. eigenvalues --   -0.63606  -0.61798  -0.53294  -0.51143  -0.49934
  Beta  occ. eigenvalues --   -0.44458  -0.41502  -0.40924  -0.39229  -0.38240
  Beta  occ. eigenvalues --   -0.37435  -0.35148  -0.34367  -0.33389  -0.31966
  Beta  occ. eigenvalues --   -0.31446  -0.27477  -0.26944  -0.25847  -0.25071
  Beta  occ. eigenvalues --   -0.22970  -0.22080  -0.21126  -0.20456  -0.19396
  Beta  occ. eigenvalues --   -0.17225  -0.15586
  Beta virt. eigenvalues --    0.07138   0.07973   0.08466   0.09187   0.10187
  Beta virt. eigenvalues --    0.10422   0.10616   0.11616   0.12319   0.13032
  Beta virt. eigenvalues --    0.13430   0.13920   0.14619   0.15078   0.16448

 Mulliken charges and spin densities:
               1          2
     1  C    0.623334  -1.119960
     2  C   -0.316967   0.090270
     3  C   -3.133416   3.944063
     4  C    0.921063  -1.494763
     5  C    1.180274  -1.463657
     6  C    2.752403  -3.934920
     7  S    0.641058  -0.034035
     8  O   -0.200975   0.029268
     9  O   -0.271070   0.003382
    10  C   -0.558192  -0.150422
    11  N   -0.780658   0.564333
    12  H    0.305224  -0.123759
    13  H   -0.797410   0.992146
    14  H   -0.111040   0.309113
    15  H   -0.566175   0.743590
    16  H    0.109065   0.055074
    17  H    0.083948   0.059769
    18  H   -0.304549   0.473740
    19  H   -0.673328   0.837038
    20  H    0.136716   0.178174
    21  H   -0.008590   0.257988
    22  H    0.237231  -0.008783
    23  H    0.195572   0.064582
    24  H   -0.463516   0.727770
 Sum of Mulliken charges =  -1.00000   1.00000

 Dipole moment (field-independent basis, Debye):
    X=              3.4540    Y=              1.0089    Z=              2.7748  Tot=              4.5440
 Quadrupole moment (field-independent basis, Debye-Ang):
   XX=           -127.8366   YY=           -121.4576   ZZ=           -111.7794
   XY=              0.1725   XZ=             -9.1881   YZ=              1.2558

 Summary of Natural Population Analysis:

                                       Natural Population
                Natural  -----------------------------------------------
    Atom  No    Charge         Core      Valence    Rydberg      Total
 -----------------------------------------------------------------------
      C    1   -0.19913      0.99961     2.18938    0.01014     3.19913
      C    2   -0.18687      0.99957     2.17631    0.01098     3.18687
      C    3   -0.06512      0.99951     2.04763    0.01798     3.06512
      C    4   -0.18693      0.99957     2.17845    0.00891     3.18693
      C    5   -0.18953      0.99958     2.17938    0.01057     3.18953
      C    6   -0.08930      0.99950     2.07014    0.01966     3.08930
      S    7    1.01569      4.99922     1.89252    0.09258     6.98431
      O    8   -0.47480      0.99991     3.46943    0.00546     4.47480
      O    9   -0.47275      0.99991     3.46746    0.00538     4.47275
      C   10   -0.28844      0.99958     2.27725    0.01161     3.28844
      N   11   -0.42942      0.99974     2.91820    0.01149     3.92942
      H   12    0.10352      0.00000     0.39507    0.00140     0.39648
      H   13    0.10796      0.00000     0.39005    0.00198     0.39204
      H   14    0.10805      0.00000     0.38961    0.00233     0.39195
      H   15    0.10719      0.00000     0.39056    0.00226     0.39281
      H   16    0.10733      0.00000     0.39164    0.00103     0.39267
      H   17    0.10364      0.00000     0.39548    0.00087     0.39636
      H   18    0.10799      0.00000     0.39007    0.00194     0.39201
      H   19    0.10661      0.00000     0.39105    0.00235     0.39339
      H   20    0.10217      0.00000     0.39564    0.00219     0.39783
      H   21    0.11565      0.00000     0.38318    0.00117     0.38435
      H   22    0.12023      0.00000     0.37838    0.00139     0.37977
      H   23    0.18742      0.00000     0.31077    0.00181     0.31258
      H   24    0.18885      0.00000     0.30581    0.00535     0.31115
 =======================================================================
   * Total *    0.00000     14.99571    31.77347    0.23083    47.00000

 Normal termination of Gaussian 16 at Tue Dec  8 19:31:59 2020.
