 Gaussian 16, Revision A.03,

 -----------------------------------------------------------
 # opt freq B3LYP/6-31G(d) empiricaldispersion=gd3bj scf=xqc
 -----------------------------------------------------------

 -------------------------------
 CID_153264032_JID_1786_neutraal
 -------------------------------
 Symbolic Z-matrix:
 Charge =  0 Multiplicity = 1

 SCF Done:  E(RB3LYP) =  -446.053517455     A.U. after   13 cycles
 SCF Done:  E(RB3LYP) =  -446.055090536     A.U. after   10 cycles
 SCF Done:  E(RB3LYP) =  -446.055242424     A.U. after   10 cycles
 SCF Done:  E(RB3LYP) =  -446.055271707     A.U. after   10 cycles
 SCF Done:  E(RB3LYP) =  -446.055276744     A.U. after    8 cycles
 SCF Done:  E(RB3LYP) =  -446.055277832     A.U. after    8 cycles
 SCF Done:  E(RB3LYP) =  -446.055278028     A.U. after    7 cycles
 Optimization completed.
    -- Stationary point found.
 Normal termination of Gaussian 16 at Tue Dec  8 21:04:00 2020.

 --------------------------------------------------------------------
 #N Geom=AllCheck Guess=TCheck SCRF=Check GenChk RB3LYP/6-31G(d) Freq
 --------------------------------------------------------------------

 Structure from the checkpoint file:  "JID_1786.chk"
 -------------------------------
 CID_153264032_JID_1786_neutraal
 -------------------------------
 Charge =  0 Multiplicity = 1

 SCF Done:  E(RB3LYP) =  -446.055278028     A.U. after    1 cycles

  Exact polarizability: 120.310   7.047 104.742  -1.016   3.461  91.366
 Approx polarizability: 148.221  10.252 156.105   0.374  10.611 142.116

                      1                      2                      3
                      A                      A                      A
 Frequencies --     51.0304                87.5157               100.0601
 Red. masses --      3.6302                 2.8924                 3.0442
 Frc consts  --      0.0056                 0.0131                 0.0180
 IR Inten    --      0.7282                 5.9954                 0.4486

                      4                      5                      6
                      A                      A                      A
 Frequencies --    155.3855               201.2958               271.4382
 Red. masses --      2.8964                 3.1364                 2.2477
 Frc consts  --      0.0412                 0.0749                 0.0976
 IR Inten    --      2.7910                 0.3519                 4.3497

                      7                      8                      9
                      A                      A                      A
 Frequencies --    286.5410               354.0943               375.5745
 Red. masses --      2.4470                 2.4095                 1.9106
 Frc consts  --      0.1184                 0.1780                 0.1588
 IR Inten    --      2.8582                 0.6040                 0.6123

                     10                     11                     12
                      A                      A                      A
 Frequencies --    394.5754               418.8970               473.6697
 Red. masses --      1.9145                 2.0958                 2.3931
 Frc consts  --      0.1756                 0.2167                 0.3163
 IR Inten    --      0.2516                 1.0669                 1.4786

                     13                     14                     15
                      A                      A                      A
 Frequencies --    486.6086               500.4464               643.0573
 Red. masses --      2.9588                 2.8872                 2.4865
 Frc consts  --      0.4128                 0.4260                 0.6058
 IR Inten    --      0.8267                 2.2659                 0.3182

                     16                     17                     18
                      A                      A                      A
 Frequencies --    694.1665               709.4447               793.5377
 Red. masses --      2.2642                 1.3751                 1.0558
 Frc consts  --      0.6428                 0.4078                 0.3917
 IR Inten    --      2.4772                 3.4947                 0.0626

                     19                     20                     21
                      A                      A                      A
 Frequencies --    807.0264               826.2101               881.6198
 Red. masses --      1.5046                 2.4049                 2.1029
 Frc consts  --      0.5774                 0.9672                 0.9630
 IR Inten    --      0.2479                 2.0488                 1.6171

                     22                     23                     24
                      A                      A                      A
 Frequencies --    895.1853               929.1468               952.0154
 Red. masses --      2.5436                 1.2619                 2.6476
 Frc consts  --      1.2009                 0.6419                 1.4138
 IR Inten    --      6.3635                 0.6270                10.5063

                     25                     26                     27
                      A                      A                      A
 Frequencies --    967.1837               981.4705               990.2437
 Red. masses --      1.6359                 2.1718                 1.5614
 Frc consts  --      0.9016                 1.2326                 0.9021
 IR Inten    --      2.0425                 1.0112                 0.5427

                     28                     29                     30
                      A                      A                      A
 Frequencies --   1007.6785              1026.4818              1028.6289
 Red. masses --      2.6820                 2.0782                 1.9482
 Frc consts  --      1.6045                 1.2902                 1.2145
 IR Inten    --     12.5685                 0.9357                 1.3048

                     31                     32                     33
                      A                      A                      A
 Frequencies --   1058.1202              1059.0102              1069.6575
 Red. masses --      1.3602                 1.5269                 1.9196
 Frc consts  --      0.8972                 1.0089                 1.2941
 IR Inten    --     16.2292                 5.2995                 1.1872

                     34                     35                     36
                      A                      A                      A
 Frequencies --   1081.0257              1126.4732              1150.4562
 Red. masses --      1.4166                 1.3061                 2.2729
 Frc consts  --      0.9754                 0.9765                 1.7724
 IR Inten    --      0.8580                 0.7027                 0.8487

                     37                     38                     39
                      A                      A                      A
 Frequencies --   1175.1039              1191.8191              1203.9103
 Red. masses --      1.8980                 1.1590                 1.3229
 Frc consts  --      1.5442                 0.9699                 1.1297
 IR Inten    --      1.4266                 0.4773                 3.6895

                     40                     41                     42
                      A                      A                      A
 Frequencies --   1208.9004              1241.5731              1281.3027
 Red. masses --      1.2209                 1.6125                 1.3099
 Frc consts  --      1.0513                 1.4645                 1.2671
 IR Inten    --      0.7379                 5.4361                 6.6866

                     43                     44                     45
                      A                      A                      A
 Frequencies --   1292.8650              1322.7368              1337.4904
 Red. masses --      1.2525                 1.6388                 1.4077
 Frc consts  --      1.2335                 1.6894                 1.4837
 IR Inten    --      3.9806                 2.0256                 5.4099

                     46                     47                     48
                      A                      A                      A
 Frequencies --   1365.1871              1379.6099              1387.9284
 Red. masses --      1.4341                 1.5478                 1.9296
 Frc consts  --      1.5747                 1.7357                 2.1901
 IR Inten    --      5.8283                 3.5226                 0.4841

                     49                     50                     51
                      A                      A                      A
 Frequencies --   1397.9587              1400.1929              1423.5469
 Red. masses --      1.5012                 1.4186                 1.3986
 Frc consts  --      1.7285                 1.6387                 1.6698
 IR Inten    --      1.5053                 1.9527                 5.4140

                     52                     53                     54
                      A                      A                      A
 Frequencies --   1431.4119              1493.2431              1508.0760
 Red. masses --      1.7161                 1.0897                 1.0856
 Frc consts  --      2.0716                 1.4316                 1.4547
 IR Inten    --      1.0505                 2.0847                 0.7000

                     55                     56                     57
                      A                      A                      A
 Frequencies --   1512.4001              1518.4813              1521.2619
 Red. masses --      1.1030                 1.1094                 1.1186
 Frc consts  --      1.4864                 1.5071                 1.5252
 IR Inten    --      3.9945                 2.4362                 6.8577

                     58                     59                     60
                      A                      A                      A
 Frequencies --   1529.5831              1533.8598              1539.0778
 Red. masses --      1.1266                 1.1966                 1.2387
 Frc consts  --      1.5530                 1.6587                 1.7287
 IR Inten    --     13.7648                 4.9539                 4.7388

                     61                     62                     63
                      A                      A                      A
 Frequencies --   1753.9406              2983.4945              3009.5598
 Red. masses --      6.0673                 1.0664                 1.0657
 Frc consts  --     10.9969                 5.5928                 5.6873
 IR Inten    --     22.7280                34.3289                45.6437

                     64                     65                     66
                      A                      A                      A
 Frequencies --   3024.7494              3030.3519              3033.4160
 Red. masses --      1.0640                 1.0621                 1.0650
 Frc consts  --      5.7353                 5.7466                 5.7741
 IR Inten    --     23.1163                47.3408                20.3121

                     67                     68                     69
                      A                      A                      A
 Frequencies --   3039.7818              3050.5736              3061.1672
 Red. masses --      1.0687                 1.0827                 1.0925
 Frc consts  --      5.8184                 5.9366                 6.0320
 IR Inten    --      8.4329                19.6651                62.0761

                     70                     71                     72
                      A                      A                      A
 Frequencies --   3066.6397              3070.6532              3076.5765
 Red. masses --      1.0976                 1.0977                 1.1031
 Frc consts  --      6.0817                 6.0982                 6.1517
 IR Inten    --     72.9926                10.4450                81.1141

                     73                     74                     75
                      A                      A                      A
 Frequencies --   3094.3455              3134.8805              3139.2736
 Red. masses --      1.0985                 1.0504                 1.0582
 Frc consts  --      6.1972                 6.0819                 6.1446
 IR Inten    --     37.6609                24.1876                15.8555

                     76                     77                     78
                      A                      A                      A
 Frequencies --   3153.1317              3207.7356              3221.5591
 Red. masses --      1.1029                 1.1193                 1.1161
 Frc consts  --      6.4607                 6.7857                 6.8250
 IR Inten    --     43.3770                 0.0459                27.0064

 - Thermochemistry -
 -------------------
 Temperature   298.150 Kelvin.  Pressure   1.00000 Atm.
 Atom     1 has atomic number  6 and mass  12.00000

 Molecular mass:   151.13610 amu.
 Principal axes and moments of inertia in atomic units:
                           1         2         3
     Eigenvalues --   798.813112721.375822983.00235
           X            0.99998   0.00578   0.00332
           Y           -0.00577   0.99998  -0.00328
           Z           -0.00334   0.00326   0.99999
 This molecule is an asymmetric top.
 Rotational symmetry number  1.
 Warning -- assumption of classical behavior for rotation
           may cause significant error
 Rotational temperatures (Kelvin)      0.10843     0.03183     0.02904
 Rotational constants (GHZ):           2.25928     0.66317     0.60501
 Zero-point vibrational energy     671011.3 (Joules/Mol)
                                  160.37554 (Kcal/Mol)
 Warning -- explicit consideration of  14 degrees of freedom as
           vibrations may cause significant error
 Vibrational temperatures:     73.42   125.92   143.96   223.57   289.62
          (Kelvin)            390.54   412.27   509.46   540.37   567.71
                              602.70   681.51   700.12   720.03   925.22
                              998.75  1020.73  1141.72  1161.13  1188.73
                             1268.45  1287.97  1336.84  1369.74  1391.56
                             1412.12  1424.74  1449.82  1476.88  1479.97
                             1522.40  1523.68  1539.00  1555.35  1620.74
                             1655.25  1690.71  1714.76  1732.16  1739.34
                             1786.35  1843.51  1860.14  1903.12  1924.35
                             1964.20  1984.95  1996.92  2011.35  2014.57
                             2048.17  2059.48  2148.44  2169.78  2176.01
                             2184.76  2188.76  2200.73  2206.88  2214.39
                             2523.53  4292.58  4330.09  4351.94  4360.00
                             4364.41  4373.57  4389.09  4404.34  4412.21
                             4417.99  4426.51  4452.07  4510.39  4516.71
                             4536.65  4615.22  4635.11

 Zero-point correction=                           0.255575 (Hartree/Particle)
 Thermal correction to Energy=                    0.266209
 Thermal correction to Enthalpy=                  0.267154
 Thermal correction to Gibbs Free Energy=         0.219300
 Sum of electronic and zero-point Energies=           -445.799703
 Sum of electronic and thermal Energies=              -445.789069
 Sum of electronic and thermal Enthalpies=            -445.788124
 Sum of electronic and thermal Free Energies=         -445.835978

                     E (Thermal)             CV                S
                      KCal/Mol        Cal/Mol-Kelvin    Cal/Mol-Kelvin
 Total                  167.049             42.203            100.717
 Electronic               0.000              0.000              0.000
 Translational            0.889              2.981             40.949
 Rotational               0.889              2.981             30.251
 Vibrational            165.271             36.242             29.517
 Vibration     1          0.595              1.977              4.777
 Vibration     2          0.601              1.958              3.715
 Vibration     3          0.604              1.949              3.453
 Vibration     4          0.620              1.897              2.605
 Vibration     5          0.638              1.838              2.121
 Vibration     6          0.675              1.726              1.587
 Vibration     7          0.684              1.699              1.494
 Vibration     8          0.730              1.567              1.148
 Vibration     9          0.746              1.522              1.057
 Vibration    10          0.762              1.482              0.983
 Vibration    11          0.782              1.429              0.896
 Vibration    12          0.830              1.308              0.727
 Vibration    13          0.843              1.280              0.692
 Vibration    14          0.856              1.249              0.657

 Optimization completed.
    -- Stationary point found.
 Normal termination of Gaussian 16 at Tue Dec  8 21:10:55 2020.

 ----------------------------------------------------------------------
 # B3LYP/6-311++G(d,p) empiricaldispersion=gd3bj scf=xqc pop=npa geom=c
 heck
 ----------------------------------------------------------------------

 ---------------------------------------
 CID_153264032_JID_1786_Energie_neutraal
 ---------------------------------------
 Structure from the checkpoint file:  "JID_1786.chk"
 Charge =  0 Multiplicity = 1

 SCF Done:  E(RB3LYP) =  -446.174904815     A.U. after   13 cycles
 Normal termination of Gaussian 16 at Tue Dec  8 21:13:39 2020.

 ----------------------------------------------------------------------
 # B3LYP/6-311++G(d,p) empiricaldispersion=gd3bj scf=xqc pop=npa geom=c
 heck
 ----------------------------------------------------------------------

 -------------------------------------
 CID_153264032_JID_1786_Energie_kation
 -------------------------------------
 Structure from the checkpoint file:  "JID_1786.chk"
 Charge =  1 Multiplicity = 2

 SCF Done:  E(UB3LYP) =  -445.850578634     A.U. after   24 cycles
 Normal termination of Gaussian 16 at Tue Dec  8 21:20:10 2020.
 Gaussian 16:  ES64L-G16RevA.03 25-Dec-2016

 ----------------------------------------------------------------------
 # B3LYP/6-311++G(d,p) empiricaldispersion=gd3bj scf=xqc pop=npa geom=c
 heck
 ----------------------------------------------------------------------

 ------------------------------------
 CID_153264032_JID_1786_Energie_anion
 ------------------------------------
 Structure from the checkpoint file:  "JID_1786.chk"
 Charge = -1 Multiplicity = 2

                         Standard orientation:
 ---------------------------------------------------------------------
 Center     Atomic      Atomic             Coordinates (Angstroms)
 Number     Number       Type             X           Y           Z
 ---------------------------------------------------------------------
      1          6           0       -3.440426   -1.142583   -0.499236
      2          7           0       -3.109231   -0.054704    0.059001
      3          6           0       -1.946059    0.647539   -0.461553
      4          6           0       -0.902105    0.867309    0.650273
      5          6           0       -0.356949   -0.457397    1.217419
      6          6           0        0.565158   -1.186531    0.228944
      7          6           0        1.691092   -0.275310   -0.233646
      8          6           0        1.189523    1.032921   -0.823965
      9          6           0        0.257714    1.756937    0.161616
     10          6           0        2.953998   -0.237395    0.595964
     11          6           0        2.956630   -0.885182   -0.772092
     12          1           0       -4.305048   -1.696112   -0.127108
     13          1           0       -2.904653   -1.578393   -1.357721
     14          1           0       -1.504808    0.127366   -1.328154
     15          1           0       -2.286779    1.631573   -0.809920
     16          1           0       -1.426454    1.391781    1.459132
     17          1           0        0.214706   -0.234492    2.128052
     18          1           0       -1.189617   -1.103743    1.515729
     19          1           0       -0.009543   -1.527301   -0.644336
     20          1           0        0.977593   -2.089019    0.697150
     21          1           0        0.660029    0.828245   -1.765183
     22          1           0        2.036795    1.680754   -1.081485
     23          1           0       -0.136909    2.675114   -0.292982
     24          1           0        0.848174    2.064935    1.034594
     25          1           0        3.466941    0.714217    0.711641
     26          1           0        3.017659   -0.883692    1.467893
     27          1           0        3.022665   -1.969319   -0.823226
     28          1           0        3.472406   -0.370847   -1.579441
 ---------------------------------------------------------------------

 SCF Done:  E(UB3LYP) =  -446.156200259     A.U. after   33 cycles
 SCF Done:  E(UB3LYP) =  -446.156417586     a.u. after    7 cycles

 The electronic state is 2-A.
 Alpha  occ. eigenvalues --  -14.20806 -10.10254 -10.08632 -10.07606 -10.06826
 Alpha  occ. eigenvalues --  -10.06364 -10.06322 -10.06147 -10.05945 -10.05904
 Alpha  occ. eigenvalues --  -10.05763  -0.82047  -0.76838  -0.70917  -0.63984
 Alpha  occ. eigenvalues --   -0.62582  -0.57060  -0.51302  -0.49921  -0.48435
 Alpha  occ. eigenvalues --   -0.46016  -0.41777  -0.38958  -0.37731  -0.37337
 Alpha  occ. eigenvalues --   -0.36734  -0.34276  -0.32061  -0.31342  -0.30081
 Alpha  occ. eigenvalues --   -0.28590  -0.27730  -0.26541  -0.25236  -0.23548
 Alpha  occ. eigenvalues --   -0.23445  -0.22641  -0.19991  -0.19333  -0.18130
 Alpha  occ. eigenvalues --   -0.16544  -0.15413   0.04849
 Alpha virt. eigenvalues --    0.06710   0.07143   0.07715   0.08030   0.08679
 Alpha virt. eigenvalues --    0.09541   0.10199   0.10344   0.10453   0.11726
 Alpha virt. eigenvalues --    0.12271   0.12871   0.13028   0.13550   0.14121

  Beta  occ. eigenvalues --  -14.20754 -10.10199 -10.08616 -10.07608 -10.06825
  Beta  occ. eigenvalues --  -10.06344 -10.06298 -10.06131 -10.05923 -10.05886
  Beta  occ. eigenvalues --  -10.05754  -0.81955  -0.76822  -0.70893  -0.63953
  Beta  occ. eigenvalues --   -0.62543  -0.57006  -0.51253  -0.49850  -0.48311
  Beta  occ. eigenvalues --   -0.45964  -0.41723  -0.38905  -0.37694  -0.37288
  Beta  occ. eigenvalues --   -0.36678  -0.34229  -0.32029  -0.31309  -0.30024
  Beta  occ. eigenvalues --   -0.28550  -0.27691  -0.26513  -0.25202  -0.23523
  Beta  occ. eigenvalues --   -0.23383  -0.22601  -0.19924  -0.19229  -0.18100
  Beta  occ. eigenvalues --   -0.16504  -0.15324
  Beta virt. eigenvalues --    0.07062   0.07486   0.07929   0.08140   0.08702
  Beta virt. eigenvalues --    0.09440   0.09988   0.10686   0.10729   0.10953
  Beta virt. eigenvalues --    0.12241   0.12810   0.13138   0.13325   0.13938

 Mulliken charges and spin densities:
               1          2
     1  C    0.581472  -0.677991
     2  N   -0.167829   0.209052
     3  C    0.686187  -1.585439
     4  C    0.215905   0.372709
     5  C   -0.997641   0.444925
     6  C    0.981003  -1.316568
     7  C   -2.573544   3.168234
     8  C    0.869517  -1.239279
     9  C   -0.386738  -0.209412
    10  C    0.990987  -1.605186
    11  C    1.277267  -1.579928
    12  H   -0.389456   0.550577
    13  H   -0.307537   0.370961
    14  H    0.132073  -0.034632
    15  H   -0.168584   0.372349
    16  H    0.041198   0.174786
    17  H   -0.110517   0.246626
    18  H    0.071001   0.078970
    19  H    0.000855   0.153339
    20  H   -0.165945   0.329058
    21  H   -0.277213   0.440191
    22  H   -0.571932   0.739401
    23  H   -0.255786   0.426191
    24  H    0.018910   0.115245
    25  H   -0.148022   0.293294
    26  H   -0.031103   0.176488
    27  H   -0.272006   0.404946
    28  H   -0.042522   0.181092
 Sum of Mulliken charges =  -1.00000   1.00000

 Dipole moment (field-independent basis, Debye):
    X=              0.5630    Y=             -0.3570    Z=              2.1816  Tot=              2.2812
 Quadrupole moment (field-independent basis, Debye-Ang):
   XX=           -141.7203   YY=           -111.3356   ZZ=           -103.6777
   XY=             -3.9377   XZ=             -1.7022   YZ=              2.9347

 Summary of Natural Population Analysis:

                                       Natural Population
                Natural  -----------------------------------------------
    Atom  No    Charge         Core      Valence    Rydberg      Total
 -----------------------------------------------------------------------
      C    1   -0.01445      0.99964     2.00244    0.01237     3.01445
      N    2   -0.21237      0.99970     2.70011    0.01256     3.71237
      C    3   -0.10347      0.99957     2.09116    0.01275     3.10347
      C    4   -0.11127      0.99958     2.10105    0.01063     3.11127
      C    5   -0.18975      0.99961     2.18175    0.00840     3.18975
      C    6   -0.18602      0.99958     2.17713    0.00931     3.18602
      C    7   -0.04716      0.99954     2.03408    0.01354     3.04716
      C    8   -0.18557      0.99958     2.17579    0.01020     3.18557
      C    9   -0.18605      0.99961     2.17676    0.00968     3.18605
      C   10   -0.19673      0.99958     2.18810    0.00904     3.19673
      C   11   -0.19190      0.99958     2.18420    0.00813     3.19190
      H   12    0.07916      0.00000     0.41926    0.00157     0.42084
      H   13    0.06680      0.00000     0.43071    0.00249     0.43320
      H   14    0.08163      0.00000     0.41574    0.00263     0.41837
      H   15    0.10053      0.00000     0.39774    0.00173     0.39947
      H   16    0.10021      0.00000     0.39816    0.00163     0.39979
      H   17    0.09647      0.00000     0.40224    0.00128     0.40353
      H   18    0.10261      0.00000     0.39629    0.00110     0.39739
      H   19    0.09641      0.00000     0.40184    0.00175     0.40359
      H   20    0.10016      0.00000     0.39863    0.00121     0.39984
      H   21    0.09737      0.00000     0.40093    0.00170     0.40263
      H   22    0.10196      0.00000     0.39627    0.00177     0.39804
      H   23    0.09960      0.00000     0.39904    0.00137     0.40040
      H   24    0.09671      0.00000     0.40197    0.00132     0.40329
      H   25    0.10187      0.00000     0.39692    0.00120     0.39813
      H   26    0.10058      0.00000     0.39825    0.00117     0.39942
      H   27    0.10079      0.00000     0.39804    0.00117     0.39921
      H   28    0.10188      0.00000     0.39695    0.00117     0.39812
 =======================================================================
   * Total *   -0.00000     10.99556    30.86155    0.14289    42.00000

 Normal termination of Gaussian 16 at Tue Dec  8 21:58:59 2020.
