 Gaussian 16, Revision A.03,

 -----------------------------------------------------------
 # opt freq B3LYP/6-31G(d) empiricaldispersion=gd3bj scf=xqc
 -----------------------------------------------------------

 -------------------------------
 CID_116025944_JID_4016_neutraal
 -------------------------------
 Symbolic Z-matrix:
 Charge =  0 Multiplicity = 1

 SCF Done:  E(RB3LYP) =  -650.600526390     A.U. after   15 cycles
 SCF Done:  E(RB3LYP) =  -650.623087617     A.U. after   13 cycles
 SCF Done:  E(RB3LYP) =  -650.624592233     A.U. after   13 cycles
 SCF Done:  E(RB3LYP) =  -650.622093799     A.U. after   15 cycles
 SCF Done:  E(RB3LYP) =  -650.625028967     A.U. after   12 cycles
 SCF Done:  E(RB3LYP) =  -650.625394076     A.U. after   12 cycles
 SCF Done:  E(RB3LYP) =  -650.624456016     A.U. after   14 cycles
 SCF Done:  E(RB3LYP) =  -650.625984437     A.U. after   12 cycles
 SCF Done:  E(RB3LYP) =  -650.626309490     A.U. after   13 cycles
 SCF Done:  E(RB3LYP) =  -650.626500442     A.U. after   12 cycles
 SCF Done:  E(RB3LYP) =  -650.626606419     A.U. after   10 cycles
 SCF Done:  E(RB3LYP) =  -650.626606415     A.U. after    6 cycles
 SCF Done:  E(RB3LYP) =  -650.626606429     A.U. after    6 cycles
 SCF Done:  E(RB3LYP) =  -650.626606448     A.U. after    6 cycles
 Optimization completed.
    -- Stationary point found.
 Normal termination of Gaussian 16 at Thu Dec 10 09:27:16 2020.

 --------------------------------------------------------------------
 #N Geom=AllCheck Guess=TCheck SCRF=Check GenChk RB3LYP/6-31G(d) Freq
 --------------------------------------------------------------------

 Structure from the checkpoint file:  "JID_4016.chk"
 -------------------------------
 CID_116025944_JID_4016_neutraal
 -------------------------------
 Charge =  0 Multiplicity = 1

 SCF Done:  E(RB3LYP) =  -650.626606448     A.U. after    1 cycles

  Exact polarizability: 151.469   9.753 108.331  -0.751   5.238  97.186
 Approx polarizability: 187.416  20.178 155.587  -3.205   7.387 154.671

                      1                      2                      3
                      A                      A                      A
 Frequencies --     23.4789                24.0304                32.7526
 Red. masses --      1.1988                 2.5593                 4.8363
 Frc consts  --      0.0004                 0.0009                 0.0031
 IR Inten    --      0.1080                 0.2941                 0.9945

                      4                      5                      6
                      A                      A                      A
 Frequencies --     40.2894                69.9505                96.9842
 Red. masses --      4.4356                 6.6671                 2.7162
 Frc consts  --      0.0042                 0.0192                 0.0151
 IR Inten    --      0.3213                 4.7254                 4.9307

                      7                      8                      9
                      A                      A                      A
 Frequencies --    142.4210               159.8950               177.2760
 Red. masses --      2.4934                 5.0110                 3.1659
 Frc consts  --      0.0298                 0.0755                 0.0586
 IR Inten    --      5.1441                 2.5972                 8.7943

                     10                     11                     12
                      A                      A                      A
 Frequencies --    220.5749               225.3909               259.9986
 Red. masses --      2.8480                 1.2719                 2.4365
 Frc consts  --      0.0816                 0.0381                 0.0970
 IR Inten    --     16.8053                27.3018                18.4980

                     13                     14                     15
                      A                      A                      A
 Frequencies --    301.2391               311.4703               329.6582
 Red. masses --      3.0079                 3.7779                 4.0855
 Frc consts  --      0.1608                 0.2159                 0.2616
 IR Inten    --      4.9066                 2.5225                 5.4174

                     16                     17                     18
                      A                      A                      A
 Frequencies --    367.9451               406.0517               441.1996
 Red. masses --      3.6772                 2.6032                 4.5442
 Frc consts  --      0.2933                 0.2529                 0.5212
 IR Inten    --      0.2304                 2.4791                 1.2916

                     19                     20                     21
                      A                      A                      A
 Frequencies --    467.7123               514.4971               553.4184
 Red. masses --      6.4671                 2.7243                 1.9278
 Frc consts  --      0.8335                 0.4249                 0.3479
 IR Inten    --      4.9442                24.7858                30.7684

                     22                     23                     24
                      A                      A                      A
 Frequencies --    606.2857               664.7311               710.1954
 Red. masses --      2.8146                 2.3814                 3.5077
 Frc consts  --      0.6096                 0.6200                 1.0424
 IR Inten    --     55.8563                12.3619                37.9728

                     25                     26                     27
                      A                      A                      A
 Frequencies --    758.0189               767.2586               819.1865
 Red. masses --      6.3616                 4.4695                 2.0715
 Frc consts  --      2.1537                 1.5502                 0.8190
 IR Inten    --     11.3461                 7.2619                 3.4193

                     28                     29                     30
                      A                      A                      A
 Frequencies --    831.4124               873.8074               897.2149
 Red. masses --      3.1947                 1.3644                 1.9186
 Frc consts  --      1.3011                 0.6138                 0.9100
 IR Inten    --      2.3905               113.3059                41.2925

                     31                     32                     33
                      A                      A                      A
 Frequencies --    947.7455               951.7962               985.5076
 Red. masses --      2.9518                 2.1763                 2.1986
 Frc consts  --      1.5622                 1.1616                 1.2581
 IR Inten    --     18.0185                36.0363                 1.1352

                     34                     35                     36
                      A                      A                      A
 Frequencies --   1003.8236              1023.8330              1068.9649
 Red. masses --      1.9643                 1.7068                 1.5985
 Frc consts  --      1.1662                 1.0541                 1.0762
 IR Inten    --     16.1246                 4.9423                38.5117

                     37                     38                     39
                      A                      A                      A
 Frequencies --   1070.2546              1073.4341              1081.8949
 Red. masses --      1.4065                 1.5589                 3.1564
 Frc consts  --      0.9492                 1.0583                 2.1768
 IR Inten    --      2.6011                15.4663                 1.3507

                     40                     41                     42
                      A                      A                      A
 Frequencies --   1096.3953              1112.9324              1139.2673
 Red. masses --      4.8851                 3.2522                 1.9300
 Frc consts  --      3.4599                 2.3734                 1.4759
 IR Inten    --    105.9995                11.1638                 6.0269

                     43                     44                     45
                      A                      A                      A
 Frequencies --   1169.7690              1173.3340              1232.1007
 Red. masses --      1.2238                 3.7581                 1.4668
 Frc consts  --      0.9867                 3.0484                 1.3120
 IR Inten    --      0.4620                12.5328                10.9960

                     46                     47                     48
                      A                      A                      A
 Frequencies --   1238.1407              1279.4524              1312.9502
 Red. masses --      1.4611                 1.4699                 1.2693
 Frc consts  --      1.3197                 1.4177                 1.2892
 IR Inten    --      6.5004               106.3878                 0.6562

                     49                     50                     51
                      A                      A                      A
 Frequencies --   1326.7549              1329.3741              1349.9638
 Red. masses --      1.2346                 1.3964                 1.4430
 Frc consts  --      1.2804                 1.4540                 1.5494
 IR Inten    --     18.5736                53.3095                 0.6359

                     52                     53                     54
                      A                      A                      A
 Frequencies --   1352.1587              1373.4150              1395.0261
 Red. masses --      1.3116                 1.3378                 1.3055
 Frc consts  --      1.4128                 1.4867                 1.4969
 IR Inten    --     23.8455                 0.4552                15.1785

                     55                     56                     57
                      A                      A                      A
 Frequencies --   1397.3464              1435.9214              1444.6635
 Red. masses --      1.3260                 1.7471                 1.2417
 Frc consts  --      1.5255                 2.1224                 1.5268
 IR Inten    --     20.4904                34.0637                 3.8817

                     58                     59                     60
                      A                      A                      A
 Frequencies --   1455.5352              1489.5979              1507.5192
 Red. masses --      1.4708                 1.7940                 1.0402
 Frc consts  --      1.8359                 2.3454                 1.3928
 IR Inten    --      1.5984                40.1460                 6.6463

                     61                     62                     63
                      A                      A                      A
 Frequencies --   1508.9230              1520.9089              1521.2065
 Red. masses --      1.0404                 1.1149                 1.0959
 Frc consts  --      1.3957                 1.5195                 1.4941
 IR Inten    --      6.6199                25.6893                 6.4565

                     64                     65                     66
                      A                      A                      A
 Frequencies --   1536.2487              1548.1056              1701.7113
 Red. masses --      1.0904                 1.0926                 1.0870
 Frc consts  --      1.5162                 1.5428                 1.8546
 IR Inten    --      4.9013                 6.8764                32.6595

                     67                     68                     69
                      A                      A                      A
 Frequencies --   1779.6210              2373.8478              3001.8089
 Red. masses --      8.5250                11.8013                 1.0703
 Frc consts  --     15.9075                39.1820                 5.6822
 IR Inten    --    308.6465                 9.0512                35.9439

                     70                     71                     72
                      A                      A                      A
 Frequencies --   3041.2002              3059.7325              3066.1484
 Red. masses --      1.0346                 1.0851                 1.0671
 Frc consts  --      5.6376                 5.9853                 5.9107
 IR Inten    --     31.2849                24.0304                27.6167

                     73                     74                     75
                      A                      A                      A
 Frequencies --   3072.4085              3090.1848              3097.9715
 Red. masses --      1.0629                 1.0890                 1.0642
 Frc consts  --      5.9117                 6.1270                 6.0178
 IR Inten    --     19.5823                19.0126                36.2930

                     76                     77                     78
                      A                      A                      A
 Frequencies --   3103.0573              3103.3207              3106.8294
 Red. masses --      1.1017                 1.1015                 1.0887
 Frc consts  --      6.2501                 6.2499                 6.1914
 IR Inten    --     11.9002                10.9427                38.0000

                     79                     80                     81
                      A                      A                      A
 Frequencies --   3115.1525              3122.6360              3146.8907
 Red. masses --      1.1040                 1.0968                 1.1046
 Frc consts  --      6.3122                 6.3010                 6.4448
 IR Inten    --     25.5748                 4.4493                15.1528

                     82                     83                     84
                      A                      A                      A
 Frequencies --   3474.1553              3555.9448              3597.1567
 Red. masses --      1.0503                 1.0919                 1.0763
 Frc consts  --      7.4690                 8.1347                 8.2051
 IR Inten    --      1.8547                 0.2801                21.8081

 - Thermochemistry -
 -------------------
 Temperature   298.150 Kelvin.  Pressure   1.00000 Atm.
 Atom     1 has atomic number  6 and mass  12.00000

 Molecular mass:   196.12118 amu.
 Principal axes and moments of inertia in atomic units:
                           1         2         3
     Eigenvalues --  1363.964695444.901445648.41435
           X            0.99997   0.00792   0.00103
           Y           -0.00798   0.98859   0.15039
           Z            0.00017  -0.15040   0.98863
 This molecule is an asymmetric top.
 Rotational symmetry number  1.
 Warning -- assumption of classical behavior for rotation
           may cause significant error
 Rotational temperatures (Kelvin)      0.06350     0.01591     0.01533
 Rotational constants (GHZ):           1.32316     0.33146     0.31951
 Zero-point vibrational energy     676837.5 (Joules/Mol)
                                  161.76804 (Kcal/Mol)
 Warning -- explicit consideration of  22 degrees of freedom as
           vibrations may cause significant error
 Vibrational temperatures:     33.78    34.57    47.12    57.97   100.64
          (Kelvin)            139.54   204.91   230.05   255.06   317.36
                              324.29   374.08   433.42   448.14   474.30
                              529.39   584.22   634.79   672.93   740.25
                              796.25   872.31   956.40  1021.81  1090.62
                             1103.91  1178.63  1196.22  1257.21  1290.89
                             1363.59  1369.42  1417.93  1444.28  1473.07
                             1538.00  1539.86  1544.43  1556.61  1577.47
                             1601.26  1639.15  1683.04  1688.17  1772.72
                             1781.41  1840.85  1889.04  1908.90  1912.67
                             1942.30  1945.45  1976.04  2007.13  2010.47
                             2065.97  2078.55  2094.19  2143.20  2168.98
                             2171.00  2188.25  2188.68  2210.32  2227.38
                             2448.38  2560.48  3415.44  4318.93  4375.61
                             4402.27  4411.50  4420.51  4446.09  4457.29
                             4464.61  4464.99  4470.03  4482.01  4492.78
                             4527.67  4998.53  5116.21  5175.51

 Zero-point correction=                           0.257794 (Hartree/Particle)
 Thermal correction to Energy=                    0.273263
 Thermal correction to Enthalpy=                  0.274208
 Thermal correction to Gibbs Free Energy=         0.212121
 Sum of electronic and zero-point Energies=           -650.368813
 Sum of electronic and thermal Energies=              -650.353343
 Sum of electronic and thermal Enthalpies=            -650.352399
 Sum of electronic and thermal Free Energies=         -650.414485

                     E (Thermal)             CV                S
                      KCal/Mol        Cal/Mol-Kelvin    Cal/Mol-Kelvin
 Total                  171.475             55.048            130.672
 Electronic               0.000              0.000              0.000
 Translational            0.889              2.981             41.726
 Rotational               0.889              2.981             32.106
 Vibrational            169.698             49.086             56.840
 Vibration     1          0.593              1.985              6.316
 Vibration     2          0.593              1.985              6.270
 Vibration     3          0.594              1.983              5.655
 Vibration     4          0.594              1.981              5.245
 Vibration     5          0.598              1.968              4.155
 Vibration     6          0.603              1.951              3.514
 Vibration     7          0.616              1.911              2.771
 Vibration     8          0.622              1.891              2.551
 Vibration     9          0.628              1.870              2.357
 Vibration    10          0.647              1.810              1.954
 Vibration    11          0.650              1.802              1.915
 Vibration    12          0.668              1.746              1.662
 Vibration    13          0.693              1.671              1.410
 Vibration    14          0.700              1.652              1.355
 Vibration    15          0.712              1.616              1.262
 Vibration    16          0.741              1.538              1.088
 Vibration    17          0.771              1.457              0.941
 Vibration    18          0.801              1.380              0.823
 Vibration    19          0.825              1.322              0.744
 Vibration    20          0.870              1.218              0.623
 Vibration    21          0.909              1.132              0.537
 Vibration    22          0.965              1.018              0.439

 Optimization completed.
    -- Stationary point found.
 Normal termination of Gaussian 16 at Thu Dec 10 09:34:55 2020.

 ----------------------------------------------------------------------
 # B3LYP/6-311++G(d,p) empiricaldispersion=gd3bj scf=xqc pop=npa geom=c
 heck
 ----------------------------------------------------------------------

 ---------------------------------------
 CID_116025944_JID_4016_Energie_neutraal
 ---------------------------------------
 Structure from the checkpoint file:  "JID_4016.chk"
 Charge =  0 Multiplicity = 1

 SCF Done:  E(RB3LYP) =  -650.825616192     A.U. after   15 cycles
 Normal termination of Gaussian 16 at Thu Dec 10 09:37:56 2020.

 ----------------------------------------------------------------------
 # B3LYP/6-311++G(d,p) empiricaldispersion=gd3bj scf=xqc pop=npa geom=c
 heck
 ----------------------------------------------------------------------

 -------------------------------------
 CID_116025944_JID_4016_Energie_kation
 -------------------------------------
 Structure from the checkpoint file:  "JID_4016.chk"
 Charge =  1 Multiplicity = 2

 SCF Done:  E(UB3LYP) =  -650.517511052     A.U. after   33 cycles
 SCF Done:  E(UB3LYP) =  -650.517511052     a.u. after    2 cycles
 Normal termination of Gaussian 16 at Thu Dec 10 09:54:33 2020.
 Gaussian 16:  ES64L-G16RevA.03 25-Dec-2016

 ----------------------------------------------------------------------
 # B3LYP/6-311++G(d,p) empiricaldispersion=gd3bj scf=xqc pop=npa geom=c
 heck
 ----------------------------------------------------------------------

 ------------------------------------
 CID_116025944_JID_4016_Energie_anion
 ------------------------------------
 Structure from the checkpoint file:  "JID_4016.chk"
 Charge = -1 Multiplicity = 2

                         Standard orientation:
 ---------------------------------------------------------------------
 Center     Atomic      Atomic             Coordinates (Angstroms)
 Number     Number       Type             X           Y           Z
 ---------------------------------------------------------------------
      1          6           0        5.145947    1.098842   -0.018584
      2          6           0        3.979210    0.291739   -0.362832
      3          6           0        3.018624   -0.384087   -0.650195
      4          6           0        1.826440   -1.181595   -0.967127
      5          7           0        1.063135   -1.596846    0.209819
      6          6           0        0.208814   -0.817864    0.937152
      7          8           0       -0.265033   -1.213185    1.996966
      8          6           0       -0.132233    0.558937    0.327415
      9          6           0       -1.130483    1.352562    1.188367
     10          6           0       -2.236551    1.744098    0.192033
     11          6           0       -2.145161    0.642492   -0.869496
     12          8           0       -0.734425    0.382079   -0.969313
     13          6           0       -2.904206   -0.641818   -0.520292
     14          7           0       -4.351635   -0.408223   -0.597501
     15          1           0        5.110692    2.079548   -0.507779
     16          1           0        6.075870    0.605664   -0.325877
     17          1           0        5.201835    1.268573    1.063345
     18          1           0        1.155080   -0.625370   -1.626700
     19          1           0        2.112109   -2.091405   -1.507291
     20          1           0        1.355315   -2.438779    0.690493
     21          1           0        0.805499    1.104233    0.167795
     22          1           0       -1.503804    0.706488    1.985613
     23          1           0       -0.660123    2.222257    1.654009
     24          1           0       -3.224393    1.813330    0.657794
     25          1           0       -2.020443    2.713221   -0.269507
     26          1           0       -2.475565    0.982565   -1.855021
     27          1           0       -2.636472   -1.392005   -1.272035
     28          1           0       -2.556105   -1.024706    0.452917
     29          1           0       -4.841125   -1.300668   -0.592415
     30          1           0       -4.665602    0.081544    0.238564
 ---------------------------------------------------------------------

 SCF Done:  E(UB3LYP) =  -650.813989789     A.U. after   33 cycles
 SCF Done:  E(UB3LYP) =  -650.813989789     a.u. after    1 cycles

 The electronic state is 2-A.
 Alpha  occ. eigenvalues --  -19.03673 -19.00129 -14.24815 -14.20545 -10.18127
 Alpha  occ. eigenvalues --  -10.13842 -10.13686 -10.12733 -10.09704 -10.09246
 Alpha  occ. eigenvalues --  -10.08085 -10.07719 -10.07653 -10.06812  -0.96030
 Alpha  occ. eigenvalues --   -0.94242  -0.83689  -0.79424  -0.69459  -0.69202
 Alpha  occ. eigenvalues --   -0.67090  -0.65046  -0.59064  -0.58214  -0.53423
 Alpha  occ. eigenvalues --   -0.48861  -0.47138  -0.43339  -0.42771  -0.40820
 Alpha  occ. eigenvalues --   -0.39978  -0.39777  -0.37019  -0.36084  -0.35467
 Alpha  occ. eigenvalues --   -0.33798  -0.33379  -0.33151  -0.32646  -0.32527
 Alpha  occ. eigenvalues --   -0.31722  -0.29548  -0.29102  -0.26947  -0.24986
 Alpha  occ. eigenvalues --   -0.24154  -0.23245  -0.20267  -0.18370  -0.16655
 Alpha  occ. eigenvalues --   -0.16484  -0.15988  -0.15054   0.03990
 Alpha virt. eigenvalues --    0.05362   0.06457   0.07014   0.08237   0.08596
 Alpha virt. eigenvalues --    0.08939   0.09465   0.09759   0.10115   0.10417
 Alpha virt. eigenvalues --    0.10878   0.11851   0.12269   0.13053   0.13372

  Beta  occ. eigenvalues --  -19.03671 -19.00122 -14.24805 -14.20507 -10.18125
  Beta  occ. eigenvalues --  -10.13825 -10.13677 -10.12730 -10.09691 -10.09183
  Beta  occ. eigenvalues --  -10.08066 -10.07710 -10.07649 -10.06808  -0.96020
  Beta  occ. eigenvalues --   -0.94233  -0.83670  -0.79365  -0.69434  -0.69158
  Beta  occ. eigenvalues --   -0.67060  -0.64993  -0.59008  -0.58155  -0.53386
  Beta  occ. eigenvalues --   -0.48825  -0.47111  -0.43313  -0.42740  -0.40784
  Beta  occ. eigenvalues --   -0.39949  -0.39736  -0.36978  -0.36023  -0.35426
  Beta  occ. eigenvalues --   -0.33754  -0.33316  -0.33118  -0.32608  -0.32506
  Beta  occ. eigenvalues --   -0.31698  -0.29519  -0.29076  -0.26920  -0.24967
  Beta  occ. eigenvalues --   -0.24133  -0.23231  -0.20255  -0.18348  -0.16633
  Beta  occ. eigenvalues --   -0.16462  -0.15959  -0.15036
  Beta virt. eigenvalues --    0.06019   0.06456   0.07149   0.07560   0.08546
  Beta virt. eigenvalues --    0.09037   0.09098   0.09793   0.10276   0.10539
  Beta virt. eigenvalues --    0.10800   0.11009   0.12002   0.12507   0.13279

 Mulliken charges and spin densities:
               1          2
     1  C    2.383399  -2.842456
     2  C   -1.299637   1.152906
     3  C    0.814689  -0.026923
     4  C   -1.169978   0.143918
     5  N   -0.163976   0.059823
     6  C   -0.187741  -0.027180
     7  O   -0.311140   0.007317
     8  C   -0.015233   0.286291
     9  C    0.336763  -0.991514
    10  C   -0.173964  -0.192074
    11  C   -0.285540   0.234168
    12  O   -0.089552   0.008128
    13  C    0.650664  -1.122253
    14  N   -0.472823   0.134776
    15  H   -0.369233   0.529148
    16  H   -0.438950   0.601854
    17  H   -0.296732   0.462276
    18  H    0.236576  -0.001368
    19  H   -0.466169   0.657394
    20  H    0.092859   0.226311
    21  H    0.295711  -0.034493
    22  H    0.259496  -0.045135
    23  H   -0.212282   0.360671
    24  H   -0.074180   0.206562
    25  H   -0.029028   0.190332
    26  H    0.054991   0.144919
    27  H    0.011152   0.167903
    28  H    0.018331   0.149503
    29  H   -0.080491   0.328762
    30  H   -0.017985   0.230433
 Sum of Mulliken charges =  -1.00000   1.00000

 Dipole moment (field-independent basis, Debye):
    X=             -3.7241    Y=             -0.4595    Z=             -0.3322  Tot=              3.7670
 Quadrupole moment (field-independent basis, Debye-Ang):
   XX=           -193.8242   YY=           -120.4657   ZZ=           -118.4386
   XY=             -8.4040   XZ=             -1.0352   YZ=              0.9740

 Summary of Natural Population Analysis:

                                       Natural Population
                Natural  -----------------------------------------------
    Atom  No    Charge         Core      Valence    Rydberg      Total
 -----------------------------------------------------------------------
      C    1   -0.32928      0.99964     2.31937    0.01027     3.32928
      C    2    0.04758      0.99923     1.94497    0.00821     2.95242
      C    3   -0.05282      0.99928     2.04289    0.01064     3.05282
      C    4   -0.12879      0.99955     2.11745    0.01179     3.12879
      N    5   -0.30909      0.99967     2.79892    0.01051     3.80909
      C    6    0.34013      0.99965     1.63806    0.02217     2.65987
      O    7   -0.32210      0.99988     3.31642    0.00581     4.32210
      C    8    0.02074      0.99953     1.96583    0.01390     2.97926
      C    9   -0.20921      0.99963     2.20103    0.00855     3.20921
      C   10   -0.20167      0.99961     2.19416    0.00789     3.20167
      C   11    0.06601      0.99955     1.91990    0.01454     2.93399
      O   12   -0.30736      0.99989     3.29901    0.00846     4.30736
      C   13   -0.10648      0.99960     2.09460    0.01229     3.10648
      N   14   -0.42376      0.99977     2.91371    0.01027     3.92376
      H   15    0.11242      0.00000     0.38519    0.00239     0.38758
      H   16    0.11254      0.00000     0.38490    0.00256     0.38746
      H   17    0.11383      0.00000     0.38369    0.00247     0.38617
      H   18    0.12355      0.00000     0.37423    0.00223     0.37645
      H   19    0.11026      0.00000     0.38794    0.00181     0.38974
      H   20    0.19420      0.00000     0.30332    0.00249     0.30580
      H   21    0.10444      0.00000     0.39345    0.00211     0.39556
      H   22    0.11475      0.00000     0.38380    0.00145     0.38525
      H   23    0.10533      0.00000     0.39378    0.00090     0.39467
      H   24    0.10278      0.00000     0.39621    0.00101     0.39722
      H   25    0.10077      0.00000     0.39802    0.00120     0.39923
      H   26    0.09451      0.00000     0.40405    0.00144     0.40549
      H   27    0.09497      0.00000     0.40381    0.00122     0.40503
      H   28    0.08777      0.00000     0.41013    0.00210     0.41223
      H   29    0.17728      0.00000     0.32070    0.00202     0.32272
      H   30    0.17312      0.00000     0.32482    0.00205     0.32688
 =======================================================================
   * Total *    0.00639     13.99448    38.81436    0.18477    52.99361

 Normal termination of Gaussian 16 at Thu Dec 10 10:04:37 2020.
