 Gaussian 16, Revision A.03,

 -----------------------------------------------------------
 # opt freq B3LYP/6-31G(d) empiricaldispersion=gd3bj scf=xqc
 -----------------------------------------------------------

 -----------------------------
 CID_88026473_JID_186_neutraal
 -----------------------------
 Symbolic Z-matrix:
 Charge =  0 Multiplicity = 1

 SCF Done:  E(RB3LYP) =  -505.513927358     A.U. after   15 cycles
 SCF Done:  E(RB3LYP) =  -505.517774572     A.U. after   16 cycles
 SCF Done:  E(RB3LYP) =  -505.518727133     A.U. after   15 cycles
 SCF Done:  E(RB3LYP) =  -505.519744958     A.U. after   14 cycles
 SCF Done:  E(RB3LYP) =  -505.520263723     A.U. after   17 cycles
 SCF Done:  E(RB3LYP) =  -505.520455747     A.U. after   15 cycles
 SCF Done:  E(RB3LYP) =  -505.520659498     A.U. after   14 cycles
 SCF Done:  E(RB3LYP) =  -505.520699329     A.U. after   14 cycles
 SCF Done:  E(RB3LYP) =  -505.520708022     A.U. after   13 cycles
 SCF Done:  E(RB3LYP) =  -505.520718056     A.U. after   10 cycles
 SCF Done:  E(RB3LYP) =  -505.520722634     A.U. after   10 cycles
 SCF Done:  E(RB3LYP) =  -505.520722850     A.U. after    8 cycles
 SCF Done:  E(RB3LYP) =  -505.520722905     A.U. after    8 cycles
 SCF Done:  E(RB3LYP) =  -505.520722939     A.U. after    7 cycles
 SCF Done:  E(RB3LYP) =  -505.520722973     A.U. after    7 cycles
 SCF Done:  E(RB3LYP) =  -505.520722993     A.U. after    7 cycles
 Optimization completed.
    -- Stationary point found.
 Normal termination of Gaussian 16 at Tue Dec  8 10:19:58 2020.

 --------------------------------------------------------------------
 #N Geom=AllCheck Guess=TCheck SCRF=Check GenChk RB3LYP/6-31G(d) Freq
 --------------------------------------------------------------------

 Structure from the checkpoint file:  "JID_186.chk"
 -----------------------------
 CID_88026473_JID_186_neutraal
 -----------------------------
 Charge =  0 Multiplicity = 1

 SCF Done:  E(RB3LYP) =  -505.520722993     A.U. after    1 cycles

  Exact polarizability: 116.333   4.948  82.454  -3.066   5.947  58.837
 Approx polarizability: 161.079  14.741 152.174  -2.567  26.066  94.624

                      1                      2                      3
                      A                      A                      A
 Frequencies --     26.6260                45.3698                62.7186
 Red. masses --      8.5237                 4.9549                 4.0201
 Frc consts  --      0.0036                 0.0060                 0.0093
 IR Inten    --      1.2594                 1.0023                 0.9090

                      4                      5                      6
                      A                      A                      A
 Frequencies --    119.2355               148.1536               172.4759
 Red. masses --      1.0530                 3.2821                 4.1905
 Frc consts  --      0.0088                 0.0424                 0.0734
 IR Inten    --      0.0709                 0.4203                 6.2490

                      7                      8                      9
                      A                      A                      A
 Frequencies --    184.9386               214.9101               291.5250
 Red. masses --      5.2535                 4.3254                 4.1589
 Frc consts  --      0.1059                 0.1177                 0.2082
 IR Inten    --      4.9835                 2.9231                 3.7805

                     10                     11                     12
                      A                      A                      A
 Frequencies --    333.6075               413.2017               426.2386
 Red. masses --      5.3376                 2.8386                 5.4395
 Frc consts  --      0.3500                 0.2855                 0.5823
 IR Inten    --      8.1098                12.7847                19.7178

                     13                     14                     15
                      A                      A                      A
 Frequencies --    507.2389               551.9588               632.8099
 Red. masses --      8.1841                10.2374                 5.0953
 Frc consts  --      1.2406                 1.8376                 1.2022
 IR Inten    --     15.8026                20.8963                 5.3948

                     16                     17                     18
                      A                      A                      A
 Frequencies --    650.2941               763.9780               805.9335
 Red. masses --      1.2127                 5.8482                 4.2975
 Frc consts  --      0.3022                 2.0111                 1.6446
 IR Inten    --    118.3230                 5.5269                 6.1887

                     19                     20                     21
                      A                      A                      A
 Frequencies --    949.0964              1020.5934              1040.6250
 Red. masses --      2.0950                 1.6811                 1.5658
 Frc consts  --      1.1119                 1.0317                 0.9990
 IR Inten    --      7.4414                36.0618                 0.4211

                     22                     23                     24
                      A                      A                      A
 Frequencies --   1058.8025              1068.6266              1131.9230
 Red. masses --      1.3828                 2.8266                 4.6989
 Frc consts  --      0.9133                 1.9018                 3.5471
 IR Inten    --      0.6449                 9.4308                69.2835

                     25                     26                     27
                      A                      A                      A
 Frequencies --   1207.1497              1247.5658              1273.8628
 Red. masses --      4.6340                 1.4353                 3.1555
 Frc consts  --      3.9786                 1.3162                 3.0169
 IR Inten    --    456.7775                22.0492                 1.6771

                     28                     29                     30
                      A                      A                      A
 Frequencies --   1363.2752              1387.6085              1439.6778
 Red. masses --      1.3426                 1.2255                 3.1057
 Frc consts  --      1.4701                 1.3903                 3.7927
 IR Inten    --     34.6823                28.4070                 2.1315

                     31                     32                     33
                      A                      A                      A
 Frequencies --   1441.4713              1462.1768              1491.2643
 Red. masses --      1.2406                 1.5735                 1.0930
 Frc consts  --      1.5188                 1.9821                 1.4322
 IR Inten    --     12.0724                77.1080                 6.5122

                     34                     35                     36
                      A                      A                      A
 Frequencies --   1503.4796              1538.5153              1637.4936
 Red. masses --      1.0465                 1.1142                 5.9099
 Frc consts  --      1.3938                 1.5539                 9.3366
 IR Inten    --      7.9148                10.9325                48.1363

                     37                     38                     39
                      A                      A                      A
 Frequencies --   1811.3079              2185.5944              3034.4015
 Red. masses --      7.0118                13.5703                 1.0374
 Frc consts  --     13.5538                38.1927                 5.6281
 IR Inten    --    383.2125               481.9966                34.3593

                     40                     41                     42
                      A                      A                      A
 Frequencies --   3045.8901              3082.5967              3098.3201
 Red. masses --      1.0568                 1.1027                 1.0907
 Frc consts  --      5.7765                 6.1738                 6.1689
 IR Inten    --     29.5502                19.1204                13.0952

                     43                     44                     45
                      A                      A                      A
 Frequencies --   3102.4391              3138.2690              3621.9149
 Red. masses --      1.1077                 1.0993                 1.0786
 Frc consts  --      6.2816                 6.3790                 8.3364
 IR Inten    --     14.0510                11.8756                47.8407

 - Thermochemistry -
 -------------------
 Temperature   298.150 Kelvin.  Pressure   1.00000 Atm.
 Atom     1 has atomic number  6 and mass  12.00000

 Molecular mass:   141.06506 amu.
 Principal axes and moments of inertia in atomic units:
                           1         2         3
     Eigenvalues --   687.750633185.669633349.41455
           X            0.99971  -0.02389   0.00160
           Y            0.02394   0.99660  -0.07887
           Z            0.00029   0.07889   0.99688
 This molecule is an asymmetric top.
 Rotational symmetry number  1.
 Warning -- assumption of classical behavior for rotation
           may cause significant error
 Rotational temperatures (Kelvin)      0.12594     0.02719     0.02586
 Rotational constants (GHZ):           2.62412     0.56652     0.53882
 Zero-point vibrational energy     333370.3 (Joules/Mol)
                                   79.67740 (Kcal/Mol)
 Warning -- explicit consideration of  14 degrees of freedom as
           vibrations may cause significant error
 Vibrational temperatures:     38.31    65.28    90.24   171.55   213.16
          (Kelvin)            248.15   266.09   309.21   419.44   479.99
                              594.51   613.26   729.80   794.15   910.47
                              935.63  1099.19  1159.56  1365.54  1468.41
                             1497.23  1523.38  1537.52  1628.58  1736.82
                             1794.97  1832.80  1961.45  1996.46  2071.38
                             2073.96  2103.75  2145.60  2163.17  2213.58
                             2355.99  2606.07  3144.58  4365.83  4382.36
                             4435.17  4457.79  4463.72  4515.27  5211.13

 Zero-point correction=                           0.126974 (Hartree/Particle)
 Thermal correction to Energy=                    0.137945
 Thermal correction to Enthalpy=                  0.138889
 Thermal correction to Gibbs Free Energy=         0.088214
 Sum of electronic and zero-point Energies=           -505.393749
 Sum of electronic and thermal Energies=              -505.382778
 Sum of electronic and thermal Enthalpies=            -505.381834
 Sum of electronic and thermal Free Energies=         -505.432509

                     E (Thermal)             CV                S
                      KCal/Mol        Cal/Mol-Kelvin    Cal/Mol-Kelvin
 Total                   86.562             36.392            106.655
 Electronic               0.000              0.000              0.000
 Translational            0.889              2.981             40.744
 Rotational               0.889              2.981             30.374
 Vibrational             84.785             30.430             35.537
 Vibration     1          0.593              1.984              6.066
 Vibration     2          0.595              1.979              5.010
 Vibration     3          0.597              1.972              4.370
 Vibration     4          0.609              1.933              3.113
 Vibration     5          0.618              1.905              2.696
 Vibration     6          0.626              1.876              2.408
 Vibration     7          0.631              1.860              2.278
 Vibration     8          0.645              1.818              2.002
 Vibration     9          0.687              1.690              1.465
 Vibration    10          0.715              1.608              1.243
 Vibration    11          0.777              1.442              0.915
 Vibration    12          0.788              1.413              0.871
 Vibration    13          0.862              1.234              0.640
 Vibration    14          0.907              1.135              0.540

 Optimization completed.
    -- Stationary point found.
 Normal termination of Gaussian 16 at Tue Dec  8 10:22:07 2020.

 ----------------------------------------------------------------------
 # B3LYP/6-311++G(d,p) empiricaldispersion=gd3bj scf=xqc pop=npa geom=c
 heck
 ----------------------------------------------------------------------

 -------------------------------------
 CID_88026473_JID_186_Energie_neutraal
 -------------------------------------
 Structure from the checkpoint file:  "JID_186.chk"
 Charge =  0 Multiplicity = 1

 SCF Done:  E(RB3LYP) =  -505.671262374     A.U. after   15 cycles
 Normal termination of Gaussian 16 at Tue Dec  8 10:23:02 2020.

 ----------------------------------------------------------------------
 # B3LYP/6-311++G(d,p) empiricaldispersion=gd3bj scf=xqc pop=npa geom=c
 heck
 ----------------------------------------------------------------------

 -----------------------------------
 CID_88026473_JID_186_Energie_kation
 -----------------------------------
 Structure from the checkpoint file:  "JID_186.chk"
 Charge =  1 Multiplicity = 2

 SCF Done:  E(UB3LYP) =  -505.371646649     A.U. after   23 cycles
 Normal termination of Gaussian 16 at Tue Dec  8 10:24:49 2020.
 Gaussian 16:  ES64L-G16RevA.03 25-Dec-2016

 ----------------------------------------------------------------------
 # B3LYP/6-311++G(d,p) empiricaldispersion=gd3bj scf=xqc pop=npa geom=c
 heck
 ----------------------------------------------------------------------

 ----------------------------------
 CID_88026473_JID_186_Energie_anion
 ----------------------------------
 Structure from the checkpoint file:  "JID_186.chk"
 Charge = -1 Multiplicity = 2

                         Standard orientation:
 ---------------------------------------------------------------------
 Center     Atomic      Atomic             Coordinates (Angstroms)
 Number     Number       Type             X           Y           Z
 ---------------------------------------------------------------------
      1          6           0       -2.385657    1.707696   -0.438910
      2          6           0       -2.034780    0.358340    0.129201
      3          7           0       -2.487136   -0.714554   -0.440943
      4          7           0       -2.911735   -1.667586   -0.922682
      5          6           0       -1.005317    0.188326    1.211535
      6          7           0        0.350122    0.333736    0.642686
      7          7           0        1.009966   -0.715258    0.790199
      8          7           0        2.271610   -0.670396    0.248798
      9          6           0        2.891743    0.369888   -0.426484
     10          8           0        4.022877    0.269615   -0.856345
     11          1           0       -3.139366    1.622600   -1.226464
     12          1           0       -1.501440    2.200072   -0.864027
     13          1           0       -2.786450    2.364228    0.344251
     14          1           0       -1.128328    0.994184    1.945430
     15          1           0       -1.104732   -0.777548    1.720156
     16          1           0        2.793529   -1.528610    0.374131
     17          1           0        2.258049    1.261056   -0.521184
 ---------------------------------------------------------------------

 SCF Done:  E(UB3LYP) =  -505.690831614     A.U. after   26 cycles

 The electronic state is 2-A.
 Alpha  occ. eigenvalues --  -18.94943 -14.27417 -14.22099 -14.20895 -14.20707
 Alpha  occ. eigenvalues --  -14.16501 -10.11429 -10.06430 -10.06373 -10.05485
 Alpha  occ. eigenvalues --   -0.93925  -0.91651  -0.88615  -0.76026  -0.71185
 Alpha  occ. eigenvalues --   -0.59587  -0.58439  -0.52077  -0.45508  -0.37249
 Alpha  occ. eigenvalues --   -0.36427  -0.35279  -0.33794  -0.32384  -0.30514
 Alpha  occ. eigenvalues --   -0.29686  -0.28572  -0.28232  -0.27376  -0.27016
 Alpha  occ. eigenvalues --   -0.24876  -0.22405  -0.21711  -0.13968  -0.11689
 Alpha  occ. eigenvalues --   -0.08237  -0.05722   0.04403
 Alpha virt. eigenvalues --    0.08521   0.08787   0.10962   0.11366   0.12242
 Alpha virt. eigenvalues --    0.12599   0.13964   0.14424   0.15379   0.16279
 Alpha virt. eigenvalues --    0.16734   0.17344   0.18542   0.19032   0.19966

  Beta  occ. eigenvalues --  -18.94648 -14.27210 -14.22228 -14.20283 -14.20242
  Beta  occ. eigenvalues --  -14.16073 -10.11230 -10.06470 -10.06379 -10.05446
  Beta  occ. eigenvalues --   -0.93321  -0.91038  -0.87923  -0.75742  -0.70832
  Beta  occ. eigenvalues --   -0.59121  -0.58234  -0.51525  -0.45229  -0.37008
  Beta  occ. eigenvalues --   -0.36073  -0.34478  -0.33481  -0.32051  -0.29636
  Beta  occ. eigenvalues --   -0.28532  -0.28268  -0.27964  -0.26865  -0.26627
  Beta  occ. eigenvalues --   -0.23710  -0.21382  -0.20353  -0.13649  -0.10471
  Beta  occ. eigenvalues --   -0.07675  -0.05406
  Beta virt. eigenvalues --    0.08510   0.10758   0.10876   0.11305   0.11775
  Beta virt. eigenvalues --    0.12289   0.12599   0.14190   0.14377   0.15481
  Beta virt. eigenvalues --    0.16446   0.17178   0.18485   0.18739   0.19118

 Mulliken charges and spin densities:
               1          2
     1  C   -0.317466  -0.126663
     2  C   -0.265466   0.054994
     3  N    0.409406   0.040864
     4  N   -0.365340   0.268381
     5  C   -0.452026  -0.034929
     6  N   -0.262638   0.241161
     7  N   -0.091498   0.241127
     8  N   -0.131787  -0.058250
     9  C   -0.062165   0.170362
    10  O   -0.403468   0.092833
    11  H    0.126275  -0.003363
    12  H    0.087291   0.061152
    13  H    0.050094   0.061184
    14  H    0.147383  -0.008049
    15  H    0.091031   0.014309
    16  H    0.285003   0.000946
    17  H    0.155372  -0.016060
 Sum of Mulliken charges =  -1.00000   1.00000

 Dipole moment (field-independent basis, Debye):
    X=             -2.6140    Y=              1.7387    Z=              1.8567  Tot=              3.6474
 Quadrupole moment (field-independent basis, Debye-Ang):
   XX=           -111.2556   YY=            -70.9721   ZZ=            -68.5562
   XY=            -12.0297   XZ=              2.9464   YZ=             -2.5456

 Summary of Natural Population Analysis:

                                       Natural Population
                Natural  -----------------------------------------------
    Atom  No    Charge         Core      Valence    Rydberg      Total
 -----------------------------------------------------------------------
      C    1   -0.28496      0.99964     2.28041    0.00490     3.28496
      C    2   -0.03764      0.99955     2.02489    0.01320     3.03764
      N    3    0.02919      0.99963     2.45327    0.01791     3.47081
      N    4    0.00123      0.99982     2.48295    0.01600     3.49877
      C    5   -0.10814      0.99960     2.09448    0.01406     3.10814
      N    6   -0.09389      0.99973     2.57336    0.02079     3.59389
      N    7    0.03649      0.99973     2.43874    0.02504     3.46351
      N    8   -0.24790      0.99972     2.73535    0.01283     3.74790
      C    9    0.28760      0.99975     1.69054    0.02210     2.71240
      O   10   -0.29671      0.99988     3.28952    0.00731     4.29671
      H   11    0.09807      0.00000     0.40098    0.00095     0.40193
      H   12    0.09985      0.00000     0.39801    0.00214     0.40015
      H   13    0.09051      0.00000     0.40759    0.00190     0.40949
      H   14    0.08825      0.00000     0.40998    0.00177     0.41175
      H   15    0.09019      0.00000     0.40521    0.00460     0.40981
      H   16    0.18460      0.00000     0.31240    0.00300     0.31540
      H   17    0.06327      0.00000     0.43491    0.00182     0.43673
 =======================================================================
   * Total *    0.00000      9.99706    26.83260    0.17034    37.00000

 Normal termination of Gaussian 16 at Tue Dec  8 10:26:55 2020.
