 Gaussian 16, Revision A.03,

 -----------------------------------------------------------
 # opt freq B3LYP/6-31G(d) empiricaldispersion=gd3bj scf=xqc
 -----------------------------------------------------------

 ------------------------------
 CID_13013791_JID_5846_neutraal
 ------------------------------
 Symbolic Z-matrix:
 Charge =  0 Multiplicity = 1

 SCF Done:  E(RB3LYP) =  -998.145802387     A.U. after   16 cycles
 SCF Done:  E(RB3LYP) =  -998.150568825     A.U. after   13 cycles
 SCF Done:  E(RB3LYP) =  -998.150280025     A.U. after   14 cycles
 SCF Done:  E(RB3LYP) =  -998.151705690     A.U. after   12 cycles
 SCF Done:  E(RB3LYP) =  -998.152088788     A.U. after   12 cycles
 SCF Done:  E(RB3LYP) =  -998.152233864     A.U. after   12 cycles
 SCF Done:  E(RB3LYP) =  -998.152311077     A.U. after   12 cycles
 SCF Done:  E(RB3LYP) =  -998.152326061     A.U. after   10 cycles
 SCF Done:  E(RB3LYP) =  -998.152328896     A.U. after    9 cycles
 SCF Done:  E(RB3LYP) =  -998.152329102     A.U. after    8 cycles
 SCF Done:  E(RB3LYP) =  -998.152329226     A.U. after    7 cycles
 SCF Done:  E(RB3LYP) =  -998.152329258     A.U. after    7 cycles
 SCF Done:  E(RB3LYP) =  -998.152329281     A.U. after    7 cycles
 Optimization completed.
    -- Stationary point found.
 Normal termination of Gaussian 16 at Thu Dec 10 17:17:50 2020.

 --------------------------------------------------------------------
 #N Geom=AllCheck Guess=TCheck SCRF=Check GenChk RB3LYP/6-31G(d) Freq
 --------------------------------------------------------------------

 Structure from the checkpoint file:  "JID_5846.chk"
 ------------------------------
 CID_13013791_JID_5846_neutraal
 ------------------------------
 Charge =  0 Multiplicity = 1

 SCF Done:  E(RB3LYP) =  -998.152329281     A.U. after    1 cycles

  Exact polarizability: 171.912  -4.824 148.815  16.316   0.672 119.074
 Approx polarizability: 211.453 -19.614 264.562  32.085  -9.580 187.625

                      1                      2                      3
                      A                      A                      A
 Frequencies --     25.8516                34.7124                44.3201
 Red. masses --      4.7738                 3.6891                 3.7929
 Frc consts  --      0.0019                 0.0026                 0.0044
 IR Inten    --      0.8975                 0.8785                 0.2969

                      4                      5                      6
                      A                      A                      A
 Frequencies --     57.4913                66.2463                76.4581
 Red. masses --      3.9302                 4.1678                 3.5406
 Frc consts  --      0.0077                 0.0108                 0.0122
 IR Inten    --      0.9961                 0.2358                 1.7123

                      7                      8                      9
                      A                      A                      A
 Frequencies --    111.4832               127.5520               180.4662
 Red. masses --      3.3229                 3.1761                 3.0347
 Frc consts  --      0.0243                 0.0304                 0.0582
 IR Inten    --      0.5584                 4.2782                 2.9759

                     10                     11                     12
                      A                      A                      A
 Frequencies --    195.0690               239.2573               256.0486
 Red. masses --      2.3607                 2.8490                 1.7542
 Frc consts  --      0.0529                 0.0961                 0.0678
 IR Inten    --      0.1495                 0.9127                 0.4522

                     13                     14                     15
                      A                      A                      A
 Frequencies --    307.2144               313.6045               343.5302
 Red. masses --      1.9256                 2.4278                 2.3482
 Frc consts  --      0.1071                 0.1407                 0.1633
 IR Inten    --      0.9228                 1.0241                 3.4931

                     16                     17                     18
                      A                      A                      A
 Frequencies --    366.7735               391.2325               413.3383
 Red. masses --      2.1866                 1.9850                 3.9421
 Frc consts  --      0.1733                 0.1790                 0.3968
 IR Inten    --      0.5512                 0.8006                 5.0805

                     19                     20                     21
                      A                      A                      A
 Frequencies --    428.2270               475.0088               519.8323
 Red. masses --      2.1575                 2.2879                 3.8128
 Frc consts  --      0.2331                 0.3041                 0.6070
 IR Inten    --      3.4523                 1.1812                 2.2230

                     22                     23                     24
                      A                      A                      A
 Frequencies --    547.9824               587.4126               646.3630
 Red. masses --      3.4360                 3.3277                 4.3791
 Frc consts  --      0.6079                 0.6765                 1.0779
 IR Inten    --      2.0437                 3.1821                 4.5879

                     25                     26                     27
                      A                      A                      A
 Frequencies --    669.8808               693.5036               714.3525
 Red. masses --      1.8765                 3.4925                 1.3566
 Frc consts  --      0.4961                 0.9897                 0.4079
 IR Inten    --      6.2019                15.9113                20.2422

                     28                     29                     30
                      A                      A                      A
 Frequencies --    737.5025               771.9941               778.9642
 Red. masses --      1.6927                 1.7011                 2.2884
 Frc consts  --      0.5425                 0.5973                 0.8181
 IR Inten    --      3.9039                18.5007                41.0686

                     31                     32                     33
                      A                      A                      A
 Frequencies --    807.2061               819.1087               834.7557
 Red. masses --      2.6095                 3.6517                 1.7496
 Frc consts  --      1.0018                 1.4436                 0.7183
 IR Inten    --      2.5013                 4.4277                 2.5429

                     34                     35                     36
                      A                      A                      A
 Frequencies --    872.3429               891.0411               906.2751
 Red. masses --      2.1138                 1.6540                 1.2460
 Frc consts  --      0.9478                 0.7737                 0.6030
 IR Inten    --      0.9604                 0.5205                 0.0359

                     37                     38                     39
                      A                      A                      A
 Frequencies --    929.7142               942.5534               968.2920
 Red. masses --      2.1064                 1.9004                 2.0313
 Frc consts  --      1.0727                 0.9947                 1.1221
 IR Inten    --      1.6049                 1.6774                 0.3714

                     40                     41                     42
                      A                      A                      A
 Frequencies --   1002.8637              1008.2033              1028.5643
 Red. masses --      1.6205                 1.8695                 1.6652
 Frc consts  --      0.9602                 1.1196                 1.0380
 IR Inten    --      1.6012                 0.1698                 0.3590

                     43                     44                     45
                      A                      A                      A
 Frequencies --   1065.4233              1076.5651              1084.6870
 Red. masses --      1.6773                 1.7386                 1.3737
 Frc consts  --      1.1218                 1.1872                 0.9523
 IR Inten    --      0.7132                 0.4666                 4.3673

                     46                     47                     48
                      A                      A                      A
 Frequencies --   1095.3431              1120.6572              1144.7166
 Red. masses --      1.5041                 1.9700                 2.0769
 Frc consts  --      1.0632                 1.4577                 1.6034
 IR Inten    --      2.3182                 1.7968                 6.6959

                     49                     50                     51
                      A                      A                      A
 Frequencies --   1152.6354              1166.1150              1203.5744
 Red. masses --      2.1373                 2.1430                 1.4063
 Frc consts  --      1.6730                 1.7169                 1.2003
 IR Inten    --      6.0063                 0.5263                 1.6085

                     52                     53                     54
                      A                      A                      A
 Frequencies --   1217.7138              1253.7471              1261.4615
 Red. masses --      1.4427                 1.3007                 1.8958
 Frc consts  --      1.2604                 1.2046                 1.7775
 IR Inten    --      9.5759                 2.4114                54.4617

                     55                     56                     57
                      A                      A                      A
 Frequencies --   1291.3921              1313.6108              1334.3798
 Red. masses --      1.4167                 1.2432                 1.1951
 Frc consts  --      1.3920                 1.2640                 1.2538
 IR Inten    --      9.1216                 4.3369                 1.2160

                     58                     59                     60
                      A                      A                      A
 Frequencies --   1343.8137              1353.7892              1359.1978
 Red. masses --      1.4886                 1.6914                 1.2384
 Frc consts  --      1.5838                 1.8264                 1.3480
 IR Inten    --     20.1747                38.0692                15.0367

                     61                     62                     63
                      A                      A                      A
 Frequencies --   1379.0854              1384.2954              1397.3577
 Red. masses --      1.3480                 1.5001                 1.3487
 Frc consts  --      1.5105                 1.6937                 1.5516
 IR Inten    --     17.6521                 2.6704                 1.5307

                     64                     65                     66
                      A                      A                      A
 Frequencies --   1403.5312              1415.7898              1417.2578
 Red. masses --      1.4333                 1.3776                 1.3973
 Frc consts  --      1.6635                 1.6269                 1.6536
 IR Inten    --      2.9088                 0.4584                 2.3926

                     67                     68                     69
                      A                      A                      A
 Frequencies --   1429.1442              1435.2901              1443.4174
 Red. masses --      1.4338                 1.3980                 1.2745
 Frc consts  --      1.7254                 1.6968                 1.5645
 IR Inten    --      4.0862                 1.6806                 5.2732

                     70                     71                     72
                      A                      A                      A
 Frequencies --   1504.7844              1513.2292              1514.5805
 Red. masses --      1.0764                 1.0832                 1.0815
 Frc consts  --      1.4360                 1.4614                 1.4618
 IR Inten    --      1.1552                 6.9399                 4.1618

                     73                     74                     75
                      A                      A                      A
 Frequencies --   1518.6729              1523.0912              1529.7714
 Red. masses --      1.0777                 1.0823                 1.0639
 Frc consts  --      1.4644                 1.4793                 1.4669
 IR Inten    --      5.3922                 0.9233                17.5115

                     76                     77                     78
                      A                      A                      A
 Frequencies --   1533.9804              1536.2649              1544.0861
 Red. masses --      1.0709                 1.0677                 1.0698
 Frc consts  --      1.4847                 1.4847                 1.5028
 IR Inten    --      7.7625                 0.6446                 0.7055

                     79                     80                     81
                      A                      A                      A
 Frequencies --   1549.1265              1593.5655              1762.6002
 Red. masses --      1.0910                 6.6762                11.1699
 Frc consts  --      1.5425                 9.9890                20.4460
 IR Inten    --      3.3499                22.2090               350.3012

                     82                     83                     84
                      A                      A                      A
 Frequencies --   3025.1009              3030.8484              3035.1101
 Red. masses --      1.0637                 1.0646                 1.0635
 Frc consts  --      5.7354                 5.7619                 5.7724
 IR Inten    --     16.8534                32.7142                31.8359

                     85                     86                     87
                      A                      A                      A
 Frequencies --   3035.7082              3041.2731              3043.1008
 Red. masses --      1.0630                 1.0603                 1.0586
 Frc consts  --      5.7717                 5.7783                 5.7761
 IR Inten    --     14.5360                 0.6601                21.4992

                     88                     89                     90
                      A                      A                      A
 Frequencies --   3044.7356              3050.8805              3056.6659
 Red. masses --      1.0479                 1.0655                 1.0981
 Frc consts  --      5.7235                 5.8431                 6.0447
 IR Inten    --     20.6688                22.4840                 3.4699

                     91                     92                     93
                      A                      A                      A
 Frequencies --   3058.2620              3064.8241              3069.5317
 Red. masses --      1.0697                 1.0958                 1.1014
 Frc consts  --      5.8947                 6.0646                 6.1142
 IR Inten    --     44.4262                51.6800                21.5717

                     94                     95                     96
                      A                      A                      A
 Frequencies --   3074.7277              3076.7199              3084.5899
 Red. masses --      1.0968                 1.1001                 1.0992
 Frc consts  --      6.1090                 6.1357                 6.1622
 IR Inten    --     37.0388               162.1010                52.8836

                     97                     98                     99
                      A                      A                      A
 Frequencies --   3099.5016              3108.4587              3116.5055
 Red. masses --      1.0982                 1.1013                 1.1019
 Frc consts  --      6.2160                 6.2699                 6.3058
 IR Inten    --     21.3398                49.8738                51.0828

                    100                    101                    102
                      A                      A                      A
 Frequencies --   3138.8906              3252.4289              3269.9413
 Red. masses --      1.0951                 1.0877                 1.1030
 Frc consts  --      6.3573                 6.7792                 6.9488
 IR Inten    --      4.8647                 0.0629                 0.0455

 - Thermochemistry -
 -------------------
 Temperature   298.150 Kelvin.  Pressure   1.00000 Atm.
 Atom     1 has atomic number  6 and mass  12.00000

 Molecular mass:   227.13439 amu.
 Principal axes and moments of inertia in atomic units:
                           1         2         3
     Eigenvalues --  1429.684478805.638059299.50801
           X            1.00000  -0.00139   0.00025
           Y            0.00137   0.99897   0.04541
           Z           -0.00031  -0.04541   0.99897
 This molecule is an asymmetric top.
 Rotational symmetry number  1.
 Warning -- assumption of classical behavior for rotation
           may cause significant error
 Rotational temperatures (Kelvin)      0.06058     0.00984     0.00931
 Rotational constants (GHZ):           1.26234     0.20495     0.19407
 Zero-point vibrational energy     837853.4 (Joules/Mol)
                                  200.25176 (Kcal/Mol)
 Warning -- explicit consideration of  23 degrees of freedom as
           vibrations may cause significant error
 Vibrational temperatures:     37.19    49.94    63.77    82.72    95.31
          (Kelvin)            110.01   160.40   183.52   259.65   280.66
                              344.24   368.40   442.01   451.21   494.26
                              527.71   562.90   594.70   616.12   683.43
                              747.92   788.42   845.16   929.97   963.81
                              997.80  1027.79  1061.10  1110.73  1120.76
                             1161.39  1178.51  1201.03  1255.11  1282.01
                             1303.93  1337.65  1356.12  1393.16  1442.90
                             1450.58  1479.87  1532.91  1548.94  1560.62
                             1575.95  1612.38  1646.99  1658.39  1677.78
                             1731.68  1752.02  1803.86  1814.96  1858.03
                             1889.99  1919.87  1933.45  1947.80  1955.58
                             1984.20  1991.69  2010.49  2019.37  2037.01
                             2039.12  2056.22  2065.06  2076.76  2165.05
                             2177.20  2179.14  2185.03  2191.39  2201.00
                             2207.06  2210.34  2221.60  2228.85  2292.79
                             2535.99  4352.45  4360.71  4366.85  4367.71
                             4375.71  4378.34  4380.70  4389.54  4397.86
                             4400.16  4409.60  4416.37  4423.85  4426.71
                             4438.04  4459.49  4472.38  4483.96  4516.16
                             4679.52  4704.72

 Zero-point correction=                           0.319121 (Hartree/Particle)
 Thermal correction to Energy=                    0.335531
 Thermal correction to Enthalpy=                  0.336475
 Thermal correction to Gibbs Free Energy=         0.272872
 Sum of electronic and zero-point Energies=           -997.833208
 Sum of electronic and thermal Energies=              -997.816799
 Sum of electronic and thermal Enthalpies=            -997.815854
 Sum of electronic and thermal Free Energies=         -997.879458

                     E (Thermal)             CV                S
                      KCal/Mol        Cal/Mol-Kelvin    Cal/Mol-Kelvin
 Total                  210.549             61.217            133.864
 Electronic               0.000              0.000              0.000
 Translational            0.889              2.981             42.163
 Rotational               0.889              2.981             33.126
 Vibrational            208.771             55.256             58.575
 Vibration     1          0.593              1.985              6.125
 Vibration     2          0.594              1.983              5.540
 Vibration     3          0.595              1.980              5.056
 Vibration     4          0.596              1.975              4.541
 Vibration     5          0.598              1.970              4.262
 Vibration     6          0.599              1.965              3.980
 Vibration     7          0.607              1.940              3.243
 Vibration     8          0.611              1.926              2.983
 Vibration     9          0.629              1.866              2.324
 Vibration    10          0.636              1.847              2.179
 Vibration    11          0.657              1.780              1.808
 Vibration    12          0.666              1.753              1.689
 Vibration    13          0.697              1.660              1.377
 Vibration    14          0.701              1.648              1.343
 Vibration    15          0.722              1.588              1.196
 Vibration    16          0.740              1.541              1.093
 Vibration    17          0.759              1.489              0.995
 Vibration    18          0.777              1.441              0.915
 Vibration    19          0.790              1.409              0.864
 Vibration    20          0.832              1.305              0.724
 Vibration    21          0.875              1.206              0.610
 Vibration    22          0.903              1.144              0.548
 Vibration    23          0.945              1.059              0.472

 Optimization completed.
    -- Stationary point found.
 Normal termination of Gaussian 16 at Thu Dec 10 17:30:09 2020.

 ----------------------------------------------------------------------
 # B3LYP/6-311++G(d,p) empiricaldispersion=gd3bj scf=xqc pop=npa geom=c
 heck
 ----------------------------------------------------------------------

 --------------------------------------
 CID_13013791_JID_5846_Energie_neutraal
 --------------------------------------
 Structure from the checkpoint file:  "JID_5846.chk"
 Charge =  0 Multiplicity = 1

 SCF Done:  E(RB3LYP) =  -998.347825615     A.U. after   17 cycles
 Normal termination of Gaussian 16 at Thu Dec 10 17:37:41 2020.

 ----------------------------------------------------------------------
 # B3LYP/6-311++G(d,p) empiricaldispersion=gd3bj scf=xqc pop=npa geom=c
 heck
 ----------------------------------------------------------------------

 ------------------------------------
 CID_13013791_JID_5846_Energie_kation
 ------------------------------------
 Structure from the checkpoint file:  "JID_5846.chk"
 Charge =  1 Multiplicity = 2

 SCF Done:  E(UB3LYP) =  -998.043895864     A.U. after   26 cycles
 Normal termination of Gaussian 16 at Thu Dec 10 17:53:30 2020.
 Gaussian 16:  ES64L-G16RevA.03 25-Dec-2016

 ----------------------------------------------------------------------
 # B3LYP/6-311++G(d,p) empiricaldispersion=gd3bj scf=xqc pop=npa geom=c
 heck
 ----------------------------------------------------------------------

 -----------------------------------
 CID_13013791_JID_5846_Energie_anion
 -----------------------------------
 Structure from the checkpoint file:  "JID_5846.chk"
 Charge = -1 Multiplicity = 2

                         Standard orientation:
 ---------------------------------------------------------------------
 Center     Atomic      Atomic             Coordinates (Angstroms)
 Number     Number       Type             X           Y           Z
 ---------------------------------------------------------------------
      1          6           0       -5.760256    0.829888   -0.195806
      2          6           0       -4.694475    0.705115    0.896906
      3          6           0       -3.945045   -0.635951    0.885883
      4          6           0       -3.193890   -0.952390   -0.417557
      5          6           0       -2.162475    0.104422   -0.843189
      6          6           0       -1.072213    0.410596    0.195445
      7          6           0       -0.256869   -0.808074    0.657638
      8          6           0        0.429786   -1.597544   -0.464460
      9          6           0        1.412805   -0.774180   -1.305218
     10          7           0        2.448050   -0.122906   -0.512684
     11          6           0        2.533560    1.263412   -0.345531
     12          8           0        1.777893    2.057053   -0.898751
     13          6           0        3.644553    1.543259    0.571888
     14          6           0        4.268808    0.438108    1.023535
     15         16           0        3.590271   -1.036389    0.390358
     16          1           0       -5.317290    0.809499   -1.197667
     17          1           0       -6.315972    1.769428   -0.100828
     18          1           0       -6.482940    0.006320   -0.136868
     19          1           0       -3.977583    1.531040    0.802270
     20          1           0       -5.169065    0.829795    1.879170
     21          1           0       -3.239075   -0.652217    1.726559
     22          1           0       -4.663576   -1.445124    1.078627
     23          1           0       -2.697658   -1.925403   -0.302852
     24          1           0       -3.916897   -1.084369   -1.232786
     25          1           0       -1.695216   -0.223400   -1.781802
     26          1           0       -2.678386    1.041605   -1.087851
     27          1           0       -0.396080    1.169163   -0.214171
     28          1           0       -1.531975    0.866208    1.081966
     29          1           0        0.506809   -0.469924    1.369862
     30          1           0       -0.901963   -1.500239    1.213511
     31          1           0        0.958910   -2.455565   -0.028052
     32          1           0       -0.315394   -2.018976   -1.150547
     33          1           0        1.885349   -1.404539   -2.068272
     34          1           0        0.908177    0.049431   -1.815886
     35          1           0        3.901279    2.559868    0.838324
     36          1           0        5.108989    0.373575    1.703166
 ---------------------------------------------------------------------

 SCF Done:  E(UB3LYP) =  -998.340775684     A.U. after   33 cycles
 SCF Done:  E(UB3LYP) =  -998.340775684     a.u. after    1 cycles

 The electronic state is 2-A.
 Alpha  occ. eigenvalues --  -88.78027 -18.95683 -14.23931 -10.14103 -10.09870
 Alpha  occ. eigenvalues --  -10.08388 -10.07048 -10.06648 -10.06599 -10.06444
 Alpha  occ. eigenvalues --  -10.06288 -10.06029 -10.06027 -10.05247 -10.05237
 Alpha  occ. eigenvalues --   -7.86428  -5.82918  -5.82398  -5.81810  -0.91208
 Alpha  occ. eigenvalues --   -0.83589  -0.72183  -0.71019  -0.68293  -0.64932
 Alpha  occ. eigenvalues --   -0.61564  -0.61273  -0.58137  -0.54943  -0.51553
 Alpha  occ. eigenvalues --   -0.48118  -0.46932  -0.44248  -0.42518  -0.38458
 Alpha  occ. eigenvalues --   -0.38294  -0.37446  -0.36092  -0.35427  -0.33302
 Alpha  occ. eigenvalues --   -0.32985  -0.32202  -0.30679  -0.30567  -0.29807
 Alpha  occ. eigenvalues --   -0.29578  -0.28325  -0.27864  -0.26825  -0.25957
 Alpha  occ. eigenvalues --   -0.25333  -0.25034  -0.23828  -0.23413  -0.22943
 Alpha  occ. eigenvalues --   -0.22285  -0.21176  -0.20630  -0.20389  -0.15941
 Alpha  occ. eigenvalues --   -0.13883  -0.10473   0.04492
 Alpha virt. eigenvalues --    0.05750   0.07186   0.07543   0.07748   0.08104
 Alpha virt. eigenvalues --    0.08741   0.09429   0.09647   0.10372   0.11012
 Alpha virt. eigenvalues --    0.11218   0.11386   0.11768   0.12351   0.12793

  Beta  occ. eigenvalues --  -88.78006 -18.95557 -14.23853 -10.14013 -10.09861
  Beta  occ. eigenvalues --  -10.08026 -10.07038 -10.06638 -10.06584 -10.06416
  Beta  occ. eigenvalues --  -10.06274 -10.06025 -10.06023 -10.05235 -10.05172
  Beta  occ. eigenvalues --   -7.86410  -5.82891  -5.82398  -5.81749  -0.90989
  Beta  occ. eigenvalues --   -0.83408  -0.72071  -0.70863  -0.68175  -0.64843
  Beta  occ. eigenvalues --   -0.61299  -0.61193  -0.58063  -0.54859  -0.51446
  Beta  occ. eigenvalues --   -0.47848  -0.46735  -0.44160  -0.42416  -0.38383
  Beta  occ. eigenvalues --   -0.38256  -0.37236  -0.35999  -0.35338  -0.33169
  Beta  occ. eigenvalues --   -0.32906  -0.32119  -0.30619  -0.30287  -0.29726
  Beta  occ. eigenvalues --   -0.29439  -0.28208  -0.27699  -0.26785  -0.25891
  Beta  occ. eigenvalues --   -0.25208  -0.24886  -0.23795  -0.23351  -0.22910
  Beta  occ. eigenvalues --   -0.21648  -0.21099  -0.20599  -0.20295  -0.14921
  Beta  occ. eigenvalues --   -0.13726  -0.09816
  Beta virt. eigenvalues --    0.06389   0.07439   0.07584   0.07914   0.08354
  Beta virt. eigenvalues --    0.08845   0.09109   0.09637   0.09934   0.10584
  Beta virt. eigenvalues --    0.11119   0.11333   0.11454   0.11819   0.12531

 Mulliken charges and spin densities:
               1          2
     1  C    0.630351  -1.261535
     2  C   -0.641897   0.427662
     3  C    0.068458  -0.288307
     4  C    0.055029  -0.313620
     5  C   -0.176135  -0.099287
     6  C   -0.023278  -0.209056
     7  C   -0.491255   0.300541
     8  C    0.238723  -0.501204
     9  C   -0.308251  -0.273887
    10  N    0.179047   0.013781
    11  C   -0.414247   0.064572
    12  O   -0.371790   0.037387
    13  C    0.262528   0.066805
    14  C   -0.502206   0.246180
    15  S    0.018985   0.057048
    16  H   -0.025474   0.162242
    17  H   -0.148310   0.279539
    18  H   -0.194598   0.332927
    19  H    0.172319  -0.042476
    20  H   -0.147184   0.291235
    21  H    0.045931   0.086927
    22  H   -0.170010   0.325499
    23  H   -0.045095   0.197549
    24  H   -0.092463   0.250601
    25  H    0.124227   0.030360
    26  H    0.084838   0.076128
    27  H    0.197720   0.011427
    28  H    0.100634   0.032349
    29  H    0.155426  -0.002748
    30  H    0.158303  -0.007143
    31  H    0.050782   0.098972
    32  H   -0.073939   0.190326
    33  H   -0.296586   0.490706
    34  H    0.240038  -0.058807
    35  H    0.138678  -0.000521
    36  H    0.200703  -0.012172
 Sum of Mulliken charges =  -1.00000   1.00000

 Dipole moment (field-independent basis, Debye):
    X=              3.4818    Y=             -0.9484    Z=              2.4407  Tot=              4.3565
 Quadrupole moment (field-independent basis, Debye-Ang):
   XX=           -199.1879   YY=           -135.7141   ZZ=           -124.4323
   XY=             -3.6570   XZ=              8.6698   YZ=             -0.1370

 Summary of Natural Population Analysis:

                                       Natural Population
                Natural  -----------------------------------------------
    Atom  No    Charge         Core      Valence    Rydberg      Total
 -----------------------------------------------------------------------
      C    1   -0.28815      0.99967     2.28333    0.00515     3.28815
      C    2   -0.19347      0.99964     2.18500    0.00883     3.19347
      C    3   -0.19110      0.99963     2.18256    0.00891     3.19110
      C    4   -0.19394      0.99963     2.18578    0.00854     3.19394
      C    5   -0.19359      0.99963     2.18532    0.00864     3.19359
      C    6   -0.20220      0.99962     2.19516    0.00742     3.20220
      C    7   -0.19357      0.99963     2.18577    0.00817     3.19357
      C    8   -0.19830      0.99962     2.18939    0.00929     3.19830
      C    9   -0.09013      0.99961     2.07750    0.01302     3.09013
      N   10   -0.31276      0.99966     2.80121    0.01189     3.81276
      C   11    0.32633      0.99960     1.65059    0.02348     2.67367
      O   12   -0.32684      0.99988     3.32149    0.00547     4.32684
      C   13   -0.15769      0.99948     2.14799    0.01022     3.15769
      C   14   -0.10669      0.99952     2.09817    0.00900     3.10669
      S   15    0.24928      4.99948     2.72656    0.02468     7.75072
      H   16    0.09664      0.00000     0.40246    0.00091     0.40336
      H   17    0.09762      0.00000     0.40154    0.00084     0.40238
      H   18    0.09642      0.00000     0.40238    0.00120     0.40358
      H   19    0.09408      0.00000     0.40484    0.00108     0.40592
      H   20    0.09448      0.00000     0.40456    0.00097     0.40552
      H   21    0.09538      0.00000     0.40360    0.00102     0.40462
      H   22    0.09534      0.00000     0.40366    0.00101     0.40466
      H   23    0.09684      0.00000     0.40210    0.00106     0.40316
      H   24    0.09615      0.00000     0.40286    0.00099     0.40385
      H   25    0.09628      0.00000     0.40276    0.00096     0.40372
      H   26    0.09601      0.00000     0.40302    0.00096     0.40399
      H   27    0.11599      0.00000     0.38264    0.00137     0.38401
      H   28    0.09292      0.00000     0.40603    0.00106     0.40708
      H   29    0.10148      0.00000     0.39734    0.00117     0.39852
      H   30    0.09378      0.00000     0.40523    0.00099     0.40622
      H   31    0.09747      0.00000     0.40153    0.00100     0.40253
      H   32    0.09915      0.00000     0.39963    0.00122     0.40085
      H   33    0.09711      0.00000     0.40113    0.00176     0.40289
      H   34    0.11473      0.00000     0.38374    0.00153     0.38527
      H   35    0.10507      0.00000     0.39403    0.00089     0.39493
      H   36    0.09986      0.00000     0.39932    0.00082     0.40014
 =======================================================================
   * Total *   -0.00000     18.99429    42.82019    0.18552    62.00000

 Normal termination of Gaussian 16 at Thu Dec 10 18:10:56 2020.
