 Gaussian 16, Revision A.03,

 -----------------------------------------------------------
 # opt freq B3LYP/6-31G(d) empiricaldispersion=gd3bj scf=xqc
 -----------------------------------------------------------

 -------------------------------
 CID_130175729_JID_3868_neutraal
 -------------------------------
 Symbolic Z-matrix:
 Charge =  0 Multiplicity = 1

 SCF Done:  E(RB3LYP) =  -575.441678585     A.U. after   15 cycles
 SCF Done:  E(RB3LYP) =  -575.448185315     A.U. after   13 cycles
 SCF Done:  E(RB3LYP) =  -575.448718526     A.U. after   13 cycles
 SCF Done:  E(RB3LYP) =  -575.448826960     A.U. after   12 cycles
 SCF Done:  E(RB3LYP) =  -575.449080520     A.U. after   11 cycles
 SCF Done:  E(RB3LYP) =  -575.449135344     A.U. after   12 cycles
 SCF Done:  E(RB3LYP) =  -575.449202923     A.U. after   12 cycles
 SCF Done:  E(RB3LYP) =  -575.449243775     A.U. after   13 cycles
 SCF Done:  E(RB3LYP) =  -575.449249488     A.U. after   10 cycles
 SCF Done:  E(RB3LYP) =  -575.449310001     A.U. after   12 cycles
 SCF Done:  E(RB3LYP) =  -575.449423597     A.U. after    9 cycles
 SCF Done:  E(RB3LYP) =  -575.449427263     A.U. after   10 cycles
 SCF Done:  E(RB3LYP) =  -575.449427912     A.U. after   11 cycles
 SCF Done:  E(RB3LYP) =  -575.449427936     A.U. after    7 cycles
 SCF Done:  E(RB3LYP) =  -575.449428378     A.U. after    9 cycles
 SCF Done:  E(RB3LYP) =  -575.449428390     A.U. after    7 cycles
 Optimization completed.
    -- Stationary point found.
 Normal termination of Gaussian 16 at Sun Dec 13 12:27:24 2020.

 --------------------------------------------------------------------
 #N Geom=AllCheck Guess=TCheck SCRF=Check GenChk RB3LYP/6-31G(d) Freq
 --------------------------------------------------------------------

 Structure from the checkpoint file:  "JID_3868.chk"
 -------------------------------
 CID_130175729_JID_3868_neutraal
 -------------------------------
 Charge =  0 Multiplicity = 1

 SCF Done:  E(RB3LYP) =  -575.449428390     A.U. after    1 cycles

  Exact polarizability: 166.118  -4.437 115.308   5.391   1.016  82.496
 Approx polarizability: 213.364 -22.121 197.594   9.466   1.207 122.209

                      1                      2                      3
                      A                      A                      A
 Frequencies --     22.7698                41.7514                66.0324
 Red. masses --      3.8629                 3.0379                 3.6815
 Frc consts  --      0.0012                 0.0031                 0.0095
 IR Inten    --      0.7992                 0.2743                 1.9765

                      4                      5                      6
                      A                      A                      A
 Frequencies --    118.5863               137.3929               160.8969
 Red. masses --      3.4417                 2.3231                 2.1724
 Frc consts  --      0.0285                 0.0258                 0.0331
 IR Inten    --      0.8316                 0.1112                 2.2298

                      7                      8                      9
                      A                      A                      A
 Frequencies --    177.5702               223.9818               229.1859
 Red. masses --      1.3633                 1.1297                 4.0477
 Frc consts  --      0.0253                 0.0334                 0.1253
 IR Inten    --      0.7896                 0.3062                 3.3682

                     10                     11                     12
                      A                      A                      A
 Frequencies --    244.5605               272.5186               284.5639
 Red. masses --      1.7202                 1.5683                 3.6765
 Frc consts  --      0.0606                 0.0686                 0.1754
 IR Inten    --      0.6161                 0.2249                 8.2815

                     13                     14                     15
                      A                      A                      A
 Frequencies --    326.5319               391.4378               399.4863
 Red. masses --      3.3204                 2.4531                 2.6123
 Frc consts  --      0.2086                 0.2215                 0.2456
 IR Inten    --      4.6295                 0.9254                 3.4211

                     16                     17                     18
                      A                      A                      A
 Frequencies --    457.7897               489.3482               498.1064
 Red. masses --      2.4641                 2.8780                 4.1633
 Frc consts  --      0.3043                 0.4060                 0.6086
 IR Inten    --      1.7575                 1.6918                 5.8907

                     19                     20                     21
                      A                      A                      A
 Frequencies --    532.8694               553.2992               604.4109
 Red. masses --      4.0438                 5.9258                 3.7607
 Frc consts  --      0.6765                 1.0688                 0.8094
 IR Inten    --     10.6858                 0.2584                 0.9588

                     22                     23                     24
                      A                      A                      A
 Frequencies --    707.9113               734.3501               808.0750
 Red. masses --      4.3185                 3.8089                 2.8556
 Frc consts  --      1.2751                 1.2102                 1.0986
 IR Inten    --      1.2353                 8.5541                12.9429

                     25                     26                     27
                      A                      A                      A
 Frequencies --    829.4908               861.7119               884.2355
 Red. masses --      1.8242                 1.4068                 1.4487
 Frc consts  --      0.7395                 0.6155                 0.6674
 IR Inten    --     37.2612                 3.7697                34.6465

                     28                     29                     30
                      A                      A                      A
 Frequencies --    896.2684               928.3685               937.9775
 Red. masses --      1.8589                 2.2394                 1.2312
 Frc consts  --      0.8798                 1.1371                 0.6382
 IR Inten    --     14.6623                 4.7350                 2.3556

                     31                     32                     33
                      A                      A                      A
 Frequencies --    957.5826               974.8177              1005.3819
 Red. masses --      1.4622                 1.7254                 1.8816
 Frc consts  --      0.7900                 0.9660                 1.1206
 IR Inten    --      1.1056                 3.8404                14.7030

                     34                     35                     36
                      A                      A                      A
 Frequencies --   1045.9877              1078.6944              1085.0513
 Red. masses --      1.5129                 1.6298                 1.9469
 Frc consts  --      0.9752                 1.1173                 1.3505
 IR Inten    --     19.4820                 5.0772                20.7547

                     37                     38                     39
                      A                      A                      A
 Frequencies --   1093.6821              1146.8344              1155.1840
 Red. masses --      4.0150                 2.9321                 2.0771
 Frc consts  --      2.8295                 2.2721                 1.6331
 IR Inten    --      4.2525                26.0119                18.3229

                     40                     41                     42
                      A                      A                      A
 Frequencies --   1182.1074              1196.9455              1210.0063
 Red. masses --      1.5570                 2.4129                 1.9901
 Frc consts  --      1.2819                 2.0367                 1.7168
 IR Inten    --      4.7125                21.5983                38.6368

                     43                     44                     45
                      A                      A                      A
 Frequencies --   1216.0262              1258.9322              1284.9838
 Red. masses --      1.5601                 1.9942                 1.7794
 Frc consts  --      1.3592                 1.8622                 1.7311
 IR Inten    --      6.8345                47.5381                 4.4180

                     46                     47                     48
                      A                      A                      A
 Frequencies --   1328.1811              1363.5129              1365.6420
 Red. masses --      1.5828                 1.7120                 1.9704
 Frc consts  --      1.6451                 1.8753                 2.1651
 IR Inten    --      2.0028                71.1970                25.0299

                     49                     50                     51
                      A                      A                      A
 Frequencies --   1375.1808              1415.1714              1425.9690
 Red. masses --      1.3074                 1.3376                 1.3267
 Frc consts  --      1.4568                 1.5783                 1.5894
 IR Inten    --      9.7201                 3.8125                 5.7844

                     52                     53                     54
                      A                      A                      A
 Frequencies --   1430.7288              1439.3370              1443.4436
 Red. masses --      1.3135                 1.3446                 1.2482
 Frc consts  --      1.5841                 1.6412                 1.5323
 IR Inten    --      3.8803                19.2803                13.4670

                     55                     56                     57
                      A                      A                      A
 Frequencies --   1496.8190              1504.8447              1512.6587
 Red. masses --      1.0461                 1.0845                 1.0888
 Frc consts  --      1.3809                 1.4470                 1.4678
 IR Inten    --      7.1542                26.2722                35.1908

                     58                     59                     60
                      A                      A                      A
 Frequencies --   1516.0212              1519.7317              1537.6335
 Red. masses --      1.0557                 1.0700                 1.0582
 Frc consts  --      1.4295                 1.4560                 1.4741
 IR Inten    --      4.0399                25.0074                 5.4326

                     61                     62                     63
                      A                      A                      A
 Frequencies --   1541.3530              1547.2955              1644.6759
 Red. masses --      1.1199                 1.0956                 6.8620
 Frc consts  --      1.5675                 1.5454                10.9361
 IR Inten    --     18.3256                63.5031                38.2040

                     64                     65                     66
                      A                      A                      A
 Frequencies --   1704.4673              1751.0218              2959.5463
 Red. masses --      8.8218                10.3647                 1.0710
 Frc consts  --     15.1002                18.7237                 5.5268
 IR Inten    --    129.6900               300.8199                46.3452

                     67                     68                     69
                      A                      A                      A
 Frequencies --   2973.6246              3015.9243              3041.0795
 Red. masses --      1.0772                 1.0842                 1.0464
 Frc consts  --      5.6121                 5.8102                 5.7019
 IR Inten    --     15.1178                23.5583                18.8780

                     70                     71                     72
                      A                      A                      A
 Frequencies --   3042.9436              3047.1408              3051.7958
 Red. masses --      1.0784                 1.0384                 1.0373
 Frc consts  --      5.8831                 5.6809                 5.6920
 IR Inten    --     33.0119                29.9621                 7.6852

                     73                     74                     75
                      A                      A                      A
 Frequencies --   3105.0716              3105.4480              3113.3163
 Red. masses --      1.1012                 1.0995                 1.0999
 Frc consts  --      6.2554                 6.2472                 6.2816
 IR Inten    --      2.0535                 8.9177                71.9001

                     76                     77                     78
                      A                      A                      A
 Frequencies --   3117.3770              3117.9638              3136.0030
 Red. masses --      1.0893                 1.1011                 1.1025
 Frc consts  --      6.2368                 6.3072                 6.3881
 IR Inten    --     34.5897                41.5710                29.0455

                     79                     80                     81
                      A                      A                      A
 Frequencies --   3151.4413              3213.7802              3478.4829
 Red. masses --      1.1024                 1.0919                 1.0736
 Frc consts  --      6.4506                 6.6447                 7.6535
 IR Inten    --     14.3846                 5.8330                29.0921

 - Thermochemistry -
 -------------------
 Temperature   298.150 Kelvin.  Pressure   1.00000 Atm.
 Atom     1 has atomic number  6 and mass  12.00000

 Molecular mass:   180.12626 amu.
 Principal axes and moments of inertia in atomic units:
                           1         2         3
     Eigenvalues --   851.059025144.918425513.58093
           X            0.99999   0.00373  -0.00073
           Y           -0.00372   0.99999   0.00266
           Z            0.00074  -0.00265   1.00000
 This molecule is an asymmetric top.
 Rotational symmetry number  1.
 Warning -- assumption of classical behavior for rotation
           may cause significant error
 Rotational temperatures (Kelvin)      0.10177     0.01683     0.01571
 Rotational constants (GHZ):           2.12058     0.35078     0.32733
 Zero-point vibrational energy     659431.4 (Joules/Mol)
                                  157.60789 (Kcal/Mol)
 Warning -- explicit consideration of  21 degrees of freedom as
           vibrations may cause significant error
 Vibrational temperatures:     32.76    60.07    95.01   170.62   197.68
          (Kelvin)            231.49   255.48   322.26   329.75   351.87
                              392.09   409.42   469.81   563.19   574.77
                              658.66   704.06   716.66   766.68   796.07
                              869.61  1018.53  1056.57  1162.64  1193.45
                             1239.81  1272.22  1289.53  1335.72  1349.54
                             1377.75  1402.55  1446.52  1504.94  1552.00
                             1561.15  1573.56  1650.04  1662.05  1700.79
                             1722.14  1740.93  1749.59  1811.32  1848.81
                             1910.96  1961.79  1964.85  1978.58  2036.12
                             2051.65  2058.50  2070.88  2076.79  2153.59
                             2165.14  2176.38  2181.22  2186.55  2212.31
                             2217.66  2226.21  2366.32  2452.35  2519.33
                             4258.13  4278.38  4339.24  4375.44  4378.12
                             4384.16  4390.85  4467.51  4468.05  4479.37
                             4485.21  4486.05  4512.01  4534.22  4623.91
                             5004.76

 Zero-point correction=                           0.251164 (Hartree/Particle)
 Thermal correction to Energy=                    0.264936
 Thermal correction to Enthalpy=                  0.265880
 Thermal correction to Gibbs Free Energy=         0.209760
 Sum of electronic and zero-point Energies=           -575.198264
 Sum of electronic and thermal Energies=              -575.184493
 Sum of electronic and thermal Enthalpies=            -575.183549
 Sum of electronic and thermal Free Energies=         -575.239668

                     E (Thermal)             CV                S
                      KCal/Mol        Cal/Mol-Kelvin    Cal/Mol-Kelvin
 Total                  166.250             51.070            118.113
 Electronic               0.000              0.000              0.000
 Translational            0.889              2.981             41.472
 Rotational               0.889              2.981             31.557
 Vibrational            164.472             45.109             45.084
 Vibration     1          0.593              1.985              6.377
 Vibration     2          0.594              1.980              5.174
 Vibration     3          0.597              1.970              4.268
 Vibration     4          0.609              1.934              3.123
 Vibration     5          0.614              1.916              2.840
 Vibration     6          0.622              1.890              2.539
 Vibration     7          0.628              1.870              2.354
 Vibration     8          0.649              1.805              1.927
 Vibration     9          0.652              1.796              1.885
 Vibration    10          0.660              1.772              1.769
 Vibration    11          0.676              1.724              1.580
 Vibration    12          0.683              1.702              1.506
 Vibration    13          0.710              1.622              1.277
 Vibration    14          0.759              1.488              0.995
 Vibration    15          0.766              1.471              0.965
 Vibration    16          0.816              1.344              0.773
 Vibration    17          0.845              1.274              0.685
 Vibration    18          0.854              1.254              0.663
 Vibration    19          0.888              1.177              0.581
 Vibration    20          0.909              1.132              0.537
 Vibration    21          0.963              1.022              0.442

 Optimization completed.
    -- Stationary point found.
 Normal termination of Gaussian 16 at Sun Dec 13 12:34:07 2020.

 ----------------------------------------------------------------------
 # B3LYP/6-311++G(d,p) empiricaldispersion=gd3bj scf=xqc pop=npa geom=c
 heck
 ----------------------------------------------------------------------

 ---------------------------------------
 CID_130175729_JID_3868_Energie_neutraal
 ---------------------------------------
 Structure from the checkpoint file:  "JID_3868.chk"
 Charge =  0 Multiplicity = 1

 SCF Done:  E(RB3LYP) =  -575.612771694     A.U. after   16 cycles
 Normal termination of Gaussian 16 at Sun Dec 13 12:37:40 2020.

 ----------------------------------------------------------------------
 # B3LYP/6-311++G(d,p) empiricaldispersion=gd3bj scf=xqc pop=npa geom=c
 heck
 ----------------------------------------------------------------------

 -------------------------------------
 CID_130175729_JID_3868_Energie_kation
 -------------------------------------
 Structure from the checkpoint file:  "JID_3868.chk"
 Charge =  1 Multiplicity = 2

 SCF Done:  E(UB3LYP) =  -575.309532344     A.U. after   27 cycles
 Normal termination of Gaussian 16 at Sun Dec 13 12:46:03 2020.
 Gaussian 16:  ES64L-G16RevA.03 25-Dec-2016

 ----------------------------------------------------------------------
 # B3LYP/6-311++G(d,p) empiricaldispersion=gd3bj scf=xqc pop=npa geom=c
 heck
 ----------------------------------------------------------------------

 ------------------------------------
 CID_130175729_JID_3868_Energie_anion
 ------------------------------------
 Structure from the checkpoint file:  "JID_3868.chk"
 Charge = -1 Multiplicity = 2

                         Standard orientation:
 ---------------------------------------------------------------------
 Center     Atomic      Atomic             Coordinates (Angstroms)
 Number     Number       Type             X           Y           Z
 ---------------------------------------------------------------------
      1          6           0        4.658915    0.187912    0.301467
      2          6           0        3.184347    0.055687    0.078072
      3          6           0        2.348936    1.120887   -0.007957
      4          6           0        0.914053    0.947848   -0.192039
      5          8           0        0.118333    1.882200   -0.126547
      6          6           0        0.450218   -0.476917   -0.489522
      7          6           0        1.512280   -1.507761   -0.241964
      8          7           0        2.752457   -1.289415   -0.004111
      9          6           0       -0.889096   -0.822918    0.188766
     10          7           0       -1.976253   -0.128510   -0.482827
     11          6           0       -3.314592   -0.397957    0.054480
     12          6           0       -3.525695    0.071889    1.504146
     13          6           0       -4.343012    0.239240   -0.882414
     14          1           0        5.203625   -0.298902   -0.516647
     15          1           0        4.945061   -0.336700    1.220923
     16          1           0        4.970903    1.232855    0.369196
     17          1           0        2.713319    2.135447    0.118120
     18          1           0        0.244569   -0.506347   -1.575901
     19          1           0        1.196281   -2.553613   -0.293009
     20          1           0       -1.063791   -1.904289    0.102145
     21          1           0       -0.796683   -0.602424    1.267318
     22          1           0       -1.776645    0.871325   -0.437656
     23          1           0       -3.447825   -1.489657    0.022206
     24          1           0       -3.389195    1.158361    1.575833
     25          1           0       -4.538621   -0.164926    1.850085
     26          1           0       -2.820622   -0.401955    2.195215
     27          1           0       -4.200399   -0.118104   -1.906415
     28          1           0       -5.365101    0.007907   -0.563082
     29          1           0       -4.233099    1.331432   -0.885602
 ---------------------------------------------------------------------

 SCF Done:  E(UB3LYP) =  -575.639859820     A.U. after   24 cycles

 The electronic state is 2-A.
 Alpha  occ. eigenvalues --  -18.91953 -14.16278 -14.13681 -10.09175 -10.06770
 Alpha  occ. eigenvalues --  -10.06039 -10.05928 -10.05719 -10.03318 -10.03212
 Alpha  occ. eigenvalues --  -10.02615 -10.02603  -9.98750  -0.85809  -0.78416
 Alpha  occ. eigenvalues --   -0.76676  -0.66736  -0.62843  -0.60876  -0.58726
 Alpha  occ. eigenvalues --   -0.55653  -0.50283  -0.47398  -0.45495  -0.41322
 Alpha  occ. eigenvalues --   -0.36808  -0.35826  -0.34084  -0.32500  -0.32128
 Alpha  occ. eigenvalues --   -0.31123  -0.30387  -0.28919  -0.28537  -0.26975
 Alpha  occ. eigenvalues --   -0.26376  -0.25902  -0.25387  -0.23928  -0.23485
 Alpha  occ. eigenvalues --   -0.22971  -0.22665  -0.20829  -0.20066  -0.18232
 Alpha  occ. eigenvalues --   -0.10379  -0.09646  -0.08783  -0.07689   0.03796
 Alpha virt. eigenvalues --    0.07270   0.09289   0.09544   0.09689   0.10803
 Alpha virt. eigenvalues --    0.11951   0.12265   0.12411   0.12858   0.13240
 Alpha virt. eigenvalues --    0.13712   0.13959   0.14737   0.15410   0.15912

  Beta  occ. eigenvalues --  -18.91626 -14.16267 -14.13748 -10.09175 -10.06577
  Beta  occ. eigenvalues --  -10.06038 -10.05846 -10.05717 -10.02773 -10.02750
  Beta  occ. eigenvalues --  -10.02668 -10.02647  -9.98687  -0.85222  -0.78365
  Beta  occ. eigenvalues --   -0.76174  -0.66653  -0.62307  -0.60642  -0.58718
  Beta  occ. eigenvalues --   -0.55352  -0.49945  -0.47371  -0.44857  -0.40687
  Beta  occ. eigenvalues --   -0.36692  -0.35747  -0.33902  -0.32208  -0.32012
  Beta  occ. eigenvalues --   -0.30921  -0.30031  -0.28914  -0.27901  -0.26874
  Beta  occ. eigenvalues --   -0.26166  -0.25518  -0.25225  -0.23783  -0.23290
  Beta  occ. eigenvalues --   -0.22782  -0.22406  -0.20475  -0.18590  -0.16986
  Beta  occ. eigenvalues --   -0.10325  -0.09596  -0.07488  -0.06815
  Beta virt. eigenvalues --    0.07228   0.09195   0.09489   0.09627   0.10443
  Beta virt. eigenvalues --    0.11116   0.11890   0.12324   0.12366   0.12835
  Beta virt. eigenvalues --    0.13359   0.13665   0.13977   0.14985   0.15866

 Mulliken charges and spin densities:
               1          2
     1  C   -0.596019  -0.013578
     2  C   -0.239568   0.233697
     3  C    0.221340   0.104457
     4  C   -0.619639   0.139391
     5  O   -0.415140   0.115378
     6  C    0.928347   0.078294
     7  C   -0.705487   0.401364
     8  N   -0.027966  -0.058191
     9  C   -0.723171  -0.199229
    10  N    0.127784   0.026481
    11  C   -0.003326   0.002892
    12  C   -0.486387  -0.011428
    13  C   -0.506521   0.000434
    14  H    0.121130   0.014294
    15  H    0.114374   0.020295
    16  H    0.115881   0.000948
    17  H    0.126674  -0.005626
    18  H    0.128146   0.102437
    19  H    0.108561  -0.021296
    20  H    0.087172   0.025419
    21  H    0.110096   0.023987
    22  H    0.258596   0.001407
    23  H    0.100522  -0.000397
    24  H    0.147888  -0.003727
    25  H    0.109405   0.004693
    26  H    0.122605   0.015178
    27  H    0.152592   0.001158
    28  H    0.108831  -0.000489
    29  H    0.133280   0.001758
 Sum of Mulliken charges =  -1.00000   1.00000

 Dipole moment (field-independent basis, Debye):
    X=             -5.6955    Y=             -1.2071    Z=              0.6430  Tot=              5.8574
 Quadrupole moment (field-independent basis, Debye-Ang):
   XX=           -117.2520   YY=           -100.2764   ZZ=            -90.3353
   XY=              6.4968   XZ=             -2.1798   YZ=              0.7114

 Summary of Natural Population Analysis:

                                       Natural Population
                Natural  -----------------------------------------------
    Atom  No    Charge         Core      Valence    Rydberg      Total
 -----------------------------------------------------------------------
      C    1   -0.29907      0.99964     2.29451    0.00492     3.29907
      C    2    0.18861      0.99949     1.80046    0.01144     2.81139
      C    3   -0.17726      0.99944     2.16773    0.01009     3.17726
      C    4    0.29297      0.99960     1.68597    0.02147     2.70703
      O    5   -0.30407      0.99988     3.29726    0.00693     4.30407
      C    6   -0.19286      0.99954     2.18378    0.00954     3.19286
      C    7    0.19556      0.99963     1.78584    0.01897     2.80444
      N    8   -0.28339      0.99967     2.77106    0.01266     3.78339
      C    9   -0.06745      0.99962     2.05598    0.01186     3.06745
      N   10   -0.35287      0.99973     2.83968    0.01346     3.85287
      C   11   -0.00871      0.99964     2.00039    0.00868     3.00871
      C   12   -0.29551      0.99965     2.29124    0.00462     3.29551
      C   13   -0.28458      0.99965     2.27986    0.00506     3.28458
      H   14    0.10121      0.00000     0.39754    0.00125     0.39879
      H   15    0.10149      0.00000     0.39727    0.00123     0.39851
      H   16    0.09143      0.00000     0.40778    0.00080     0.40857
      H   17    0.09247      0.00000     0.40560    0.00193     0.40753
      H   18    0.12980      0.00000     0.36849    0.00170     0.37020
      H   19    0.06217      0.00000     0.43577    0.00206     0.43783
      H   20    0.08279      0.00000     0.41497    0.00225     0.41721
      H   21    0.07856      0.00000     0.41920    0.00224     0.42144
      H   22    0.19018      0.00000     0.30599    0.00382     0.30982
      H   23    0.08096      0.00000     0.41710    0.00194     0.41904
      H   24    0.09789      0.00000     0.40111    0.00100     0.40211
      H   25    0.09027      0.00000     0.40876    0.00097     0.40973
      H   26    0.10119      0.00000     0.39797    0.00084     0.39881
      H   27    0.10261      0.00000     0.39636    0.00103     0.39739
      H   28    0.09011      0.00000     0.40905    0.00084     0.40989
      H   29    0.09550      0.00000     0.40354    0.00096     0.40450
 =======================================================================
   * Total *    0.00000     12.99519    35.84025    0.16456    49.00000

 Normal termination of Gaussian 16 at Sun Dec 13 12:53:26 2020.
