 Gaussian 16, Revision A.03,

 -----------------------------------------------------------
 # opt freq B3LYP/6-31G(d) empiricaldispersion=gd3bj scf=xqc
 -----------------------------------------------------------

 ------------------------------
 CID_54925494_JID_8373_neutraal
 ------------------------------
 Symbolic Z-matrix:
 Charge =  0 Multiplicity = 1

 SCF Done:  E(RB3LYP) =  -915.705399885     A.U. after   15 cycles
 SCF Done:  E(RB3LYP) =  -915.711993477     A.U. after   13 cycles
 SCF Done:  E(RB3LYP) =  -915.682968146     A.U. after   15 cycles
 SCF Done:  E(RB3LYP) =  -915.706737457     A.U. after   14 cycles
 SCF Done:  E(RB3LYP) =  -915.715751435     A.U. after   11 cycles
 SCF Done:  E(RB3LYP) =  -915.715450250     A.U. after   13 cycles
 SCF Done:  E(RB3LYP) =  -915.717137397     A.U. after   13 cycles
 SCF Done:  E(RB3LYP) =  -915.717477109     A.U. after   12 cycles
 SCF Done:  E(RB3LYP) =  -915.718436252     A.U. after   12 cycles
 SCF Done:  E(RB3LYP) =  -915.719579097     A.U. after   13 cycles
 SCF Done:  E(RB3LYP) =  -915.728966429     A.U. after   10 cycles
 SCF Done:  E(RB3LYP) =  -915.728967509     A.U. after    8 cycles
 SCF Done:  E(RB3LYP) =  -915.728967957     A.U. after    8 cycles
 SCF Done:  E(RB3LYP) =  -915.728968144     A.U. after    7 cycles
 SCF Done:  E(RB3LYP) =  -915.728968217     A.U. after    7 cycles
 Optimization completed.
    -- Stationary point found.
 Normal termination of Gaussian 16 at Fri Dec 11 20:38:10 2020.

 --------------------------------------------------------------------
 #N Geom=AllCheck Guess=TCheck SCRF=Check GenChk RB3LYP/6-31G(d) Freq
 --------------------------------------------------------------------

 Structure from the checkpoint file:  "JID_8373.chk"
 ------------------------------
 CID_54925494_JID_8373_neutraal
 ------------------------------
 Charge =  0 Multiplicity = 1

 SCF Done:  E(RB3LYP) =  -915.728968217     A.U. after    1 cycles

  Exact polarizability: 147.086  -4.816 137.383  -9.145  -7.057 122.127
 Approx polarizability: 195.903 -11.091 214.433 -11.137 -21.891 186.923

                      1                      2                      3
                      A                      A                      A
 Frequencies --     31.8812                42.7217                69.9788
 Red. masses --      5.8985                 6.5865                 4.7765
 Frc consts  --      0.0035                 0.0071                 0.0138
 IR Inten    --      0.1540                 0.4308                 5.1632

                      4                      5                      6
                      A                      A                      A
 Frequencies --     82.2359                98.7384               106.4424
 Red. masses --      3.4697                 3.8905                 7.4523
 Frc consts  --      0.0138                 0.0223                 0.0497
 IR Inten    --      0.1682                 4.4649                 2.0643

                      7                      8                      9
                      A                      A                      A
 Frequencies --    121.0677               133.3590               144.3011
 Red. masses --      4.3408                 4.3109                 3.8699
 Frc consts  --      0.0375                 0.0452                 0.0475
 IR Inten    --      0.7703                 0.4620                 4.8570

                     10                     11                     12
                      A                      A                      A
 Frequencies --    159.3186               205.8083               212.7659
 Red. masses --      5.0203                 5.0985                 2.8584
 Frc consts  --      0.0751                 0.1272                 0.0762
 IR Inten    --      5.5826                12.1790                 0.9807

                     13                     14                     15
                      A                      A                      A
 Frequencies --    221.0761               249.2426               259.2200
 Red. masses --      2.3926                 1.5879                 2.7092
 Frc consts  --      0.0689                 0.0581                 0.1073
 IR Inten    --      1.7501                 0.4037                 0.1718

                     16                     17                     18
                      A                      A                      A
 Frequencies --    283.1613               320.0268               325.7892
 Red. masses --      3.5253                 2.9176                 1.3452
 Frc consts  --      0.1665                 0.1761                 0.0841
 IR Inten    --      5.2803                 1.9471                 2.9194

                     19                     20                     21
                      A                      A                      A
 Frequencies --    337.8129               362.9823               410.3861
 Red. masses --      2.6236                 3.3576                 7.0303
 Frc consts  --      0.1764                 0.2606                 0.6976
 IR Inten    --      4.7952                 3.3713                 0.7742

                     22                     23                     24
                      A                      A                      A
 Frequencies --    424.0313               467.5858               495.9283
 Red. masses --      2.1674                 1.8875                 2.0048
 Frc consts  --      0.2296                 0.2431                 0.2905
 IR Inten    --      3.5868                 7.3400                15.7325

                     25                     26                     27
                      A                      A                      A
 Frequencies --    506.6969               586.6630               607.1046
 Red. masses --      3.1651                 4.0646                 2.7851
 Frc consts  --      0.4788                 0.8242                 0.6048
 IR Inten    --     16.2482                18.5224                14.9811

                     28                     29                     30
                      A                      A                      A
 Frequencies --    628.0083               653.6839               672.2892
 Red. masses --      6.7979                 4.1703                 1.4460
 Frc consts  --      1.5796                 1.0499                 0.3851
 IR Inten    --      5.1369                34.6431                89.9305

                     31                     32                     33
                      A                      A                      A
 Frequencies --    696.8383               726.1699               755.1706
 Red. masses --      3.0392                 5.0310                 8.9255
 Frc consts  --      0.8695                 1.5631                 2.9990
 IR Inten    --      6.6422                 7.4179                32.1209

                     34                     35                     36
                      A                      A                      A
 Frequencies --    763.9704               786.7190               803.2338
 Red. masses --      3.8381                 4.4215                 1.2972
 Frc consts  --      1.3198                 1.6123                 0.4931
 IR Inten    --      6.1943                14.5338                10.2898

                     37                     38                     39
                      A                      A                      A
 Frequencies --    843.3028               877.6752               898.9324
 Red. masses --      3.7028                 2.5203                 1.7028
 Frc consts  --      1.5515                 1.1439                 0.8107
 IR Inten    --     11.1506                 4.8213                 0.9931

                     40                     41                     42
                      A                      A                      A
 Frequencies --    961.4562               976.7638               993.5525
 Red. masses --      2.7303                 2.3681                 2.2543
 Frc consts  --      1.4870                 1.3311                 1.3111
 IR Inten    --     11.0139                 4.6472                 2.9187

                     43                     44                     45
                      A                      A                      A
 Frequencies --   1005.4450              1019.0403              1031.3597
 Red. masses --      2.0208                 1.7332                 1.3200
 Frc consts  --      1.2036                 1.0604                 0.8273
 IR Inten    --     27.5972                12.9764                 0.7119

                     46                     47                     48
                      A                      A                      A
 Frequencies --   1045.7353              1070.4943              1117.0285
 Red. masses --      3.0298                 4.9772                 2.1939
 Frc consts  --      1.9521                 3.3605                 1.6128
 IR Inten    --     51.4335                32.0900                34.0684

                     49                     50                     51
                      A                      A                      A
 Frequencies --   1138.9656              1146.7597              1154.3297
 Red. masses --      2.5638                 2.4037                 1.8011
 Frc consts  --      1.9596                 1.8624                 1.4140
 IR Inten    --     27.8480                51.2551                39.4116

                     52                     53                     54
                      A                      A                      A
 Frequencies --   1173.3617              1188.6147              1213.0860
 Red. masses --      2.7680                 2.1914                 1.9188
 Frc consts  --      2.2454                 1.8241                 1.6637
 IR Inten    --    315.9963                 9.6271               164.0508

                     55                     56                     57
                      A                      A                      A
 Frequencies --   1233.5318              1252.5696              1257.3886
 Red. masses --      1.7528                 1.5580                 1.5678
 Frc consts  --      1.5714                 1.4402                 1.4604
 IR Inten    --     57.0357                44.9969                41.8929

                     58                     59                     60
                      A                      A                      A
 Frequencies --   1280.2328              1316.3847              1328.7254
 Red. masses --      1.6608                 1.1347                 1.6085
 Frc consts  --      1.6038                 1.1585                 1.6731
 IR Inten    --     29.5941                 2.4678                64.0323

                     61                     62                     63
                      A                      A                      A
 Frequencies --   1341.2221              1361.0547              1370.2392
 Red. masses --      2.0524                 1.5738                 2.0984
 Frc consts  --      2.1753                 1.7177                 2.3213
 IR Inten    --     39.5897                23.5299                45.0799

                     64                     65                     66
                      A                      A                      A
 Frequencies --   1390.4791              1403.8166              1404.2437
 Red. masses --      1.3284                 1.5807                 1.3383
 Frc consts  --      1.5133                 1.8354                 1.5549
 IR Inten    --     12.3888                52.2315                10.1068

                     67                     68                     69
                      A                      A                      A
 Frequencies --   1424.3776              1426.3093              1436.1659
 Red. masses --      1.5616                 1.5110                 1.4082
 Frc consts  --      1.8667                 1.8111                 1.7113
 IR Inten    --     35.5969                 8.2135                14.5126

                     70                     71                     72
                      A                      A                      A
 Frequencies --   1438.6265              1446.0258              1450.4578
 Red. masses --      1.7658                 1.2906                 1.3170
 Frc consts  --      2.1532                 1.5900                 1.6325
 IR Inten    --    239.3687                 9.2210                 4.3640

                     73                     74                     75
                      A                      A                      A
 Frequencies --   1471.2575              1500.8770              1515.3340
 Red. masses --      1.1882                 1.0951                 1.0658
 Frc consts  --      1.5153                 1.4534                 1.4420
 IR Inten    --     17.3974                24.8428                 1.7549

                     76                     77                     78
                      A                      A                      A
 Frequencies --   1529.3495              1533.7736              1538.4160
 Red. masses --      1.0576                 1.0515                 1.0922
 Frc consts  --      1.4575                 1.4574                 1.5230
 IR Inten    --      6.3094                 5.2984                13.9420

                     79                     80                     81
                      A                      A                      A
 Frequencies --   1544.7475              1548.3065              1556.6470
 Red. masses --      1.0543                 1.0948                 1.0527
 Frc consts  --      1.4823                 1.5463                 1.5030
 IR Inten    --      3.6191                 0.8999                 3.4413

                     82                     83                     84
                      A                      A                      A
 Frequencies --   1777.0013              1833.0416              1867.8035
 Red. masses --     10.8895                 9.6650                12.1642
 Frc consts  --     20.2597                19.1335                25.0032
 IR Inten    --    218.0580               142.5232               487.0158

                     85                     86                     87
                      A                      A                      A
 Frequencies --   2955.3497              3023.1389              3034.2712
 Red. masses --      1.0834                 1.0649                 1.0637
 Frc consts  --      5.5752                 5.7340                 5.7699
 IR Inten    --     63.1115                27.1171                51.4432

                     88                     89                     90
                      A                      A                      A
 Frequencies --   3061.1320              3064.1963              3070.5807
 Red. masses --      1.0385                 1.0421                 1.0973
 Frc consts  --      5.7336                 5.7648                 6.0957
 IR Inten    --     31.0185                11.3664                42.1062

                     91                     92                     93
                      A                      A                      A
 Frequencies --   3075.3034              3086.2417              3101.8661
 Red. masses --      1.0697                 1.0964                 1.0610
 Frc consts  --      5.9608                 6.1528                 6.0149
 IR Inten    --     28.8820                 4.8648                41.1865

                     94                     95                     96
                      A                      A                      A
 Frequencies --   3102.0909              3123.8433              3124.4757
 Red. masses --      1.0604                 1.1002                 1.0988
 Frc consts  --      6.0119                 6.3255                 6.3201
 IR Inten    --      8.2225                53.2890                11.7402

                     97                     98                     99
                      A                      A                      A
 Frequencies --   3153.4824              3155.8267              3161.1493
 Red. masses --      1.1010                 1.0985                 1.1041
 Frc consts  --      6.4510                 6.4458                 6.5003
 IR Inten    --      9.3129                 6.0822                 1.9713

                    100                    101                    102
                      A                      A                      A
 Frequencies --   3165.4397              3169.1629              3685.9851
 Red. masses --      1.0993                 1.1093                 1.0642
 Frc consts  --      6.4897                 6.5641                 8.5185
 IR Inten    --     21.7194                22.2739                44.5478

 - Thermochemistry -
 -------------------
 Temperature   298.150 Kelvin.  Pressure   1.00000 Atm.
 Atom     1 has atomic number  6 and mass  12.00000

 Molecular mass:   258.12157 amu.
 Principal axes and moments of inertia in atomic units:
                           1         2         3
     Eigenvalues --  3223.548164420.789145581.39199
           X            0.99992   0.00229  -0.01213
           Y           -0.00258   0.99970  -0.02443
           Z            0.01207   0.02446   0.99963
 This molecule is an asymmetric top.
 Rotational symmetry number  1.
 Warning -- assumption of classical behavior for rotation
           may cause significant error
 Rotational temperatures (Kelvin)      0.02687     0.01959     0.01552
 Rotational constants (GHZ):           0.55986     0.40824     0.32335
 Zero-point vibrational energy     793723.8 (Joules/Mol)
                                  189.70454 (Kcal/Mol)
 Warning -- explicit consideration of  27 degrees of freedom as
           vibrations may cause significant error
 Vibrational temperatures:     45.87    61.47   100.68   118.32   142.06
          (Kelvin)            153.15   174.19   191.87   207.62   229.22
                              296.11   306.12   318.08   358.60   372.96
                              407.41   460.45   468.74   486.04   522.25
                              590.45   610.09   672.75   713.53   729.02
                              844.08   873.49   903.56   940.51   967.27
                             1002.59  1044.80  1086.52  1099.18  1131.91
                             1155.67  1213.32  1262.78  1293.36  1383.32
                             1405.35  1429.50  1446.61  1466.17  1483.90
                             1504.58  1540.20  1607.15  1638.72  1649.93
                             1660.82  1688.21  1710.15  1745.36  1774.78
                             1802.17  1809.10  1841.97  1893.98  1911.74
                             1929.72  1958.25  1971.47  2000.59  2019.78
                             2020.39  2049.36  2052.14  2066.32  2069.86
                             2080.51  2086.89  2116.81  2159.43  2180.23
                             2200.39  2206.76  2213.44  2222.55  2227.67
                             2239.67  2556.71  2637.34  2687.35  4252.09
                             4349.62  4365.64  4404.29  4408.69  4417.88
                             4424.68  4440.41  4462.89  4463.22  4494.51
                             4495.42  4537.16  4540.53  4548.19  4554.36
                             4559.72  5303.31

 Zero-point correction=                           0.302313 (Hartree/Particle)
 Thermal correction to Energy=                    0.320441
 Thermal correction to Enthalpy=                  0.321386
 Thermal correction to Gibbs Free Energy=         0.256056
 Sum of electronic and zero-point Energies=           -915.426655
 Sum of electronic and thermal Energies=              -915.408527
 Sum of electronic and thermal Enthalpies=            -915.407583
 Sum of electronic and thermal Free Energies=         -915.472912

                     E (Thermal)             CV                S
                      KCal/Mol        Cal/Mol-Kelvin    Cal/Mol-Kelvin
 Total                  201.080             67.446            137.498
 Electronic               0.000              0.000              0.000
 Translational            0.889              2.981             42.545
 Rotational               0.889              2.981             32.742
 Vibrational            199.303             61.484             62.211
 Vibration     1          0.594              1.983              5.709
 Vibration     2          0.595              1.980              5.129
 Vibration     3          0.598              1.968              4.154
 Vibration     4          0.600              1.961              3.837
 Vibration     5          0.604              1.950              3.479
 Vibration     6          0.605              1.944              3.333
 Vibration     7          0.609              1.932              3.083
 Vibration     8          0.613              1.920              2.897
 Vibration     9          0.616              1.909              2.746
 Vibration    10          0.621              1.892              2.558
 Vibration    11          0.640              1.832              2.081
 Vibration    12          0.644              1.821              2.020
 Vibration    13          0.648              1.809              1.950
 Vibration    14          0.662              1.764              1.736
 Vibration    15          0.668              1.747              1.667
 Vibration    16          0.682              1.705              1.514
 Vibration    17          0.706              1.635              1.310
 Vibration    18          0.710              1.624              1.281
 Vibration    19          0.718              1.600              1.222
 Vibration    20          0.737              1.548              1.109
 Vibration    21          0.775              1.448              0.925
 Vibration    22          0.786              1.418              0.878
 Vibration    23          0.825              1.322              0.744
 Vibration    24          0.851              1.259              0.668
 Vibration    25          0.862              1.235              0.642
 Vibration    26          0.944              1.060              0.473
 Vibration    27          0.966              1.017              0.438

                           ! Non-Optimized Parameters !
 Normal termination of Gaussian 16 at Fri Dec 11 20:55:55 2020.

 ----------------------------------------------------------------------
 # B3LYP/6-311++G(d,p) empiricaldispersion=gd3bj scf=xqc pop=npa geom=c
 heck
 ----------------------------------------------------------------------

 --------------------------------------
 CID_54925494_JID_8373_Energie_neutraal
 --------------------------------------
 Structure from the checkpoint file:  "JID_8373.chk"
 Charge =  0 Multiplicity = 1

 SCF Done:  E(RB3LYP) =  -916.001183929     A.U. after   15 cycles
 Normal termination of Gaussian 16 at Fri Dec 11 21:02:16 2020.

 ----------------------------------------------------------------------
 # B3LYP/6-311++G(d,p) empiricaldispersion=gd3bj scf=xqc pop=npa geom=c
 heck
 ----------------------------------------------------------------------

 ------------------------------------
 CID_54925494_JID_8373_Energie_kation
 ------------------------------------
 Structure from the checkpoint file:  "JID_8373.chk"
 Charge =  1 Multiplicity = 2

 SCF Done:  E(UB3LYP) =  -915.717748487     A.U. after   22 cycles
 Normal termination of Gaussian 16 at Fri Dec 11 21:14:57 2020.
 Gaussian 16:  ES64L-G16RevA.03 25-Dec-2016

 ----------------------------------------------------------------------
 # B3LYP/6-311++G(d,p) empiricaldispersion=gd3bj scf=xqc pop=npa geom=c
 heck
 ----------------------------------------------------------------------

 -----------------------------------
 CID_54925494_JID_8373_Energie_anion
 -----------------------------------
 Structure from the checkpoint file:  "JID_8373.chk"
 Charge = -1 Multiplicity = 2

                         Standard orientation:
 ---------------------------------------------------------------------
 Center     Atomic      Atomic             Coordinates (Angstroms)
 Number     Number       Type             X           Y           Z
 ---------------------------------------------------------------------
      1          6           0        1.652294   -0.818020    2.069788
      2          6           0        2.549017    0.243410    1.432050
      3          6           0        2.676525    0.179382   -0.107244
      4          6           0        3.375586   -1.103238   -0.566300
      5          7           0        1.408543    0.419473   -0.812284
      6          6           0        0.751232   -0.582965   -1.625156
      7          6           0       -0.082170   -1.555497   -0.783604
      8          8           0        0.347701   -2.636176   -0.411605
      9          7           0       -1.334760   -1.141711   -0.334687
     10          6           0       -2.012973   -1.860751    0.740792
     11          6           0       -2.987506   -0.781564    1.220090
     12          8           0       -3.157557    0.081128    0.074393
     13          6           0       -2.091195   -0.040820   -0.749656
     14          8           0       -1.898167    0.687229   -1.694310
     15          6           0        0.914216    1.762216   -0.826171
     16          6           0       -0.066924    2.145199    0.282625
     17          8           0       -0.548935    1.416608    1.124593
     18          8           0       -0.366131    3.461064    0.208383
     19          1           0        0.617663   -0.665698    1.757265
     20          1           0        1.687024   -0.737734    3.162251
     21          1           0        1.953362   -1.833582    1.796189
     22          1           0        2.175144    1.235913    1.713149
     23          1           0        3.565984    0.175587    1.843285
     24          1           0        3.341490    1.015675   -0.384920
     25          1           0        2.765651   -1.993311   -0.394146
     26          1           0        3.626999   -1.058710   -1.631212
     27          1           0        4.311124   -1.213938   -0.008811
     28          1           0        0.116077   -0.083957   -2.357253
     29          1           0        1.474555   -1.205457   -2.156000
     30          1           0       -2.518046   -2.751804    0.352071
     31          1           0       -1.294698   -2.168977    1.501050
     32          1           0       -3.969231   -1.163936    1.500836
     33          1           0       -2.563966   -0.181743    2.029782
     34          1           0        1.749522    2.475358   -0.767414
     35          1           0        0.390324    1.976878   -1.765283
     36          1           0       -1.029365    3.632147    0.903038
 ---------------------------------------------------------------------

 SCF Done:  E(UB3LYP) =  -915.990212814     A.U. after   33 cycles
 SCF Done:  E(UB3LYP) =  -915.990212814     a.u. after    1 cycles

 The electronic state is 2-A.
 Alpha  occ. eigenvalues --  -19.07553 -19.07477 -19.02150 -19.01311 -19.00347
 Alpha  occ. eigenvalues --  -14.26871 -14.21586 -10.23414 -10.21079 -10.17805
 Alpha  occ. eigenvalues --  -10.14113 -10.12530 -10.11941 -10.11086 -10.10965
 Alpha  occ. eigenvalues --  -10.06568 -10.06426 -10.04986  -1.03044  -1.01669
 Alpha  occ. eigenvalues --   -0.95508  -0.94045  -0.92697  -0.84783  -0.83787
 Alpha  occ. eigenvalues --   -0.69865  -0.68102  -0.66178  -0.63041  -0.60391
 Alpha  occ. eigenvalues --   -0.57574  -0.55579  -0.53894  -0.50934  -0.46798
 Alpha  occ. eigenvalues --   -0.45335  -0.43606  -0.42067  -0.40731  -0.40036
 Alpha  occ. eigenvalues --   -0.39637  -0.38966  -0.37837  -0.36473  -0.35982
 Alpha  occ. eigenvalues --   -0.35594  -0.34326  -0.33653  -0.33609  -0.33106
 Alpha  occ. eigenvalues --   -0.32418  -0.30756  -0.30353  -0.29617  -0.28854
 Alpha  occ. eigenvalues --   -0.28762  -0.27700  -0.27243  -0.26579  -0.24368
 Alpha  occ. eigenvalues --   -0.24060  -0.23481  -0.22762  -0.21317  -0.20008
 Alpha  occ. eigenvalues --   -0.19479  -0.17771  -0.17722  -0.11428   0.04233
 Alpha virt. eigenvalues --    0.05955   0.06355   0.06691   0.07786   0.08278
 Alpha virt. eigenvalues --    0.08893   0.08984   0.09217   0.10014   0.10755
 Alpha virt. eigenvalues --    0.11392   0.11774   0.11913   0.12436   0.13205

  Beta  occ. eigenvalues --  -19.07513 -19.07469 -19.02136 -19.01286 -19.00235
  Beta  occ. eigenvalues --  -14.26895 -14.21569 -10.23360 -10.21078 -10.17678
  Beta  occ. eigenvalues --  -10.14078 -10.12514 -10.11923 -10.11077 -10.10962
  Beta  occ. eigenvalues --  -10.06557 -10.06414 -10.04975  -1.02996  -1.01618
  Beta  occ. eigenvalues --   -0.95310  -0.94004  -0.92655  -0.84741  -0.83757
  Beta  occ. eigenvalues --   -0.69835  -0.68028  -0.66120  -0.63001  -0.60306
  Beta  occ. eigenvalues --   -0.57507  -0.55502  -0.53849  -0.50874  -0.46707
  Beta  occ. eigenvalues --   -0.45273  -0.43524  -0.42008  -0.40689  -0.39997
  Beta  occ. eigenvalues --   -0.39580  -0.38889  -0.37800  -0.36415  -0.35903
  Beta  occ. eigenvalues --   -0.35529  -0.34231  -0.33601  -0.33493  -0.33058
  Beta  occ. eigenvalues --   -0.32309  -0.30718  -0.30302  -0.29557  -0.28831
  Beta  occ. eigenvalues --   -0.28650  -0.27631  -0.27213  -0.26308  -0.24337
  Beta  occ. eigenvalues --   -0.24038  -0.23445  -0.22736  -0.21238  -0.19974
  Beta  occ. eigenvalues --   -0.19428  -0.17668  -0.17608  -0.11386
  Beta virt. eigenvalues --    0.06359   0.07132   0.07424   0.07626   0.07918
  Beta virt. eigenvalues --    0.08683   0.09026   0.09305   0.09627   0.10224
  Beta virt. eigenvalues --    0.10839   0.11758   0.11913   0.12165   0.12509

 Mulliken charges and spin densities:
               1          2
     1  C   -0.738326   0.092241
     2  C    0.259948  -0.394858
     3  C   -0.191786   0.170557
     4  C   -0.264940  -0.367549
     5  N    0.180685   0.053933
     6  C   -0.404887  -0.172522
     7  C   -0.021594   0.122089
     8  O   -0.238868   0.047736
     9  N    0.048967   0.019670
    10  C    0.119411  -0.085681
    11  C    0.751066  -1.195716
    12  O   -0.069119   0.045580
    13  C    0.119758  -0.116367
    14  O   -0.281197   0.015627
    15  C    0.795327  -1.136439
    16  C   -0.569397   0.315692
    17  O   -0.150119  -0.024230
    18  O   -0.084859   0.026529
    19  H    0.981204  -0.792778
    20  H   -0.161506   0.302675
    21  H    0.063809   0.086093
    22  H   -0.112274   0.261727
    23  H   -0.003512   0.154249
    24  H   -0.215549   0.380119
    25  H    0.120491   0.060425
    26  H    0.051731   0.091461
    27  H    0.003485   0.141072
    28  H    0.105645   0.092697
    29  H    0.181220  -0.006799
    30  H   -0.165478   0.367325
    31  H   -0.069089   0.255512
    32  H   -0.675143   0.866606
    33  H   -0.184513   0.403716
    34  H   -0.140292   0.337292
    35  H    0.303699  -0.039015
    36  H   -0.344000   0.621330
 Sum of Mulliken charges =  -1.00000   1.00000

 Dipole moment (field-independent basis, Debye):
    X=              2.9721    Y=             -1.3860    Z=             -2.5319  Tot=              4.1430
 Quadrupole moment (field-independent basis, Debye-Ang):
   XX=           -172.3046   YY=           -161.2153   ZZ=           -140.3233
   XY=             -3.4917   XZ=              3.2126   YZ=              0.4500

 Summary of Natural Population Analysis:

                                       Natural Population
                Natural  -----------------------------------------------
    Atom  No    Charge         Core      Valence    Rydberg      Total
 -----------------------------------------------------------------------
      C    1   -0.29238      0.99965     2.28645    0.00628     3.29238
      C    2   -0.19225      0.99961     2.18415    0.00848     3.19225
      C    3    0.00683      0.99958     1.98058    0.01301     2.99317
      C    4   -0.30026      0.99964     2.29412    0.00650     3.30026
      N    5   -0.28376      0.99968     2.76905    0.01502     3.78376
      C    6   -0.12228      0.99956     2.11272    0.01000     3.12228
      C    7    0.37061      0.99967     1.60686    0.02286     2.62939
      O    8   -0.29878      0.99988     3.29352    0.00539     4.29878
      N    9   -0.27589      0.99959     2.76642    0.00988     3.77589
      C   10   -0.09334      0.99963     2.08278    0.01092     3.09334
      C   11   -0.01432      0.99958     2.00363    0.01111     3.01432
      O   12   -0.26930      0.99986     3.26184    0.00760     4.26930
      C   13    0.48262      0.99970     1.49053    0.02715     2.51738
      O   14   -0.31375      0.99986     3.30851    0.00538     4.31375
      C   15   -0.13073      0.99954     2.11952    0.01167     3.13073
      C   16    0.40571      0.99973     1.56871    0.02584     2.59429
      O   17   -0.31480      0.99986     3.30710    0.00783     4.31480
      O   18   -0.34479      0.99987     3.33830    0.00661     4.34479
      H   19    0.10592      0.00000     0.39235    0.00173     0.39408
      H   20    0.09632      0.00000     0.40297    0.00071     0.40368
      H   21    0.09830      0.00000     0.40084    0.00086     0.40170
      H   22    0.09715      0.00000     0.40143    0.00142     0.40285
      H   23    0.09153      0.00000     0.40741    0.00106     0.40847
      H   24    0.08827      0.00000     0.41008    0.00165     0.41173
      H   25    0.11305      0.00000     0.38588    0.00107     0.38695
      H   26    0.09804      0.00000     0.40116    0.00080     0.40196
      H   27    0.10151      0.00000     0.39777    0.00072     0.39849
      H   28    0.11623      0.00000     0.38257    0.00121     0.38377
      H   29    0.10164      0.00000     0.39719    0.00117     0.39836
      H   30    0.09836      0.00000     0.40029    0.00135     0.40164
      H   31    0.11161      0.00000     0.38733    0.00106     0.38839
      H   32    0.09670      0.00000     0.39997    0.00333     0.40330
      H   33    0.09689      0.00000     0.40075    0.00237     0.40311
      H   34    0.10822      0.00000     0.39038    0.00140     0.39178
      H   35    0.11678      0.00000     0.38210    0.00112     0.38322
      H   36    0.24434      0.00000     0.24831    0.00736     0.25566
 =======================================================================
   * Total *    0.00000     17.99450    50.76359    0.24191    69.00000

 Normal termination of Gaussian 16 at Fri Dec 11 21:34:13 2020.
