 Gaussian 16, Revision A.03,

 -----------------------------------------------------------
 # opt freq B3LYP/6-31G(d) empiricaldispersion=gd3bj scf=xqc
 -----------------------------------------------------------

 -------------------------------
 CID_151311854_JID_5856_neutraal
 -------------------------------
 Symbolic Z-matrix:
 Charge =  0 Multiplicity = 1

 SCF Done:  E(RB3LYP) =  -988.222408437     A.U. after   16 cycles
 SCF Done:  E(RB3LYP) =  -988.233971918     A.U. after   16 cycles
 SCF Done:  E(RB3LYP) =  -988.239383325     A.U. after   16 cycles
 SCF Done:  E(RB3LYP) =  -988.239809493     A.U. after   15 cycles
 SCF Done:  E(RB3LYP) =  -988.241298224     A.U. after   15 cycles
 SCF Done:  E(RB3LYP) =  -988.241931059     A.U. after   13 cycles
 SCF Done:  E(RB3LYP) =  -988.242065786     A.U. after   13 cycles
 SCF Done:  E(RB3LYP) =  -988.242125682     A.U. after   12 cycles
 SCF Done:  E(RB3LYP) =  -988.242141245     A.U. after   11 cycles
 SCF Done:  E(RB3LYP) =  -988.242145430     A.U. after   10 cycles
 SCF Done:  E(RB3LYP) =  -988.242146090     A.U. after    9 cycles
 SCF Done:  E(RB3LYP) =  -988.242146275     A.U. after    8 cycles
 Optimization completed.
    -- Stationary point found.
 Normal termination of Gaussian 16 at Thu Dec 10 17:13:19 2020.

 --------------------------------------------------------------------
 #N Geom=AllCheck Guess=TCheck SCRF=Check GenChk RB3LYP/6-31G(d) Freq
 --------------------------------------------------------------------

 Structure from the checkpoint file:  "JID_5856.chk"
 -------------------------------
 CID_151311854_JID_5856_neutraal
 -------------------------------
 Charge =  0 Multiplicity = 1

 SCF Done:  E(RB3LYP) =  -988.242146275     A.U. after    1 cycles

  Exact polarizability: 214.670 -13.288 165.360   9.960   5.267  87.511
 Approx polarizability: 346.043 -30.727 273.309  27.124  19.397 149.050

                      1                      2                      3
                      A                      A                      A
 Frequencies --     39.6664                68.8164                78.3395
 Red. masses --      9.8218                 4.3490                 6.4796
 Frc consts  --      0.0091                 0.0121                 0.0234
 IR Inten    --      1.1808                 0.5461                 0.0746

                      4                      5                      6
                      A                      A                      A
 Frequencies --    106.9418               139.0313               176.6328
 Red. masses --      2.6636                 4.5749                 6.8850
 Frc consts  --      0.0179                 0.0521                 0.1266
 IR Inten    --      0.3830                 0.4333                 0.7028

                      7                      8                      9
                      A                      A                      A
 Frequencies --    207.0414               253.7683               281.5838
 Red. masses --      7.7549                 3.3375                 7.1395
 Frc consts  --      0.1959                 0.1266                 0.3335
 IR Inten    --      0.2526                 2.0202                 0.9802

                     10                     11                     12
                      A                      A                      A
 Frequencies --    317.4112               321.4341               405.1337
 Red. masses --      1.7771                 4.3447                 4.2413
 Frc consts  --      0.1055                 0.2645                 0.4101
 IR Inten    --      0.0321                 1.3040                 0.5767

                     13                     14                     15
                      A                      A                      A
 Frequencies --    441.7976               445.2742               470.8973
 Red. masses --      6.0535                 4.2295                 3.5336
 Frc consts  --      0.6962                 0.4941                 0.4617
 IR Inten    --      0.6078                 1.0029                 0.3368

                     16                     17                     18
                      A                      A                      A
 Frequencies --    509.0906               521.1981               563.4079
 Red. masses --      3.5091                 3.9588                13.1569
 Frc consts  --      0.5358                 0.6336                 2.4607
 IR Inten    --      2.4671                 3.3398                 7.5936

                     19                     20                     21
                      A                      A                      A
 Frequencies --    613.5228               615.5536               650.6786
 Red. masses --      2.5364                 5.0587                 6.5363
 Frc consts  --      0.5625                 1.1293                 1.6305
 IR Inten    --      1.2541                 8.0240                 2.7375

                     22                     23                     24
                      A                      A                      A
 Frequencies --    724.0905               733.8269               787.7678
 Red. masses --      4.4424                 3.5465                 5.3183
 Frc consts  --      1.3723                 1.1252                 1.9446
 IR Inten    --     17.9231                11.0509                 7.5631

                     25                     26                     27
                      A                      A                      A
 Frequencies --    800.2979               829.5067               855.6040
 Red. masses --      1.5304                 3.2970                 1.6547
 Frc consts  --      0.5775                 1.3366                 0.7137
 IR Inten    --     19.3005                 9.0974                 4.1022

                     28                     29                     30
                      A                      A                      A
 Frequencies --    894.0005               920.2955               943.4724
 Red. masses --      2.5690                 1.3808                 1.4200
 Frc consts  --      1.2097                 0.6890                 0.7447
 IR Inten    --      0.6389                 8.7599                 0.1227

                     31                     32                     33
                      A                      A                      A
 Frequencies --    961.8447               980.8422              1004.4478
 Red. masses --      3.0477                 1.3019                 2.4057
 Frc consts  --      1.6612                 0.7379                 1.4300
 IR Inten    --      8.7323                 2.4840                 6.5215

                     34                     35                     36
                      A                      A                      A
 Frequencies --   1062.4885              1095.6137              1116.8264
 Red. masses --      3.6454                 2.1306                 1.9082
 Frc consts  --      2.4246                 1.5068                 1.4023
 IR Inten    --     30.7016                20.9510                 3.2650

                     37                     38                     39
                      A                      A                      A
 Frequencies --   1126.6558              1160.8252              1173.5237
 Red. masses --      2.1441                 4.3307                 1.2111
 Frc consts  --      1.6035                 3.4383                 0.9826
 IR Inten    --      5.4589                99.4194                 6.5106

                     40                     41                     42
                      A                      A                      A
 Frequencies --   1200.6174              1209.8803              1217.7052
 Red. masses --      1.3298                 1.8561                 1.7654
 Frc consts  --      1.1294                 1.6008                 1.5423
 IR Inten    --      1.0148                 9.0351                 4.9661

                     43                     44                     45
                      A                      A                      A
 Frequencies --   1253.2478              1294.3129              1298.9193
 Red. masses --      1.7018                 1.5239                 4.7416
 Frc consts  --      1.5748                 1.5041                 4.7134
 IR Inten    --      5.4799                97.7299               204.2986

                     46                     47                     48
                      A                      A                      A
 Frequencies --   1307.1091              1319.3186              1343.4077
 Red. masses --      3.8919                 1.2811                 3.9724
 Frc consts  --      3.9177                 1.3138                 4.2240
 IR Inten    --    313.6073                22.5267                 5.4971

                     49                     50                     51
                      A                      A                      A
 Frequencies --   1382.1316              1390.2102              1395.6556
 Red. masses --      1.5159                 1.5433                 1.4799
 Frc consts  --      1.7062                 1.7573                 1.6984
 IR Inten    --      2.0243                 3.9643                 2.3168

                     52                     53                     54
                      A                      A                      A
 Frequencies --   1413.1962              1483.7915              1500.3351
 Red. masses --      1.5658                 2.3581                 1.6192
 Frc consts  --      1.8425                 3.0588                 2.1475
 IR Inten    --      9.7340                20.6170                13.3769

                     55                     56                     57
                      A                      A                      A
 Frequencies --   1506.9643              1513.3683              1522.2699
 Red. masses --      1.1420                 1.5857                 1.0892
 Frc consts  --      1.5280                 2.1398                 1.4871
 IR Inten    --      4.9399                13.8934                 4.4474

                     58                     59                     60
                      A                      A                      A
 Frequencies --   1532.2709              1634.5329              1645.1523
 Red. masses --      1.1020                 6.0856                 5.4688
 Frc consts  --      1.5244                 9.5795                 8.7207
 IR Inten    --      0.5252                 9.1270                10.4847

                     61                     62                     63
                      A                      A                      A
 Frequencies --   2286.9181              3019.2177              3034.0490
 Red. masses --     13.9896                 1.0688                 1.0686
 Frc consts  --     43.1080                 5.7403                 5.7957
 IR Inten    --    536.2499                21.3226                18.2601

                     64                     65                     66
                      A                      A                      A
 Frequencies --   3040.0035              3048.0983              3068.5220
 Red. masses --      1.0629                 1.0638                 1.0928
 Frc consts  --      5.7877                 5.8235                 6.0626
 IR Inten    --     26.7550                15.5405                37.3098

                     67                     68                     69
                      A                      A                      A
 Frequencies --   3086.3429              3088.2145              3093.5635
 Red. masses --      1.0950                 1.0987                 1.1037
 Frc consts  --      6.1453                 6.1734                 6.2231
 IR Inten    --     32.6222                57.8486                40.5759

                     70                     71                     72
                      A                      A                      A
 Frequencies --   3177.0306              3205.2068              3228.8150
 Red. masses --      1.0882                 1.0917                 1.0936
 Frc consts  --      6.4715                 6.6079                 6.7172
 IR Inten    --     12.1686                18.7143                 5.5631

 - Thermochemistry -
 -------------------
 Temperature   298.150 Kelvin.  Pressure   1.00000 Atm.
 Atom     1 has atomic number  6 and mass  12.00000

 Molecular mass:   217.06737 amu.
 Principal axes and moments of inertia in atomic units:
                           1         2         3
     Eigenvalues --  2079.339644620.659656203.42914
           X            0.99970   0.02461  -0.00109
           Y           -0.02462   0.99950  -0.01980
           Z            0.00061   0.01982   0.99980
 This molecule is an asymmetric top.
 Rotational symmetry number  1.
 Warning -- assumption of classical behavior for rotation
           may cause significant error
 Rotational temperatures (Kelvin)      0.04165     0.01874     0.01396
 Rotational constants (GHZ):           0.86794     0.39058     0.29093
 Zero-point vibrational energy     539154.1 (Joules/Mol)
                                  128.86093 (Kcal/Mol)
 Warning -- explicit consideration of  20 degrees of freedom as
           vibrations may cause significant error
 Vibrational temperatures:     57.07    99.01   112.71   153.87   200.04
          (Kelvin)            254.14   297.89   365.12   405.14   456.68
                              462.47   582.90   635.65   640.65   677.52
                              732.47   749.89   810.62   882.72   885.64
                              936.18  1041.80  1055.81  1133.42  1151.45
                             1193.48  1231.02  1286.27  1324.10  1357.45
                             1383.88  1411.21  1445.18  1528.68  1576.34
                             1606.86  1621.01  1670.17  1688.44  1727.42
                             1740.75  1752.01  1803.14  1862.23  1868.86
                             1880.64  1898.21  1932.86  1988.58  2000.20
                             2008.04  2033.27  2134.85  2158.65  2168.19
                             2177.40  2190.21  2204.60  2351.73  2367.01
                             3290.37  4343.98  4365.32  4373.89  4385.53
                             4414.92  4440.56  4443.25  4450.95  4571.04
                             4611.58  4645.54

 Zero-point correction=                           0.205353 (Hartree/Particle)
 Thermal correction to Energy=                    0.218086
 Thermal correction to Enthalpy=                  0.219030
 Thermal correction to Gibbs Free Energy=         0.165153
 Sum of electronic and zero-point Energies=           -988.036793
 Sum of electronic and thermal Energies=              -988.024061
 Sum of electronic and thermal Enthalpies=            -988.023116
 Sum of electronic and thermal Free Energies=         -988.076993

                     E (Thermal)             CV                S
                      KCal/Mol        Cal/Mol-Kelvin    Cal/Mol-Kelvin
 Total                  136.851             48.840            113.394
 Electronic               0.000              0.000              0.000
 Translational            0.889              2.981             42.028
 Rotational               0.889              2.981             32.455
 Vibrational            135.073             42.878             38.911
 Vibration     1          0.594              1.981              5.276
 Vibration     2          0.598              1.969              4.187
 Vibration     3          0.600              1.964              3.932
 Vibration     4          0.606              1.944              3.324
 Vibration     5          0.615              1.914              2.817
 Vibration     6          0.628              1.871              2.364
 Vibration     7          0.641              1.830              2.070
 Vibration     8          0.665              1.756              1.704
 Vibration     9          0.681              1.708              1.524
 Vibration    10          0.704              1.640              1.323
 Vibration    11          0.707              1.632              1.303
 Vibration    12          0.770              1.459              0.944
 Vibration    13          0.802              1.379              0.821
 Vibration    14          0.805              1.371              0.810
 Vibration    15          0.828              1.315              0.735
 Vibration    16          0.864              1.230              0.636
 Vibration    17          0.876              1.203              0.607
 Vibration    18          0.919              1.110              0.517
 Vibration    19          0.973              1.003              0.427
 Vibration    20          0.975              0.999              0.424

                           ! Non-Optimized Parameters !
 Normal termination of Gaussian 16 at Thu Dec 10 17:22:18 2020.

 ----------------------------------------------------------------------
 # B3LYP/6-311++G(d,p) empiricaldispersion=gd3bj scf=xqc pop=npa geom=c
 heck
 ----------------------------------------------------------------------

 ---------------------------------------
 CID_151311854_JID_5856_Energie_neutraal
 ---------------------------------------
 Structure from the checkpoint file:  "JID_5856.chk"
 Charge =  0 Multiplicity = 1

 SCF Done:  E(RB3LYP) =  -988.417275968     A.U. after   17 cycles
 Normal termination of Gaussian 16 at Thu Dec 10 17:26:26 2020.

 ----------------------------------------------------------------------
 # B3LYP/6-311++G(d,p) empiricaldispersion=gd3bj scf=xqc pop=npa geom=c
 heck
 ----------------------------------------------------------------------

 -------------------------------------
 CID_151311854_JID_5856_Energie_kation
 -------------------------------------
 Structure from the checkpoint file:  "JID_5856.chk"
 Charge =  1 Multiplicity = 2

 SCF Done:  E(UB3LYP) =  -988.117427444     A.U. after   29 cycles
 Normal termination of Gaussian 16 at Thu Dec 10 17:33:53 2020.
 Gaussian 16:  ES64L-G16RevA.03 25-Dec-2016

 ----------------------------------------------------------------------
 # B3LYP/6-311++G(d,p) empiricaldispersion=gd3bj scf=xqc pop=npa geom=c
 heck
 ----------------------------------------------------------------------

 ------------------------------------
 CID_151311854_JID_5856_Energie_anion
 ------------------------------------
 Structure from the checkpoint file:  "JID_5856.chk"
 Charge = -1 Multiplicity = 2

                         Standard orientation:
 ---------------------------------------------------------------------
 Center     Atomic      Atomic             Coordinates (Angstroms)
 Number     Number       Type             X           Y           Z
 ---------------------------------------------------------------------
      1          6           0       -3.192545   -1.804063   -0.109718
      2          6           0       -2.025065   -2.179122    0.801528
      3          6           0       -0.735221   -1.523547    0.300119
      4          6           0       -0.882532   -0.037304    0.011999
      5          6           0       -2.160919    0.530350   -0.136628
      6          6           0       -3.431206   -0.296143   -0.029486
      7          6           0       -2.292235    1.906870   -0.359885
      8          6           0       -1.182822    2.742545   -0.412638
      9          6           0        0.084912    2.198414   -0.251767
     10          6           0        0.247990    0.818209   -0.063831
     11          6           0        1.638502    0.322001    0.050985
     12         16           0        2.828988    1.072075    0.921905
     13          7           0        1.844194   -0.846006   -0.700571
     14          7           0        2.982476   -1.358550   -0.654626
     15          7           0        3.963051   -1.921798   -0.706843
     16          1           0       -2.953588   -2.091600   -1.142875
     17          1           0       -4.105192   -2.342551    0.169601
     18          1           0       -2.241244   -1.845669    1.825948
     19          1           0       -1.887099   -3.265553    0.842186
     20          1           0        0.067990   -1.680476    1.027777
     21          1           0       -0.409474   -2.033734   -0.615045
     22          1           0       -4.135383    0.026689   -0.806339
     23          1           0       -3.916033   -0.064039    0.930416
     24          1           0       -3.289585    2.322973   -0.483945
     25          1           0       -1.302375    3.808543   -0.580653
     26          1           0        0.966966    2.827436   -0.287338
 ---------------------------------------------------------------------

 SCF Done:  E(UB3LYP) =  -988.460957504     A.U. after   25 cycles

 The electronic state is 2-A.
 Alpha  occ. eigenvalues --  -88.63301 -14.32964 -14.23869 -14.22236 -10.07614
 Alpha  occ. eigenvalues --  -10.07143 -10.07065 -10.06537 -10.05819 -10.05424
 Alpha  occ. eigenvalues --  -10.05169 -10.04764 -10.04703 -10.04385 -10.03632
 Alpha  occ. eigenvalues --   -7.72114  -5.68428  -5.68130  -5.67656  -1.00027
 Alpha  occ. eigenvalues --   -0.84414  -0.74786  -0.70417  -0.66728  -0.63063
 Alpha  occ. eigenvalues --   -0.62453  -0.58142  -0.52293  -0.51573  -0.49633
 Alpha  occ. eigenvalues --   -0.46693  -0.43447  -0.39276  -0.37537  -0.36866
 Alpha  occ. eigenvalues --   -0.36275  -0.35745  -0.33428  -0.32562  -0.31745
 Alpha  occ. eigenvalues --   -0.31278  -0.28937  -0.28365  -0.27329  -0.26364
 Alpha  occ. eigenvalues --   -0.25384  -0.23578  -0.23260  -0.22766  -0.20962
 Alpha  occ. eigenvalues --   -0.20213  -0.19291  -0.16168  -0.12398  -0.12078
 Alpha  occ. eigenvalues --   -0.09445  -0.05889   0.01666
 Alpha virt. eigenvalues --    0.06996   0.08461   0.09218   0.09486   0.10236
 Alpha virt. eigenvalues --    0.10725   0.10812   0.11557   0.11743   0.12675
 Alpha virt. eigenvalues --    0.12957   0.13823   0.14038   0.14465   0.16233

  Beta  occ. eigenvalues --  -88.63176 -14.32746 -14.23407 -14.22446 -10.07144
  Beta  occ. eigenvalues --  -10.07061 -10.06964 -10.06534 -10.05873 -10.05296
  Beta  occ. eigenvalues --  -10.05176 -10.04810 -10.04743 -10.04234 -10.03518
  Beta  occ. eigenvalues --   -7.72002  -5.68379  -5.67724  -5.67582  -0.99524
  Beta  occ. eigenvalues --   -0.84145  -0.74664  -0.70302  -0.66320  -0.62639
  Beta  occ. eigenvalues --   -0.62348  -0.57748  -0.52226  -0.51194  -0.49473
  Beta  occ. eigenvalues --   -0.46507  -0.43374  -0.39101  -0.36759  -0.36328
  Beta  occ. eigenvalues --   -0.36058  -0.35587  -0.32873  -0.32533  -0.31477
  Beta  occ. eigenvalues --   -0.30760  -0.28710  -0.28224  -0.27298  -0.26255
  Beta  occ. eigenvalues --   -0.24977  -0.23471  -0.22966  -0.22365  -0.20738
  Beta  occ. eigenvalues --   -0.20008  -0.17788  -0.15980  -0.11831  -0.11731
  Beta  occ. eigenvalues --   -0.07719  -0.05560
  Beta virt. eigenvalues --    0.06984   0.07999   0.08462   0.09392   0.09487
  Beta virt. eigenvalues --    0.10512   0.10884   0.10981   0.11717   0.12648
  Beta virt. eigenvalues --    0.12730   0.13203   0.13858   0.14078   0.14528

 Mulliken charges and spin densities:
               1          2
     1  C   -0.306727  -0.000476
     2  C   -0.570470   0.000028
     3  C   -0.711165  -0.012637
     4  C    0.521073   0.088983
     5  C    0.210832  -0.051851
     6  C   -0.515315   0.015299
     7  C   -0.194304   0.117067
     8  C   -0.314064  -0.026255
     9  C   -0.478733   0.088283
    10  C    1.147477  -0.150028
    11  C   -0.760823   0.423921
    12  S   -0.806898   0.300336
    13  N    0.721940  -0.140181
    14  N    0.102174   0.072872
    15  N   -0.600816   0.266180
    16  H    0.113712   0.001020
    17  H    0.141845   0.000611
    18  H    0.120345   0.001276
    19  H    0.142416   0.001184
    20  H    0.202634   0.005593
    21  H    0.211371   0.004685
    22  H    0.132056  -0.000875
    23  H    0.147047  -0.000575
    24  H    0.107953  -0.009047
    25  H    0.124233   0.000188
    26  H    0.112205   0.004400
 Sum of Mulliken charges =  -1.00000   1.00000

 Dipole moment (field-independent basis, Debye):
    X=             -9.1933    Y=             -2.1602    Z=             -1.1626  Tot=              9.5150
 Quadrupole moment (field-independent basis, Debye-Ang):
   XX=           -145.4336   YY=           -112.0459   ZZ=           -107.4726
   XY=              2.3291   XZ=             -4.1327   YZ=             -4.4486

 Summary of Natural Population Analysis:

                                       Natural Population
                Natural  -----------------------------------------------
    Atom  No    Charge         Core      Valence    Rydberg      Total
 -----------------------------------------------------------------------
      C    1   -0.18744      0.99964     2.18099    0.00681     3.18744
      C    2   -0.18541      0.99964     2.17908    0.00669     3.18541
      C    3   -0.20274      0.99961     2.19541    0.00772     3.20274
      C    4    0.02128      0.99939     1.96909    0.01024     2.97872
      C    5   -0.03820      0.99948     2.03073    0.00799     3.03820
      C    6   -0.19102      0.99961     2.18410    0.00731     3.19102
      C    7   -0.07508      0.99953     2.06653    0.00902     3.07508
      C    8   -0.12006      0.99957     2.11130    0.00919     3.12006
      C    9   -0.05948      0.99953     2.05165    0.00830     3.05948
      C   10   -0.04854      0.99943     2.03617    0.01293     3.04854
      C   11    0.12398      0.99956     1.85781    0.01865     2.87602
      S   12   -0.05270      4.99951     3.03911    0.01408     8.05270
      N   13   -0.23446      0.99963     2.71793    0.01690     3.73446
      N   14    0.15031      0.99970     2.33277    0.01723     3.34969
      N   15    0.03565      0.99981     2.45157    0.01297     3.46435
      H   16    0.09238      0.00000     0.40640    0.00123     0.40762
      H   17    0.09105      0.00000     0.40774    0.00121     0.40895
      H   18    0.09092      0.00000     0.40787    0.00121     0.40908
      H   19    0.09325      0.00000     0.40558    0.00117     0.40675
      H   20    0.11041      0.00000     0.38843    0.00117     0.38959
      H   21    0.10735      0.00000     0.39138    0.00127     0.39265
      H   22    0.09662      0.00000     0.40221    0.00117     0.40338
      H   23    0.09436      0.00000     0.40438    0.00127     0.40564
      H   24    0.08724      0.00000     0.41127    0.00149     0.41276
      H   25    0.09269      0.00000     0.40628    0.00103     0.40731
      H   26    0.10766      0.00000     0.39117    0.00117     0.39234
 =======================================================================
   * Total *    0.00003     18.99365    37.82692    0.17940    56.99997

 Normal termination of Gaussian 16 at Thu Dec 10 17:41:02 2020.
