 Gaussian 16, Revision A.03,

 -----------------------------------------------------------
 # opt freq B3LYP/6-31G(d) empiricaldispersion=gd3bj scf=xqc
 -----------------------------------------------------------

 -------------------------------
 CID_115019548_JID_2248_neutraal
 -------------------------------
 Symbolic Z-matrix:
 Charge =  0 Multiplicity = 1

 SCF Done:  E(RB3LYP) =  -954.341428107     A.U. after   14 cycles
 SCF Done:  E(RB3LYP) =  -954.349527324     A.U. after   12 cycles
 SCF Done:  E(RB3LYP) =  -954.350989606     A.U. after   12 cycles
 SCF Done:  E(RB3LYP) =  -954.351294855     A.U. after   12 cycles
 SCF Done:  E(RB3LYP) =  -954.351496144     A.U. after   12 cycles
 SCF Done:  E(RB3LYP) =  -954.351652985     A.U. after   11 cycles
 SCF Done:  E(RB3LYP) =  -954.351813539     A.U. after   11 cycles
 SCF Done:  E(RB3LYP) =  -954.351789189     A.U. after   13 cycles
 SCF Done:  E(RB3LYP) =  -954.352397917     A.U. after   12 cycles
 SCF Done:  E(RB3LYP) =  -954.352715381     A.U. after   12 cycles
 SCF Done:  E(RB3LYP) =  -954.353410974     A.U. after   10 cycles
 SCF Done:  E(RB3LYP) =  -954.353411554     A.U. after    8 cycles
 SCF Done:  E(RB3LYP) =  -954.353411758     A.U. after    8 cycles
 SCF Done:  E(RB3LYP) =  -954.353411809     A.U. after    7 cycles
 SCF Done:  E(RB3LYP) =  -954.353411883     A.U. after    7 cycles
 SCF Done:  E(RB3LYP) =  -954.353411906     A.U. after    7 cycles
 Optimization completed.
    -- Stationary point found.
 Normal termination of Gaussian 16 at Wed Dec  9 17:01:08 2020.

 --------------------------------------------------------------------
 #N Geom=AllCheck Guess=TCheck SCRF=Check GenChk RB3LYP/6-31G(d) Freq
 --------------------------------------------------------------------

 Structure from the checkpoint file:  "JID_2248.chk"
 -------------------------------
 CID_115019548_JID_2248_neutraal
 -------------------------------
 Charge =  0 Multiplicity = 1

 SCF Done:  E(RB3LYP) =  -954.353411906     A.U. after    1 cycles

  Exact polarizability: 122.498   2.992  99.688   1.619   0.606  93.806
 Approx polarizability: 163.815   2.202 152.161   4.673   6.009 141.409

                      1                      2                      3
                      A                      A                      A
 Frequencies --     46.8760                59.1855                85.1834
 Red. masses --      6.3108                 2.6381                 3.4897
 Frc consts  --      0.0082                 0.0054                 0.0149
 IR Inten    --      1.8926                 0.8737                 3.0604

                      4                      5                      6
                      A                      A                      A
 Frequencies --    130.2273               150.0083               186.7493
 Red. masses --      4.8865                 2.5393                 3.1884
 Frc consts  --      0.0488                 0.0337                 0.0655
 IR Inten    --      0.6965                 0.7343                 1.4904

                      7                      8                      9
                      A                      A                      A
 Frequencies --    219.5572               247.8018               259.0283
 Red. masses --      1.7198                 1.6505                 6.0010
 Frc consts  --      0.0488                 0.0597                 0.2372
 IR Inten    --     16.1661                11.1613                 1.2004

                     10                     11                     12
                      A                      A                      A
 Frequencies --    261.5393               300.7747               332.7713
 Red. masses --      1.9196                 2.7564                 2.6138
 Frc consts  --      0.0774                 0.1469                 0.1705
 IR Inten    --     25.6120                 5.0984                 0.1670

                     13                     14                     15
                      A                      A                      A
 Frequencies --    360.6294               393.1407               420.7915
 Red. masses --      3.4024                 2.0707                 2.1471
 Frc consts  --      0.2607                 0.1886                 0.2240
 IR Inten    --     19.6489                 4.1190                 1.1145

                     16                     17                     18
                      A                      A                      A
 Frequencies --    434.7560               443.8834               503.3820
 Red. masses --      3.1216                 2.4138                 2.4804
 Frc consts  --      0.3476                 0.2802                 0.3703
 IR Inten    --     91.8348                12.0059                29.7929

                     19                     20                     21
                      A                      A                      A
 Frequencies --    533.7547               629.3760               698.3341
 Red. masses --      2.5443                 2.5012                 8.0382
 Frc consts  --      0.4271                 0.5838                 2.3096
 IR Inten    --      0.0626                30.3724                79.7635

                     22                     23                     24
                      A                      A                      A
 Frequencies --    722.6210               747.0389               762.8491
 Red. masses --      4.7532                 4.7892                 1.5985
 Frc consts  --      1.4624                 1.5747                 0.5481
 IR Inten    --     39.1967                21.2586                76.9663

                     25                     26                     27
                      A                      A                      A
 Frequencies --    829.7965               874.7008               898.1823
 Red. masses --      2.4158                 2.2721                 1.5801
 Frc consts  --      0.9801                 1.0242                 0.7511
 IR Inten    --     10.7509                 0.4127                13.4991

                     28                     29                     30
                      A                      A                      A
 Frequencies --    909.5397               974.4502               994.6845
 Red. masses --      2.0935                 2.0774                 2.3215
 Frc consts  --      1.0204                 1.1622                 1.3533
 IR Inten    --     44.1750                 2.6673                 4.8107

                     31                     32                     33
                      A                      A                      A
 Frequencies --   1026.2212              1073.9880              1098.9903
 Red. masses --      1.7217                 1.6657                 2.1890
 Frc consts  --      1.0683                 1.1320                 1.5577
 IR Inten    --      9.2983                 3.4699                68.8125

                     34                     35                     36
                      A                      A                      A
 Frequencies --   1111.7340              1132.0933              1139.3324
 Red. masses --      2.1130                 3.9928                 2.3094
 Frc consts  --      1.5387                 3.0150                 1.7662
 IR Inten    --      3.2870                73.2592               105.7638

                     37                     38                     39
                      A                      A                      A
 Frequencies --   1164.2191              1174.6329              1186.1211
 Red. masses --      2.3472                 2.9832                 1.3053
 Frc consts  --      1.8744                 2.4251                 1.0820
 IR Inten    --     12.4246                40.5048                10.9421

                     40                     41                     42
                      A                      A                      A
 Frequencies --   1191.1209              1222.2425              1230.3142
 Red. masses --      1.8008                 1.2980                 1.4930
 Frc consts  --      1.5053                 1.1425                 1.3315
 IR Inten    --     29.7243                12.3244                28.4978

                     43                     44                     45
                      A                      A                      A
 Frequencies --   1243.2807              1253.3614              1311.8450
 Red. masses --      1.3807                 1.4843                 1.4057
 Frc consts  --      1.2575                 1.3738                 1.4253
 IR Inten    --     15.4866                22.1472                 1.0968

                     46                     47                     48
                      A                      A                      A
 Frequencies --   1335.2017              1348.2708              1365.4136
 Red. masses --      1.3705                 1.3195                 1.3077
 Frc consts  --      1.4396                 1.4132                 1.4364
 IR Inten    --      4.9855                20.9940                29.9837

                     49                     50                     51
                      A                      A                      A
 Frequencies --   1400.2722              1403.3671              1447.9015
 Red. masses --      1.3985                 1.5571                 1.4662
 Frc consts  --      1.6156                 1.8068                 1.8110
 IR Inten    --      1.8690                 0.6677                 1.9679

                     52                     53                     54
                      A                      A                      A
 Frequencies --   1463.9766              1494.9324              1503.5948
 Red. masses --      1.0886                 1.1150                 1.2502
 Frc consts  --      1.3746                 1.4682                 1.6654
 IR Inten    --     10.4248                 3.9557                 1.3240

                     55                     56                     57
                      A                      A                      A
 Frequencies --   1510.2932              1513.3997              1520.7712
 Red. masses --      1.1127                 1.1260                 1.1105
 Frc consts  --      1.4954                 1.5195                 1.5132
 IR Inten    --      1.5002                 2.2797                 1.6687

                     58                     59                     60
                      A                      A                      A
 Frequencies --   1528.9274              1532.6400              1537.0336
 Red. masses --      1.0611                 1.0791                 1.0940
 Frc consts  --      1.4614                 1.4934                 1.5228
 IR Inten    --      8.9532                 5.6787                 9.0726

                     61                     62                     63
                      A                      A                      A
 Frequencies --   2902.2625              2914.2023              3007.4478
 Red. masses --      1.0740                 1.0721                 1.0414
 Frc consts  --      5.3301                 5.3646                 5.5495
 IR Inten    --     64.4563               112.7127                53.2635

                     64                     65                     66
                      A                      A                      A
 Frequencies --   3060.9266              3064.2928              3067.9737
 Red. masses --      1.0711                 1.0736                 1.0660
 Frc consts  --      5.9129                 5.9394                 5.9118
 IR Inten    --     47.3481                 6.3675                20.5839

                     67                     68                     69
                      A                      A                      A
 Frequencies --   3071.7850              3087.0546              3094.9907
 Red. masses --      1.0711                 1.0868                 1.0884
 Frc consts  --      5.9547                 6.1023                 6.1426
 IR Inten    --     19.6053                58.6544                23.2400

                     70                     71                     72
                      A                      A                      A
 Frequencies --   3100.8624              3114.5037              3133.2531
 Red. masses --      1.1005                 1.1033                 1.1048
 Frc consts  --      6.2345                 6.3053                 6.3906
 IR Inten    --     24.1872                36.4109                 9.0769

                     73                     74                     75
                      A                      A                      A
 Frequencies --   3137.0467              3516.0223              3632.8367
 Red. masses --      1.0985                 1.0748                 1.0657
 Frc consts  --      6.3691                 7.8288                 8.2870
 IR Inten    --     28.5094                 0.8558                36.4121

 - Thermochemistry -
 -------------------
 Temperature   298.150 Kelvin.  Pressure   1.00000 Atm.
 Atom     1 has atomic number  6 and mass  12.00000

 Molecular mass:   193.07727 amu.
 Principal axes and moments of inertia in atomic units:
                           1         2         3
     Eigenvalues --  1231.821363571.046633834.07042
           X            0.99987   0.01545   0.00340
           Y           -0.01516   0.99718  -0.07349
           Z           -0.00453   0.07343   0.99729
 This molecule is an asymmetric top.
 Rotational symmetry number  1.
 Warning -- assumption of classical behavior for rotation
           may cause significant error
 Rotational temperatures (Kelvin)      0.07031     0.02425     0.02259
 Rotational constants (GHZ):           1.46510     0.50538     0.47071
 Zero-point vibrational energy     602813.6 (Joules/Mol)
                                  144.07591 (Kcal/Mol)
 Warning -- explicit consideration of  19 degrees of freedom as
           vibrations may cause significant error
 Vibrational temperatures:     67.44    85.15   122.56   187.37   215.83
          (Kelvin)            268.69   315.89   356.53   372.68   376.30
                              432.75   478.78   518.87   565.64   605.43
                              625.52   638.65   724.25   767.95   905.53
                             1004.75  1039.69  1074.82  1097.57  1193.89
                             1258.50  1292.28  1308.62  1402.02  1431.13
                             1476.50  1545.23  1581.20  1599.54  1628.83
                             1639.25  1675.05  1690.03  1706.56  1713.76
                             1758.53  1770.15  1788.80  1803.31  1887.45
                             1921.06  1939.86  1964.53  2014.68  2019.13
                             2083.21  2106.34  2150.87  2163.34  2172.98
                             2177.44  2188.05  2199.79  2205.13  2211.45
                             4175.71  4192.89  4327.05  4403.99  4408.83
                             4414.13  4419.61  4441.58  4453.00  4461.45
                             4481.08  4508.05  4513.51  5058.77  5226.84

 Zero-point correction=                           0.229600 (Hartree/Particle)
 Thermal correction to Energy=                    0.242690
 Thermal correction to Enthalpy=                  0.243635
 Thermal correction to Gibbs Free Energy=         0.190054
 Sum of electronic and zero-point Energies=           -954.123812
 Sum of electronic and thermal Energies=              -954.110722
 Sum of electronic and thermal Enthalpies=            -954.109777
 Sum of electronic and thermal Free Energies=         -954.163358

                     E (Thermal)             CV                S
                      KCal/Mol        Cal/Mol-Kelvin    Cal/Mol-Kelvin
 Total                  152.291             49.299            112.771
 Electronic               0.000              0.000              0.000
 Translational            0.889              2.981             41.679
 Rotational               0.889              2.981             31.201
 Vibrational            150.513             43.337             39.891
 Vibration     1          0.595              1.979              4.945
 Vibration     2          0.597              1.974              4.484
 Vibration     3          0.601              1.959              3.768
 Vibration     4          0.612              1.923              2.943
 Vibration     5          0.618              1.903              2.672
 Vibration     6          0.632              1.858              2.260
 Vibration     7          0.647              1.811              1.963
 Vibration     8          0.661              1.766              1.746
 Vibration     9          0.668              1.747              1.668
 Vibration    10          0.669              1.743              1.651
 Vibration    11          0.693              1.672              1.413
 Vibration    12          0.715              1.610              1.247
 Vibration    13          0.735              1.553              1.119
 Vibration    14          0.760              1.485              0.988
 Vibration    15          0.783              1.425              0.889
 Vibration    16          0.795              1.394              0.843
 Vibration    17          0.803              1.374              0.814
 Vibration    18          0.859              1.243              0.650
 Vibration    19          0.889              1.175              0.579

 Optimization completed.
    -- Stationary point found.
 Normal termination of Gaussian 16 at Wed Dec  9 17:08:39 2020.

 ----------------------------------------------------------------------
 # B3LYP/6-311++G(d,p) empiricaldispersion=gd3bj scf=xqc pop=npa geom=c
 heck
 ----------------------------------------------------------------------

 ---------------------------------------
 CID_115019548_JID_2248_Energie_neutraal
 ---------------------------------------
 Structure from the checkpoint file:  "JID_2248.chk"
 Charge =  0 Multiplicity = 1

 SCF Done:  E(RB3LYP) =  -954.556169411     A.U. after   15 cycles
 Normal termination of Gaussian 16 at Wed Dec  9 17:12:41 2020.

 ----------------------------------------------------------------------
 # B3LYP/6-311++G(d,p) empiricaldispersion=gd3bj scf=xqc pop=npa geom=c
 heck
 ----------------------------------------------------------------------

 -------------------------------------
 CID_115019548_JID_2248_Energie_kation
 -------------------------------------
 Structure from the checkpoint file:  "JID_2248.chk"
 Charge =  1 Multiplicity = 2

 SCF Done:  E(UB3LYP) =  -954.247619328     A.U. after   26 cycles
 Normal termination of Gaussian 16 at Wed Dec  9 17:21:31 2020.
 Gaussian 16:  ES64L-G16RevA.03 25-Dec-2016

 ----------------------------------------------------------------------
 # B3LYP/6-311++G(d,p) empiricaldispersion=gd3bj scf=xqc pop=npa geom=c
 heck
 ----------------------------------------------------------------------

 ------------------------------------
 CID_115019548_JID_2248_Energie_anion
 ------------------------------------
 Structure from the checkpoint file:  "JID_2248.chk"
 Charge = -1 Multiplicity = 2

                         Standard orientation:
 ---------------------------------------------------------------------
 Center     Atomic      Atomic             Coordinates (Angstroms)
 Number     Number       Type             X           Y           Z
 ---------------------------------------------------------------------
      1          6           0        0.057819    2.261849   -0.929247
      2          8           0       -0.763924    1.628128    0.028701
      3          6           0       -0.499944    0.256479    0.332287
      4          6           0       -0.758346   -0.663183   -0.878682
      5          6           0       -2.224495   -0.593612   -1.319074
      6          6           0       -3.150054   -0.922884   -0.146853
      7          7           0       -2.883739    0.011277    0.942987
      8          6           0       -1.520699   -0.095166    1.437593
      9          6           0        0.907424    0.096949    0.940404
     10         16           0        2.338174   -0.072823   -0.219636
     11          8           0        3.528996    0.099741    0.665263
     12          8           0        2.160172   -1.716042   -0.555575
     13          1           0       -0.382694    3.247163   -1.100546
     14          1           0        0.093863    1.723890   -1.885690
     15          1           0        1.089186    2.405817   -0.572786
     16          1           0       -0.091754   -0.415844   -1.711124
     17          1           0       -0.500666   -1.688698   -0.589923
     18          1           0       -2.455167    0.415865   -1.674962
     19          1           0       -2.399377   -1.293175   -2.144532
     20          1           0       -4.198997   -0.820306   -0.445172
     21          1           0       -2.990763   -1.981162    0.148462
     22          1           0       -3.537513   -0.132939    1.707714
     23          1           0       -1.271869   -1.113026    1.800816
     24          1           0       -1.389041    0.603425    2.270377
     25          1           0        1.144786    0.980723    1.540847
     26          1           0        0.965525   -0.781808    1.592173
     27          1           0        2.427680   -2.200906    0.251944
 ---------------------------------------------------------------------

 SCF Done:  E(UB3LYP) =  -954.546140154     A.U. after   31 cycles

 The electronic state is 2-A.
 Alpha  occ. eigenvalues --  -88.88345 -19.05174 -19.02940 -19.00302 -14.18912
 Alpha  occ. eigenvalues --  -10.14084 -10.12549 -10.09901 -10.08997 -10.08335
 Alpha  occ. eigenvalues --  -10.06609 -10.06232  -7.95669  -5.92092  -5.91779
 Alpha  occ. eigenvalues --   -5.91195  -0.97532  -0.94537  -0.90064  -0.80710
 Alpha  occ. eigenvalues --   -0.70994  -0.67086  -0.63849  -0.59216  -0.55707
 Alpha  occ. eigenvalues --   -0.53541  -0.50002  -0.45454  -0.42299  -0.41065
 Alpha  occ. eigenvalues --   -0.38449  -0.37855  -0.37280  -0.35652  -0.35242
 Alpha  occ. eigenvalues --   -0.34205  -0.32483  -0.31666  -0.31343  -0.30270
 Alpha  occ. eigenvalues --   -0.28905  -0.27756  -0.27415  -0.24989  -0.23626
 Alpha  occ. eigenvalues --   -0.22877  -0.22652  -0.20877  -0.19944  -0.17110
 Alpha  occ. eigenvalues --   -0.15093  -0.12006   0.04549
 Alpha virt. eigenvalues --    0.06832   0.07419   0.07966   0.08996   0.09712
 Alpha virt. eigenvalues --    0.09917   0.10332   0.10479   0.11619   0.12386
 Alpha virt. eigenvalues --    0.12852   0.13338   0.13786   0.13833   0.14375

  Beta  occ. eigenvalues --  -88.88321 -19.05095 -19.02931 -19.00243 -14.18884
  Beta  occ. eigenvalues --  -10.14086 -10.12546 -10.09880 -10.08973 -10.08306
  Beta  occ. eigenvalues --  -10.06588 -10.06223  -7.95647  -5.92028  -5.91758
  Beta  occ. eigenvalues --   -5.91177  -0.97387  -0.94519  -0.89907  -0.80669
  Beta  occ. eigenvalues --   -0.70949  -0.67045  -0.63775  -0.59183  -0.55604
  Beta  occ. eigenvalues --   -0.53467  -0.49945  -0.45408  -0.42191  -0.40955
  Beta  occ. eigenvalues --   -0.38406  -0.37797  -0.37235  -0.35588  -0.35186
  Beta  occ. eigenvalues --   -0.34144  -0.32424  -0.31613  -0.31292  -0.30215
  Beta  occ. eigenvalues --   -0.28857  -0.27685  -0.27370  -0.24958  -0.23529
  Beta  occ. eigenvalues --   -0.22828  -0.22613  -0.20795  -0.19775  -0.17086
  Beta  occ. eigenvalues --   -0.14989  -0.11939
  Beta virt. eigenvalues --    0.06989   0.07645   0.08361   0.08492   0.09703
  Beta virt. eigenvalues --    0.10173   0.10272   0.10539   0.10848   0.11996
  Beta virt. eigenvalues --    0.12773   0.13116   0.13659   0.14067   0.14165

 Mulliken charges and spin densities:
               1          2
     1  C   -0.148998  -0.067229
     2  O    0.025565  -0.011550
     3  C   -1.242409   1.654115
     4  C    0.389229  -0.952657
     5  C   -0.861285   0.393810
     6  C    1.055666  -1.414213
     7  N   -0.445862   0.353295
     8  C    1.318983  -1.702219
     9  C   -0.587298  -0.548836
    10  S    1.248418  -0.679218
    11  O   -0.432724   0.035034
    12  O   -0.177779  -0.049007
    13  H    0.132887   0.021302
    14  H    0.132270   0.019068
    15  H    0.133895  -0.014094
    16  H   -0.030965   0.191854
    17  H    0.083662   0.156889
    18  H    0.193764  -0.046120
    19  H   -0.194639   0.350925
    20  H   -0.464668   0.624787
    21  H   -0.247516   0.362893
    22  H   -0.197251   0.460357
    23  H   -0.522926   0.682024
    24  H   -0.055014   0.237296
    25  H    0.228306   0.050481
    26  H   -0.017009   0.270694
    27  H   -0.316301   0.620320
 Sum of Mulliken charges =  -1.00000   1.00000

 Dipole moment (field-independent basis, Debye):
    X=              1.9000    Y=              6.3899    Z=             -3.7443  Tot=              7.6460
 Quadrupole moment (field-independent basis, Debye-Ang):
   XX=           -154.9174   YY=           -119.3004   ZZ=           -110.7008
   XY=              1.4023   XZ=              3.4009   YZ=              0.3301

 Summary of Natural Population Analysis:

                                       Natural Population
                Natural  -----------------------------------------------
    Atom  No    Charge         Core      Valence    Rydberg      Total
 -----------------------------------------------------------------------
      C    1   -0.10060      0.99960     2.09212    0.00888     3.10060
      O    2   -0.30339      0.99986     3.29361    0.00991     4.30339
      C    3    0.12972      0.99948     1.85215    0.01865     2.87028
      C    4   -0.21257      0.99956     2.20130    0.01171     3.21257
      C    5   -0.19394      0.99962     2.18507    0.00925     3.19394
      C    6   -0.08513      0.99962     2.07396    0.01155     3.08513
      N    7   -0.33581      0.99973     2.82328    0.01280     3.83581
      C    8   -0.08964      0.99955     2.07544    0.01466     3.08964
      C    9   -0.29531      0.99950     2.28072    0.01508     3.29531
      S   10    0.71730      4.99949     2.22348    0.05974     7.28270
      O   11   -0.46436      0.99993     3.45785    0.00659     4.46436
      O   12   -0.43697      0.99992     3.42817    0.00887     4.43697
      H   13    0.08943      0.00000     0.40981    0.00076     0.41057
      H   14    0.08025      0.00000     0.41856    0.00119     0.41975
      H   15    0.07542      0.00000     0.42315    0.00144     0.42458
      H   16    0.10024      0.00000     0.39797    0.00179     0.39976
      H   17    0.11342      0.00000     0.38423    0.00234     0.38658
      H   18    0.09822      0.00000     0.40015    0.00164     0.40178
      H   19    0.09919      0.00000     0.39996    0.00085     0.40081
      H   20    0.09520      0.00000     0.40343    0.00137     0.40480
      H   21    0.07898      0.00000     0.41851    0.00251     0.42102
      H   22    0.17946      0.00000     0.31650    0.00405     0.32054
      H   23    0.08511      0.00000     0.41159    0.00330     0.41489
      H   24    0.10015      0.00000     0.39833    0.00152     0.39985
      H   25    0.11523      0.00000     0.38362    0.00115     0.38477
      H   26    0.11900      0.00000     0.37882    0.00218     0.38100
      H   27    0.24139      0.00000     0.24649    0.01211     0.25861
 =======================================================================
   * Total *    0.00000     15.99587    35.77828    0.22585    52.00000

 Normal termination of Gaussian 16 at Wed Dec  9 17:32:04 2020.
