 Gaussian 16, Revision A.03,

 -----------------------------------------------------------
 # opt freq B3LYP/6-31G(d) empiricaldispersion=gd3bj scf=xqc
 -----------------------------------------------------------

 -------------------------------
 CID_134177650_JID_6413_neutraal
 -------------------------------
 Symbolic Z-matrix:
 Charge =  0 Multiplicity = 1

 SCF Done:  E(RB3LYP) =  -1067.05901177     A.U. after   14 cycles
 SCF Done:  E(RB3LYP) =  -1067.06969711     A.U. after   14 cycles
 SCF Done:  E(RB3LYP) =  -1067.06816068     A.U. after   14 cycles
 SCF Done:  E(RB3LYP) =  -1067.07066704     A.U. after   12 cycles
 SCF Done:  E(RB3LYP) =  -1067.07302991     A.U. after   14 cycles
 SCF Done:  E(RB3LYP) =  -1067.07360555     A.U. after   12 cycles
 SCF Done:  E(RB3LYP) =  -1067.07400208     A.U. after   12 cycles
 SCF Done:  E(RB3LYP) =  -1067.07408990     A.U. after   12 cycles
 SCF Done:  E(RB3LYP) =  -1067.07415942     A.U. after   12 cycles
 SCF Done:  E(RB3LYP) =  -1067.07420479     A.U. after   11 cycles
 SCF Done:  E(RB3LYP) =  -1067.07421562     A.U. after   10 cycles
 SCF Done:  E(RB3LYP) =  -1067.07421904     A.U. after    9 cycles
 SCF Done:  E(RB3LYP) =  -1067.07422035     A.U. after    9 cycles
 SCF Done:  E(RB3LYP) =  -1067.07422115     A.U. after    8 cycles
 Optimization completed.
    -- Stationary point found.
 Normal termination of Gaussian 16 at Thu Dec 10 22:47:05 2020.

 --------------------------------------------------------------------
 #N Geom=AllCheck Guess=TCheck SCRF=Check GenChk RB3LYP/6-31G(d) Freq
 --------------------------------------------------------------------

 Structure from the checkpoint file:  "JID_6413.chk"
 -------------------------------
 CID_134177650_JID_6413_neutraal
 -------------------------------
 Charge =  0 Multiplicity = 1

 SCF Done:  E(RB3LYP) =  -1067.07422115     A.U. after    1 cycles

  Exact polarizability: 146.423  -0.965 160.872   5.415  -4.826 133.673
 Approx polarizability: 192.268   0.860 249.534  14.852  -5.398 236.787

                      1                      2                      3
                      A                      A                      A
 Frequencies --     40.1139                57.1297                62.7589
 Red. masses --      3.1079                 4.5977                 5.0403
 Frc consts  --      0.0029                 0.0088                 0.0117
 IR Inten    --      0.0676                 0.6703                 1.7858

                      4                      5                      6
                      A                      A                      A
 Frequencies --     69.3961                73.1455               118.1512
 Red. masses --      5.3063                 5.2423                 4.6353
 Frc consts  --      0.0151                 0.0165                 0.0381
 IR Inten    --      2.4513                 0.4410                 3.3397

                      7                      8                      9
                      A                      A                      A
 Frequencies --    158.2832               185.2057               191.0588
 Red. masses --      4.2649                 3.2733                 3.8730
 Frc consts  --      0.0630                 0.0662                 0.0833
 IR Inten    --      0.1698                 0.8505                 0.6722

                     10                     11                     12
                      A                      A                      A
 Frequencies --    234.6110               267.9325               285.7150
 Red. masses --      1.0273                 2.4881                 1.0766
 Frc consts  --      0.0333                 0.1052                 0.0518
 IR Inten    --      0.0134                 0.4097                 0.2028

                     13                     14                     15
                      A                      A                      A
 Frequencies --    305.9393               310.1993               325.7104
 Red. masses --      2.8451                 3.1837                 1.0608
 Frc consts  --      0.1569                 0.1805                 0.0663
 IR Inten    --      0.4703                 0.8605                 0.1342

                     16                     17                     18
                      A                      A                      A
 Frequencies --    338.5313               358.7069               381.7706
 Red. masses --      3.4560                 3.1185                 3.1302
 Frc consts  --      0.2334                 0.2364                 0.2688
 IR Inten    --      0.8233                 0.7418                 0.3747

                     19                     20                     21
                      A                      A                      A
 Frequencies --    402.2715               416.5629               421.9304
 Red. masses --      2.5389                 3.3823                 4.5377
 Frc consts  --      0.2421                 0.3458                 0.4760
 IR Inten    --      0.0683                 3.8712                13.0093

                     22                     23                     24
                      A                      A                      A
 Frequencies --    468.1754               518.2416               577.1838
 Red. masses --      3.4601                 3.7319                 3.4123
 Frc consts  --      0.4468                 0.5905                 0.6698
 IR Inten    --      3.5911                 5.7999                 8.5059

                     25                     26                     27
                      A                      A                      A
 Frequencies --    595.6168               630.5873               644.1373
 Red. masses --      4.0326                 6.2647                 3.5072
 Frc consts  --      0.8429                 1.4677                 0.8574
 IR Inten    --      0.9623                 8.4359                23.8520

                     28                     29                     30
                      A                      A                      A
 Frequencies --    766.9465               789.8135               814.7762
 Red. masses --      7.7123                 2.5364                 2.9913
 Frc consts  --      2.6728                 0.9322                 1.1700
 IR Inten    --      2.7807                 3.1087                 0.2917

                     31                     32                     33
                      A                      A                      A
 Frequencies --    841.4041               869.4234               884.9250
 Red. masses --      2.8824                 1.6505                 2.1156
 Frc consts  --      1.2023                 0.7351                 0.9761
 IR Inten    --     18.6770                19.5171                32.2103

                     34                     35                     36
                      A                      A                      A
 Frequencies --    934.0765               949.3032               955.2498
 Red. masses --      2.3601                 1.6713                 1.3682
 Frc consts  --      1.2133                 0.8874                 0.7356
 IR Inten    --     11.7850                 0.2550                 0.1244

                     37                     38                     39
                      A                      A                      A
 Frequencies --    957.3904               964.6957               979.7629
 Red. masses --      1.5967                 1.5428                 3.4769
 Frc consts  --      0.8623                 0.8460                 1.9664
 IR Inten    --      1.3956                 1.3946                 6.5827

                     40                     41                     42
                      A                      A                      A
 Frequencies --    984.5563               985.0213              1036.3739
 Red. masses --      1.4276                 1.2635                10.2382
 Frc consts  --      0.8153                 0.7223                 6.4790
 IR Inten    --      0.3573                 0.3900                67.4439

                     43                     44                     45
                      A                      A                      A
 Frequencies --   1041.3787              1056.7037              1058.5882
 Red. masses --      5.4375                 1.4391                 1.3978
 Frc consts  --      3.4743                 0.9468                 0.9229
 IR Inten    --     30.1409                 1.3603                 0.2870

                     46                     47                     48
                      A                      A                      A
 Frequencies --   1075.4341              1102.4433              1121.9324
 Red. masses --      3.5143                 4.5652                 2.6071
 Frc consts  --      2.3947                 3.2690                 1.9335
 IR Inten    --      7.9200                 4.0468                41.4226

                     49                     50                     51
                      A                      A                      A
 Frequencies --   1155.1011              1168.8815              1209.3143
 Red. masses --      1.1523                 1.3985                 2.0288
 Frc consts  --      0.9059                 1.1258                 1.7481
 IR Inten    --      1.8245                 3.8416                66.6376

                     52                     53                     54
                      A                      A                      A
 Frequencies --   1214.3251              1218.6657              1249.0447
 Red. masses --      1.8461                 2.0767                12.5384
 Frc consts  --      1.6039                 1.8172                11.5252
 IR Inten    --     19.5365                 6.2866                 6.0331

                     55                     56                     57
                      A                      A                      A
 Frequencies --   1260.7762              1269.0803              1307.5893
 Red. masses --      2.6220                 2.7502                 1.2889
 Frc consts  --      2.4556                 2.6097                 1.2985
 IR Inten    --      4.4624                 4.3275                 2.7964

                     58                     59                     60
                      A                      A                      A
 Frequencies --   1321.0753              1337.6808              1381.6818
 Red. masses --      2.1734                 1.4262                 1.4380
 Frc consts  --      2.2348                 1.5036                 1.6174
 IR Inten    --      6.9400                 5.9219                 2.6864

                     61                     62                     63
                      A                      A                      A
 Frequencies --   1424.2784              1426.9323              1438.0763
 Red. masses --      1.2451                 1.2367                 1.5876
 Frc consts  --      1.4881                 1.4836                 1.9344
 IR Inten    --      9.1988                 6.6110                29.9509

                     64                     65                     66
                      A                      A                      A
 Frequencies --   1453.8075              1469.0215              1505.4811
 Red. masses --      1.2248                 1.6835                 1.0469
 Frc consts  --      1.5252                 2.1405                 1.3980
 IR Inten    --      1.4218                 0.7774                 0.4844

                     67                     68                     69
                      A                      A                      A
 Frequencies --   1519.0753              1522.0387              1526.7090
 Red. masses --      1.0496                 1.0817                 2.0968
 Frc consts  --      1.4270                 1.4765                 2.8795
 IR Inten    --      1.0434                 1.0526                 5.6850

                     70                     71                     72
                      A                      A                      A
 Frequencies --   1531.4084              1534.6744              1535.8626
 Red. masses --      1.0527                 1.0573                 1.0941
 Frc consts  --      1.4545                 1.4671                 1.5206
 IR Inten    --      7.2591                 8.0009                 0.0545

                     73                     74                     75
                      A                      A                      A
 Frequencies --   1552.9543              1561.3534              1594.2913
 Red. masses --      1.0508                 1.1139                 8.2610
 Frc consts  --      1.4931                 1.6000                12.3714
 IR Inten    --     13.1287                 2.2044                 1.2142

                     76                     77                     78
                      A                      A                      A
 Frequencies --   1632.1191              3034.5658              3041.9723
 Red. masses --      4.9878                 1.0570                 1.0389
 Frc consts  --      7.8283                 5.7350                 5.6641
 IR Inten    --      1.1869                53.7456                20.2240

                     79                     80                     81
                      A                      A                      A
 Frequencies --   3046.2403              3052.0253              3059.5139
 Red. masses --      1.0374                 1.0389                 1.0572
 Frc consts  --      5.6716                 5.7019                 5.8304
 IR Inten    --     15.7874                43.7469                24.1776

                     82                     83                     84
                      A                      A                      A
 Frequencies --   3093.2041              3109.8020              3110.0263
 Red. masses --      1.1088                 1.1080                 1.1019
 Frc consts  --      6.2507                 6.3135                 6.2796
 IR Inten    --     42.6718                20.8267                22.9571

                     85                     86                     87
                      A                      A                      A
 Frequencies --   3114.9462              3119.5267              3123.8658
 Red. masses --      1.0999                 1.0966                 1.1023
 Frc consts  --      6.2881                 6.2873                 6.3378
 IR Inten    --      8.9790                36.6765                26.6626

                     88                     89                     90
                      A                      A                      A
 Frequencies --   3135.5893              3156.7110              3177.8329
 Red. masses --      1.1033                 1.1017                 1.0876
 Frc consts  --      6.3913                 6.4684                 6.4710
 IR Inten    --     18.2712                10.0099                 4.7496

                     91                     92                     93
                      A                      A                      A
 Frequencies --   3195.4462              3202.4825              3502.9861
 Red. masses --      1.0949                 1.0936                 1.0753
 Frc consts  --      6.5868                 6.6084                 7.7744
 IR Inten    --     55.4601                 0.9618                 4.8478

 - Thermochemistry -
 -------------------
 Temperature   298.150 Kelvin.  Pressure   1.00000 Atm.
 Atom     1 has atomic number  6 and mass  12.00000

 Molecular mass:   239.10923 amu.
 Principal axes and moments of inertia in atomic units:
                           1         2         3
     Eigenvalues --  3096.846444125.911125847.61099
           X            0.99968   0.02439  -0.00694
           Y           -0.02440   0.99970  -0.00239
           Z            0.00688   0.00256   0.99997
 This molecule is an asymmetric top.
 Rotational symmetry number  1.
 Warning -- assumption of classical behavior for rotation
           may cause significant error
 Rotational temperatures (Kelvin)      0.02797     0.02099     0.01481
 Rotational constants (GHZ):           0.58277     0.43742     0.30863
 Zero-point vibrational energy     724980.7 (Joules/Mol)
                                  173.27454 (Kcal/Mol)
 Warning -- explicit consideration of  25 degrees of freedom as
           vibrations may cause significant error
 Vibrational temperatures:     57.71    82.20    90.30    99.85   105.24
          (Kelvin)            169.99   227.73   266.47   274.89   337.55
                              385.50   411.08   440.18   446.31   468.62
                              487.07   516.10   549.28   578.78   599.34
                              607.06   673.60   745.63   830.44   856.96
                              907.27   926.77  1103.46  1136.37  1172.28
                             1210.59  1250.91  1273.21  1343.93  1365.84
                             1374.39  1377.47  1387.98  1409.66  1416.56
                             1417.23  1491.11  1498.31  1520.36  1523.07
                             1547.31  1586.17  1614.21  1661.93  1681.76
                             1739.93  1747.14  1753.39  1797.10  1813.98
                             1825.92  1881.33  1900.73  1924.62  1987.93
                             2049.22  2053.04  2069.07  2091.70  2113.59
                             2166.05  2185.61  2189.87  2196.59  2203.36
                             2208.05  2209.76  2234.35  2246.44  2293.83
                             2348.26  4366.06  4376.72  4382.86  4391.18
                             4401.96  4450.43  4474.31  4474.63  4481.71
                             4488.30  4494.55  4511.41  4541.80  4572.19
                             4597.53  4607.66  5040.02

 Zero-point correction=                           0.276131 (Hartree/Particle)
 Thermal correction to Energy=                    0.292362
 Thermal correction to Enthalpy=                  0.293306
 Thermal correction to Gibbs Free Energy=         0.232077
 Sum of electronic and zero-point Energies=          -1066.798091
 Sum of electronic and thermal Energies=             -1066.781859
 Sum of electronic and thermal Enthalpies=           -1066.780915
 Sum of electronic and thermal Free Energies=        -1066.842145

                     E (Thermal)             CV                S
                      KCal/Mol        Cal/Mol-Kelvin    Cal/Mol-Kelvin
 Total                  183.460             61.472            128.869
 Electronic               0.000              0.000              0.000
 Translational            0.889              2.981             42.317
 Rotational               0.889              2.981             32.680
 Vibrational            181.683             55.510             53.872
 Vibration     1          0.594              1.981              5.253
 Vibration     2          0.596              1.975              4.554
 Vibration     3          0.597              1.972              4.369
 Vibration     4          0.598              1.969              4.170
 Vibration     5          0.599              1.967              4.067
 Vibration     6          0.608              1.934              3.130
 Vibration     7          0.621              1.893              2.570
 Vibration     8          0.631              1.860              2.275
 Vibration     9          0.634              1.852              2.218
 Vibration    10          0.654              1.788              1.843
 Vibration    11          0.673              1.732              1.610
 Vibration    12          0.683              1.700              1.499
 Vibration    13          0.696              1.662              1.384
 Vibration    14          0.699              1.654              1.361
 Vibration    15          0.710              1.624              1.281
 Vibration    16          0.719              1.599              1.219
 Vibration    17          0.734              1.557              1.128
 Vibration    18          0.751              1.509              1.032
 Vibration    19          0.768              1.465              0.954
 Vibration    20          0.780              1.434              0.904
 Vibration    21          0.784              1.423              0.885
 Vibration    22          0.825              1.321              0.743
 Vibration    23          0.873              1.210              0.614
 Vibration    24          0.934              1.081              0.491
 Vibration    25          0.953              1.041              0.457

                           ! Non-Optimized Parameters !
 Normal termination of Gaussian 16 at Thu Dec 10 23:00:58 2020.

 ----------------------------------------------------------------------
 # B3LYP/6-311++G(d,p) empiricaldispersion=gd3bj scf=xqc pop=npa geom=c
 heck
 ----------------------------------------------------------------------

 ---------------------------------------
 CID_134177650_JID_6413_Energie_neutraal
 ---------------------------------------
 Structure from the checkpoint file:  "JID_6413.chk"
 Charge =  0 Multiplicity = 1

 SCF Done:  E(RB3LYP) =  -1067.28617032     A.U. after   15 cycles
 Normal termination of Gaussian 16 at Thu Dec 10 23:08:45 2020.

 ----------------------------------------------------------------------
 # B3LYP/6-311++G(d,p) empiricaldispersion=gd3bj scf=xqc pop=npa geom=c
 heck
 ----------------------------------------------------------------------

 -------------------------------------
 CID_134177650_JID_6413_Energie_kation
 -------------------------------------
 Structure from the checkpoint file:  "JID_6413.chk"
 Charge =  1 Multiplicity = 2

 SCF Done:  E(UB3LYP) =  -1066.97920536     A.U. after   33 cycles
 SCF Done:  E(UB3LYP) =  -1066.97920536     a.u. after    1 cycles
 Normal termination of Gaussian 16 at Thu Dec 10 23:27:11 2020.
 Gaussian 16:  ES64L-G16RevA.03 25-Dec-2016

 ----------------------------------------------------------------------
 # B3LYP/6-311++G(d,p) empiricaldispersion=gd3bj scf=xqc pop=npa geom=c
 heck
 ----------------------------------------------------------------------

 ------------------------------------
 CID_134177650_JID_6413_Energie_anion
 ------------------------------------
 Structure from the checkpoint file:  "JID_6413.chk"
 Charge = -1 Multiplicity = 2

                         Standard orientation:
 ---------------------------------------------------------------------
 Center     Atomic      Atomic             Coordinates (Angstroms)
 Number     Number       Type             X           Y           Z
 ---------------------------------------------------------------------
      1          6           0       -3.657686   -0.494346   -0.866062
      2          6           0       -2.584181   -0.113936    0.160617
      3          6           0       -3.187595    0.669741    1.329087
      4          6           0       -1.846010   -1.352320    0.670640
      5         16           0       -1.427777    1.001163   -0.789255
      6          7           0       -0.239624    1.368715    0.428029
      7          6           0        1.154501    1.060004    0.081818
      8          6           0        1.790152    1.944813   -1.028781
      9          8           0        2.443518    2.769459   -0.039700
     10          6           0        2.113330    1.833585    1.011887
     11          6           0        1.354717   -0.430058   -0.001492
     12          7           0        1.638325   -1.065512    1.142892
     13          6           0        1.765838   -2.393722    1.075793
     14          6           0        1.606940   -3.090256   -0.123302
     15          7           0        1.336663   -2.463426   -1.273373
     16          6           0        1.217105   -1.133848   -1.204024
     17          1           0       -4.406637   -1.136214   -0.387676
     18          1           0       -3.227165   -1.047425   -1.707882
     19          1           0       -4.172514    0.390125   -1.257206
     20          1           0       -3.870826    0.027074    1.899171
     21          1           0       -2.398799    1.011418    2.006309
     22          1           0       -3.747759    1.541002    0.974778
     23          1           0       -1.415638   -1.929122   -0.153331
     24          1           0       -1.043609   -1.067112    1.355019
     25          1           0       -2.546083   -1.998719    1.215569
     26          1           0       -0.313452    2.354685    0.670576
     27          1           0        2.516453    1.426387   -1.668750
     28          1           0        1.089494    2.512309   -1.651934
     29          1           0        1.648035    2.317020    1.878639
     30          1           0        2.978479    1.248018    1.340663
     31          1           0        1.999307   -2.915377    2.001418
     32          1           0        1.703906   -4.173080   -0.159817
     33          1           0        0.992886   -0.611646   -2.129791
 ---------------------------------------------------------------------

 SCF Done:  E(UB3LYP) =  -1067.29154644     A.U. after   33 cycles
 SCF Done:  E(UB3LYP) =  -1067.29154644     a.u. after    1 cycles

 The electronic state is 2-A.
 Alpha  occ. eigenvalues --  -88.74077 -19.01208 -14.21487 -14.13176 -14.13154
 Alpha  occ. eigenvalues --  -10.10509 -10.10381 -10.10242 -10.09693 -10.06862
 Alpha  occ. eigenvalues --  -10.05802 -10.04622 -10.04504 -10.04416 -10.03992
 Alpha  occ. eigenvalues --  -10.03913  -7.82512  -5.79007  -5.78540  -5.77802
 Alpha  occ. eigenvalues --   -0.93810  -0.81397  -0.79721  -0.73574  -0.71799
 Alpha  occ. eigenvalues --   -0.64166  -0.59735  -0.59294  -0.58448  -0.57686
 Alpha  occ. eigenvalues --   -0.55058  -0.49823  -0.49170  -0.44237  -0.42871
 Alpha  occ. eigenvalues --   -0.39675  -0.38483  -0.36860  -0.35156  -0.34983
 Alpha  occ. eigenvalues --   -0.34127  -0.33804  -0.32643  -0.31939  -0.30346
 Alpha  occ. eigenvalues --   -0.29897  -0.28843  -0.27842  -0.27259  -0.26317
 Alpha  occ. eigenvalues --   -0.26058  -0.24648  -0.23458  -0.23375  -0.22964
 Alpha  occ. eigenvalues --   -0.20855  -0.20092  -0.17077  -0.15180  -0.13876
 Alpha  occ. eigenvalues --   -0.13176  -0.11893  -0.11122  -0.08311   0.05240
 Alpha virt. eigenvalues --    0.06946   0.08411   0.09086   0.09406   0.10163
 Alpha virt. eigenvalues --    0.10511   0.11083   0.11635   0.11734   0.12046
 Alpha virt. eigenvalues --    0.12491   0.13018   0.13449   0.13466   0.13597

  Beta  occ. eigenvalues --  -88.74075 -19.01209 -14.21444 -14.12501 -14.12449
  Beta  occ. eigenvalues --  -10.10503 -10.10375 -10.10242 -10.09699 -10.06859
  Beta  occ. eigenvalues --  -10.05787 -10.04542 -10.04481 -10.04402 -10.03910
  Beta  occ. eigenvalues --  -10.03905  -7.82510  -5.78999  -5.78538  -5.77803
  Beta  occ. eigenvalues --   -0.93806  -0.80874  -0.79285  -0.72486  -0.71694
  Beta  occ. eigenvalues --   -0.63944  -0.59533  -0.59273  -0.58379  -0.57667
  Beta  occ. eigenvalues --   -0.54984  -0.49348  -0.48693  -0.44144  -0.42756
  Beta  occ. eigenvalues --   -0.39589  -0.38401  -0.36773  -0.34943  -0.34787
  Beta  occ. eigenvalues --   -0.34114  -0.33782  -0.32489  -0.31759  -0.30313
  Beta  occ. eigenvalues --   -0.29870  -0.28740  -0.27788  -0.27169  -0.26272
  Beta  occ. eigenvalues --   -0.24918  -0.24345  -0.23389  -0.23280  -0.22628
  Beta  occ. eigenvalues --   -0.20813  -0.19891  -0.15201  -0.13890  -0.13097
  Beta  occ. eigenvalues --   -0.12982  -0.11591  -0.10156  -0.07572
  Beta virt. eigenvalues --    0.06994   0.08436   0.09066   0.09373   0.10125
  Beta virt. eigenvalues --    0.10426   0.11013   0.11564   0.11722   0.12021
  Beta virt. eigenvalues --    0.12270   0.12790   0.12992   0.13390   0.13525

 Mulliken charges and spin densities:
               1          2
     1  C   -0.505833  -0.050853
     2  C    0.055952   0.318806
     3  C   -0.229081  -0.396747
     4  C   -0.423581  -0.101692
     5  S    0.051529  -0.069936
     6  N   -0.011880  -0.094998
     7  C    0.214847  -0.078608
     8  C   -0.161634  -0.009751
     9  O   -0.148751   0.003213
    10  C   -0.310974   0.036005
    11  C   -0.498304   0.085322
    12  N   -0.014109   0.315456
    13  C    0.072004   0.083463
    14  C   -0.270431   0.095910
    15  N   -0.098444   0.293654
    16  C   -0.764472   0.028609
    17  H    0.111384   0.020045
    18  H    0.152999  -0.000245
    19  H    0.101821   0.035231
    20  H    0.008618   0.115683
    21  H    0.118056   0.039501
    22  H   -0.046242   0.167203
    23  H    0.150335  -0.003588
    24  H    0.229711  -0.054337
    25  H    0.068353   0.077049
    26  H    0.175546   0.136505
    27  H    0.159268   0.004571
    28  H    0.149045   0.002074
    29  H    0.123277   0.010024
    30  H    0.187097   0.001494
    31  H    0.118560   0.002593
    32  H    0.115921  -0.008534
    33  H    0.119414  -0.003121
 Sum of Mulliken charges =  -1.00000   1.00000

 Dipole moment (field-independent basis, Debye):
    X=             -3.4026    Y=              2.8362    Z=              0.1044  Tot=              4.4308
 Quadrupole moment (field-independent basis, Debye-Ang):
   XX=           -137.8522   YY=           -140.9841   ZZ=           -121.9360
   XY=              6.4151   XZ=              2.7919   YZ=             -4.5003

 Summary of Natural Population Analysis:

                                       Natural Population
                Natural  -----------------------------------------------
    Atom  No    Charge         Core      Valence    Rydberg      Total
 -----------------------------------------------------------------------
      C    1   -0.29235      0.99961     2.28677    0.00596     3.29235
      C    2   -0.09572      0.99958     2.08311    0.01304     3.09572
      C    3   -0.29337      0.99960     2.28590    0.00786     3.29337
      C    4   -0.29864      0.99960     2.29061    0.00843     3.29864
      S    5    0.16780      4.99952     2.81065    0.02204     7.83220
      N    6   -0.38947      0.99971     2.87671    0.01305     3.88947
      C    7    0.03125      0.99950     1.95239    0.01686     2.96875
      C    8   -0.00681      0.99959     1.99716    0.01006     3.00681
      O    9   -0.31503      0.99991     3.30565    0.00946     4.31503
      C   10    0.00251      0.99959     1.98612    0.01179     2.99749
      C   11    0.08507      0.99948     1.89847    0.01698     2.91493
      N   12   -0.14538      0.99967     2.63248    0.01323     3.64538
      C   13   -0.00308      0.99959     1.98819    0.01529     3.00308
      C   14    0.00363      0.99960     1.97958    0.01719     2.99637
      N   15   -0.14567      0.99971     2.63198    0.01397     3.64567
      C   16    0.00067      0.99953     1.98744    0.01237     2.99933
      H   17    0.10032      0.00000     0.39883    0.00085     0.39968
      H   18    0.10481      0.00000     0.39438    0.00081     0.39519
      H   19    0.09977      0.00000     0.39943    0.00080     0.40023
      H   20    0.09530      0.00000     0.40376    0.00095     0.40470
      H   21    0.10846      0.00000     0.39040    0.00114     0.39154
      H   22    0.09870      0.00000     0.40019    0.00110     0.40130
      H   23    0.11120      0.00000     0.38767    0.00113     0.38880
      H   24    0.11806      0.00000     0.38044    0.00150     0.38194
      H   25    0.09215      0.00000     0.40692    0.00093     0.40785
      H   26    0.17831      0.00000     0.31851    0.00318     0.32169
      H   27    0.08627      0.00000     0.41262    0.00111     0.41373
      H   28    0.08258      0.00000     0.41636    0.00106     0.41742
      H   29    0.08152      0.00000     0.41694    0.00153     0.41848
      H   30    0.09472      0.00000     0.40418    0.00110     0.40528
      H   31    0.07968      0.00000     0.41920    0.00112     0.42032
      H   32    0.07896      0.00000     0.41993    0.00110     0.42104
      H   33    0.08378      0.00000     0.41495    0.00127     0.41622
 =======================================================================
   * Total *   -0.00000     19.99379    43.77793    0.22827    64.00000

 Normal termination of Gaussian 16 at Thu Dec 10 23:45:34 2020.
