 Gaussian 16, Revision A.03,

 -----------------------------------------------------------
 # opt freq B3LYP/6-31G(d) empiricaldispersion=gd3bj scf=xqc
 -----------------------------------------------------------

 ------------------------------
 CID_54988697_JID_8109_neutraal
 ------------------------------
 Symbolic Z-matrix:
 Charge =  0 Multiplicity = 1

 SCF Done:  E(RB3LYP) =  -799.266205656     A.U. after   16 cycles
 SCF Done:  E(RB3LYP) =  -799.293651306     A.U. after   14 cycles
 SCF Done:  E(RB3LYP) =  -799.295545128     A.U. after   13 cycles
 SCF Done:  E(RB3LYP) =  -799.295822172     A.U. after   13 cycles
 SCF Done:  E(RB3LYP) =  -799.296737568     A.U. after   13 cycles
 SCF Done:  E(RB3LYP) =  -799.296950732     A.U. after   12 cycles
 SCF Done:  E(RB3LYP) =  -799.296971771     A.U. after   11 cycles
 SCF Done:  E(RB3LYP) =  -799.297014483     A.U. after   10 cycles
 SCF Done:  E(RB3LYP) =  -799.297027127     A.U. after   11 cycles
 SCF Done:  E(RB3LYP) =  -799.297034583     A.U. after    9 cycles
 SCF Done:  E(RB3LYP) =  -799.297045655     A.U. after   11 cycles
 SCF Done:  E(RB3LYP) =  -799.297045878     A.U. after   10 cycles
 SCF Done:  E(RB3LYP) =  -799.297047669     A.U. after   12 cycles
 SCF Done:  E(RB3LYP) =  -799.297047616     A.U. after   11 cycles
 SCF Done:  E(RB3LYP) =  -799.297047786     A.U. after    8 cycles
 SCF Done:  E(RB3LYP) =  -799.297047822     A.U. after    7 cycles
 Optimization completed.
    -- Stationary point found.
 Normal termination of Gaussian 16 at Fri Dec 11 18:54:59 2020.

 --------------------------------------------------------------------
 #N Geom=AllCheck Guess=TCheck SCRF=Check GenChk RB3LYP/6-31G(d) Freq
 --------------------------------------------------------------------

 Structure from the checkpoint file:  "JID_8109.chk"
 ------------------------------
 CID_54988697_JID_8109_neutraal
 ------------------------------
 Charge =  0 Multiplicity = 1

 SCF Done:  E(RB3LYP) =  -799.297047823     A.U. after    1 cycles

  Exact polarizability: 218.682 -10.409 126.083   0.272  17.785 129.458
 Approx polarizability: 320.384 -18.170 181.833  -0.544  43.934 220.133

                      1                      2                      3
                      A                      A                      A
 Frequencies --      5.9133                31.6344                42.9625
 Red. masses --      6.2842                 4.5322                 4.5245
 Frc consts  --      0.0001                 0.0027                 0.0049
 IR Inten    --      0.4576                 4.3722                 1.3373

                      4                      5                      6
                      A                      A                      A
 Frequencies --     66.8174                84.2955               103.2236
 Red. masses --      5.9078                 3.3124                 4.2691
 Frc consts  --      0.0155                 0.0139                 0.0268
 IR Inten    --      1.2533                 0.2304                 2.4518

                      7                      8                      9
                      A                      A                      A
 Frequencies --    117.2944               150.8562               190.2159
 Red. masses --      3.9734                 6.2229                 2.1242
 Frc consts  --      0.0322                 0.0834                 0.0453
 IR Inten    --      2.0778                 4.7632                 4.0461

                     10                     11                     12
                      A                      A                      A
 Frequencies --    196.1138               224.6841               249.5004
 Red. masses --      1.8552                 2.2276                 1.4323
 Frc consts  --      0.0420                 0.0663                 0.0525
 IR Inten    --     10.7842                24.4154                 1.9110

                     13                     14                     15
                      A                      A                      A
 Frequencies --    256.7508               285.9665               299.5653
 Red. masses --      3.5366                 2.9744                 2.8344
 Frc consts  --      0.1374                 0.1433                 0.1499
 IR Inten    --     11.2858                 5.1593                 5.7798

                     16                     17                     18
                      A                      A                      A
 Frequencies --    328.8271               350.0840               383.3377
 Red. masses --      4.2075                 3.1951                 2.8807
 Frc consts  --      0.2680                 0.2307                 0.2494
 IR Inten    --      1.2807                 1.9697                 1.1728

                     19                     20                     21
                      A                      A                      A
 Frequencies --    395.3636               445.8085               466.8781
 Red. masses --      3.6753                 2.3880                 3.1574
 Frc consts  --      0.3385                 0.2796                 0.4055
 IR Inten    --      1.2037                 6.8019                 7.3370

                     22                     23                     24
                      A                      A                      A
 Frequencies --    482.2769               507.5054               518.1609
 Red. masses --      4.3702                 4.0865                 1.6026
 Frc consts  --      0.5989                 0.6201                 0.2535
 IR Inten    --      3.5873                25.5551                70.5497

                     25                     26                     27
                      A                      A                      A
 Frequencies --    563.6112               565.9391               593.9347
 Red. masses --      3.8668                 3.4117                 3.2544
 Frc consts  --      0.7237                 0.6438                 0.6764
 IR Inten    --     15.2940                30.5422                 7.3982

                     28                     29                     30
                      A                      A                      A
 Frequencies --    666.7511               689.6787               714.4537
 Red. masses --      4.1536                 4.5448                 4.8131
 Frc consts  --      1.0879                 1.2737                 1.4475
 IR Inten    --      2.8670                34.9222                 5.9856

                     31                     32                     33
                      A                      A                      A
 Frequencies --    723.1540               757.1872               797.1856
 Red. masses --      4.1462                 4.3111                 1.2081
 Frc consts  --      1.2775                 1.4563                 0.4524
 IR Inten    --      3.1290                 1.9736                 9.4386

                     34                     35                     36
                      A                      A                      A
 Frequencies --    805.9591               830.1906               841.0668
 Red. masses --      1.9087                 1.8664                 2.7147
 Frc consts  --      0.7305                 0.7579                 1.1315
 IR Inten    --     42.2501                42.3474                 1.6609

                     37                     38                     39
                      A                      A                      A
 Frequencies --    845.3833               864.3143               868.0338
 Red. masses --      3.1254                 2.3313                 1.6706
 Frc consts  --      1.3160                 1.0261                 0.7417
 IR Inten    --      3.4277                 5.0814                11.5835

                     40                     41                     42
                      A                      A                      A
 Frequencies --    932.1929               941.7051               947.4333
 Red. masses --      1.3172                 2.3468                 2.3006
 Frc consts  --      0.6744                 1.2262                 1.2167
 IR Inten    --      3.7689                 0.1561               134.6459

                     43                     44                     45
                      A                      A                      A
 Frequencies --    969.0091              1025.2848              1038.9425
 Red. masses --      2.9899                 2.5517                 2.3416
 Frc consts  --      1.6541                 1.5804                 1.4892
 IR Inten    --     29.2267                10.6785                12.8572

                     46                     47                     48
                      A                      A                      A
 Frequencies --   1074.9225              1103.7995              1116.2778
 Red. masses --      2.3035                 1.9677                 2.2711
 Frc consts  --      1.5682                 1.4125                 1.6674
 IR Inten    --     12.2283                20.5306                 2.5386

                     49                     50                     51
                      A                      A                      A
 Frequencies --   1138.7575              1150.5895              1179.0275
 Red. masses --      1.9866                 1.9656                 1.8311
 Frc consts  --      1.5178                 1.5331                 1.4997
 IR Inten    --    115.3768                40.8351                68.0059

                     52                     53                     54
                      A                      A                      A
 Frequencies --   1191.9955              1204.8880              1235.8730
 Red. masses --      1.5340                 1.9491                 1.9178
 Frc consts  --      1.2841                 1.6672                 1.7258
 IR Inten    --      2.2541                37.4684                30.3518

                     55                     56                     57
                      A                      A                      A
 Frequencies --   1245.4225              1256.2354              1260.2816
 Red. masses --      1.5766                 2.3532                 1.3763
 Frc consts  --      1.4408                 2.1880                 1.2879
 IR Inten    --     78.1005                 0.5173                 5.6682

                     58                     59                     60
                      A                      A                      A
 Frequencies --   1290.6017              1310.6525              1320.9696
 Red. masses --      1.6040                 2.8767                 1.4631
 Frc consts  --      1.5742                 2.9116                 1.5042
 IR Inten    --     13.7612                30.1847                 2.6268

                     61                     62                     63
                      A                      A                      A
 Frequencies --   1361.3491              1375.6842              1385.4798
 Red. masses --      1.9356                 1.3765                 1.4602
 Frc consts  --      2.1135                 1.5349                 1.6514
 IR Inten    --     40.8127                 4.0281                70.4915

                     64                     65                     66
                      A                      A                      A
 Frequencies --   1394.4559              1404.6523              1415.2796
 Red. masses --      2.0915                 1.3647                 1.5568
 Frc consts  --      2.3961                 1.5864                 1.8372
 IR Inten    --      5.9646                33.4858                 4.1861

                     67                     68                     69
                      A                      A                      A
 Frequencies --   1430.2849              1436.3032              1485.2803
 Red. masses --      1.4414                 1.2627                 1.0987
 Frc consts  --      1.7373                 1.5347                 1.4280
 IR Inten    --      8.2126                23.2489                 8.1216

                     70                     71                     72
                      A                      A                      A
 Frequencies --   1506.3189              1512.0881              1523.3906
 Red. masses --      2.2393                 1.3961                 1.0425
 Frc consts  --      2.9936                 1.8806                 1.4255
 IR Inten    --     40.6593                39.3804                 3.0438

                     73                     74                     75
                      A                      A                      A
 Frequencies --   1531.8195              1540.2281              1547.1634
 Red. masses --      1.0657                 1.3233                 1.9491
 Frc consts  --      1.4734                 1.8497                 2.7488
 IR Inten    --      1.3288                18.2519                42.3267

                     76                     77                     78
                      A                      A                      A
 Frequencies --   1647.3920              1685.4554              1702.9799
 Red. masses --      6.7179                 6.9561                 1.0966
 Frc consts  --     10.7418                11.6426                 1.8737
 IR Inten    --     15.3808               205.1301                12.8404

                     79                     80                     81
                      A                      A                      A
 Frequencies --   1860.3419              2370.7090              3007.3067
 Red. masses --     10.8107                12.5991                 1.0708
 Frc consts  --     22.0441                41.7201                 5.7058
 IR Inten    --    517.1342                 6.5939                40.3599

                     82                     83                     84
                      A                      A                      A
 Frequencies --   3048.4230              3051.3443              3052.2224
 Red. masses --      1.0826                 1.0512                 1.0491
 Frc consts  --      5.9273                 5.7668                 5.7584
 IR Inten    --     15.5564                32.2107                31.4628

                     85                     86                     87
                      A                      A                      A
 Frequencies --   3059.3107              3096.3209              3100.1725
 Red. masses --      1.0610                 1.0919                 1.0987
 Frc consts  --      5.8507                 6.1679                 6.2217
 IR Inten    --      5.8764                17.3509                20.2586

                     88                     89                     90
                      A                      A                      A
 Frequencies --   3107.4923              3120.5007              3131.1297
 Red. masses --      1.1018                 1.1015                 1.1033
 Frc consts  --      6.2684                 6.3195                 6.3733
 IR Inten    --      4.7339                41.4161                43.3489

                     91                     92                     93
                      A                      A                      A
 Frequencies --   3183.4757              3204.8203              3221.2570
 Red. masses --      1.0893                 1.0912                 1.0913
 Frc consts  --      6.5041                 6.6035                 6.6721
 IR Inten    --     13.5114                 6.1845                12.2855

                     94                     95                     96
                      A                      A                      A
 Frequencies --   3467.6378              3554.2614              3639.3521
 Red. masses --      1.0497                 1.0928                 1.0788
 Frc consts  --      7.4370                 8.1338                 8.4183
 IR Inten    --      0.2230                 0.3654                37.5251

 - Thermochemistry -
 -------------------
 Temperature   298.150 Kelvin.  Pressure   1.00000 Atm.
 Atom     1 has atomic number  6 and mass  12.00000

 Molecular mass:   244.13241 amu.
 Principal axes and moments of inertia in atomic units:
                           1         2         3
     Eigenvalues --  2501.468107018.816948084.79411
           X            0.99974  -0.02259  -0.00370
           Y            0.02260   0.99974   0.00068
           Z            0.00368  -0.00077   0.99999
 This molecule is an asymmetric top.
 Rotational symmetry number  1.
 Warning -- assumption of classical behavior for rotation
           may cause significant error
 Rotational temperatures (Kelvin)      0.03463     0.01234     0.01071
 Rotational constants (GHZ):           0.72147     0.25713     0.22323
 Zero-point vibrational energy     738140.3 (Joules/Mol)
                                  176.41977 (Kcal/Mol)
 Warning -- explicit consideration of  27 degrees of freedom as
           vibrations may cause significant error
 Vibrational temperatures:      8.51    45.51    61.81    96.14   121.28
          (Kelvin)            148.52   168.76   217.05   273.68   282.16
                              323.27   358.98   369.41   411.44   431.01
                              473.11   503.69   551.54   568.84   641.42
                              671.73   693.89   730.19   745.52   810.91
                              814.26   854.54   959.31   992.29  1027.94
                             1040.46  1089.42  1146.97  1159.60  1194.46
                             1210.11  1216.32  1243.56  1248.91  1341.22
                             1354.90  1363.15  1394.19  1475.16  1494.81
                             1546.57  1588.12  1606.07  1638.42  1655.44
                             1696.36  1715.02  1733.57  1778.15  1791.89
                             1807.44  1813.26  1856.89  1885.74  1900.58
                             1958.68  1979.30  1993.40  2006.31  2020.98
                             2036.27  2057.86  2066.52  2136.99  2167.26
                             2175.56  2191.82  2203.95  2216.04  2226.02
                             2370.23  2424.99  2450.21  2676.62  3410.92
                             4326.84  4386.00  4390.20  4391.47  4401.67
                             4454.92  4460.46  4470.99  4489.70  4505.00
                             4580.31  4611.02  4634.67  4989.16  5113.79
                             5236.22

 Zero-point correction=                           0.281143 (Hartree/Particle)
 Thermal correction to Energy=                    0.298482
 Thermal correction to Enthalpy=                  0.299426
 Thermal correction to Gibbs Free Energy=         0.233305
 Sum of electronic and zero-point Energies=           -799.015905
 Sum of electronic and thermal Energies=              -798.998566
 Sum of electronic and thermal Enthalpies=            -798.997622
 Sum of electronic and thermal Free Energies=         -799.063743

                     E (Thermal)             CV                S
                      KCal/Mol        Cal/Mol-Kelvin    Cal/Mol-Kelvin
 Total                  187.300             65.113            139.162
 Electronic               0.000              0.000              0.000
 Translational            0.889              2.981             42.378
 Rotational               0.889              2.981             33.317
 Vibrational            185.523             59.151             63.466
 Vibration     1          0.593              1.987              9.055
 Vibration     2          0.594              1.983              5.724
 Vibration     3          0.595              1.980              5.118
 Vibration     4          0.598              1.970              4.245
 Vibration     5          0.601              1.960              3.788
 Vibration     6          0.605              1.947              3.393
 Vibration     7          0.608              1.935              3.144
 Vibration     8          0.618              1.902              2.661
 Vibration     9          0.634              1.853              2.226
 Vibration    10          0.636              1.845              2.169
 Vibration    11          0.649              1.803              1.921
 Vibration    12          0.662              1.764              1.734
 Vibration    13          0.666              1.751              1.684
 Vibration    14          0.684              1.700              1.498
 Vibration    15          0.692              1.675              1.419
 Vibration    16          0.712              1.618              1.266
 Vibration    17          0.727              1.575              1.166
 Vibration    18          0.753              1.506              1.026
 Vibration    19          0.762              1.480              0.980
 Vibration    20          0.805              1.370              0.809
 Vibration    21          0.824              1.324              0.746
 Vibration    22          0.839              1.289              0.704
 Vibration    23          0.863              1.233              0.640
 Vibration    24          0.873              1.210              0.614
 Vibration    25          0.919              1.110              0.517
 Vibration    26          0.922              1.105              0.512
 Vibration    27          0.952              1.045              0.460

 Optimization completed.
    -- Stationary point found.
 Normal termination of Gaussian 16 at Fri Dec 11 19:09:15 2020.

 ----------------------------------------------------------------------
 # B3LYP/6-311++G(d,p) empiricaldispersion=gd3bj scf=xqc pop=npa geom=c
 heck
 ----------------------------------------------------------------------

 --------------------------------------
 CID_54988697_JID_8109_Energie_neutraal
 --------------------------------------
 Structure from the checkpoint file:  "JID_8109.chk"
 Charge =  0 Multiplicity = 1

 SCF Done:  E(RB3LYP) =  -799.523934295     A.U. after   16 cycles
 Normal termination of Gaussian 16 at Fri Dec 11 19:15:16 2020.

 ----------------------------------------------------------------------
 # B3LYP/6-311++G(d,p) empiricaldispersion=gd3bj scf=xqc pop=npa geom=c
 heck
 ----------------------------------------------------------------------

 ------------------------------------
 CID_54988697_JID_8109_Energie_kation
 ------------------------------------
 Structure from the checkpoint file:  "JID_8109.chk"
 Charge =  1 Multiplicity = 2

 SCF Done:  E(UB3LYP) =  -799.245860464     A.U. after   25 cycles
 Normal termination of Gaussian 16 at Fri Dec 11 19:28:03 2020.
 Gaussian 16:  ES64L-G16RevA.03 25-Dec-2016

 ----------------------------------------------------------------------
 # B3LYP/6-311++G(d,p) empiricaldispersion=gd3bj scf=xqc pop=npa geom=c
 heck
 ----------------------------------------------------------------------

 -----------------------------------
 CID_54988697_JID_8109_Energie_anion
 -----------------------------------
 Structure from the checkpoint file:  "JID_8109.chk"
 Charge = -1 Multiplicity = 2

                         Standard orientation:
 ---------------------------------------------------------------------
 Center     Atomic      Atomic             Coordinates (Angstroms)
 Number     Number       Type             X           Y           Z
 ---------------------------------------------------------------------
      1          6           0        3.157798   -2.416646    1.145181
      2          6           0        2.908998   -1.962425   -0.296937
      3          7           0        2.415946   -0.582732   -0.436115
      4          6           0        3.377151    0.444787   -0.069883
      5          6           0        3.197429    1.733753   -0.900041
      6          6           0        2.014354    2.534414   -0.572223
      7          7           0        1.099623    3.203387   -0.322136
      8          6           0        1.061959   -0.399123   -0.013178
      9          6           0        0.052810   -0.839025   -0.889863
     10          6           0       -1.268008   -0.664864   -0.510891
     11          6           0       -1.621522   -0.056253    0.705365
     12          6           0       -0.624503    0.372921    1.561902
     13          6           0        0.718850    0.188789    1.210086
     14          6           0       -3.133490    0.033672    0.794494
     15          6           0       -3.587807   -0.567786   -0.567317
     16          8           0       -4.714224   -0.669735   -0.999711
     17          7           0       -2.433235   -0.988053   -1.215868
     18          7           0       -3.739407    1.344306    1.014141
     19          1           0        3.931435   -1.809406    1.628988
     20          1           0        3.489332   -3.460828    1.167915
     21          1           0        2.241281   -2.334749    1.738630
     22          1           0        3.830606   -2.045977   -0.886196
     23          1           0        2.171386   -2.619960   -0.767458
     24          1           0        3.396074    0.696527    1.001416
     25          1           0        4.370679    0.055168   -0.312906
     26          1           0        4.078088    2.373070   -0.761211
     27          1           0        3.149602    1.460156   -1.959809
     28          1           0        0.327040   -1.266997   -1.848976
     29          1           0       -0.874791    0.856302    2.503042
     30          1           0        1.493741    0.528784    1.887082
     31          1           0       -3.520548   -0.637655    1.573026
     32          1           0       -2.462576   -1.374421   -2.148848
     33          1           0       -3.506580    1.667498    1.951389
     34          1           0       -3.325576    2.018725    0.371277
 ---------------------------------------------------------------------

 SCF Done:  E(UB3LYP) =  -799.521931552     A.U. after   32 cycles

 The electronic state is 2-A.
 Alpha  occ. eigenvalues --  -19.00523 -14.26118 -14.22122 -14.21045 -14.20845
 Alpha  occ. eigenvalues --  -10.18101 -10.12342 -10.12175 -10.11902 -10.11808
 Alpha  occ. eigenvalues --  -10.11187 -10.10919 -10.10656 -10.08049 -10.07799
 Alpha  occ. eigenvalues --  -10.07323 -10.07095 -10.06760  -0.95630  -0.86894
 Alpha  occ. eigenvalues --   -0.84767  -0.80803  -0.80042  -0.74663  -0.70226
 Alpha  occ. eigenvalues --   -0.67293  -0.65097  -0.64184  -0.60595  -0.56666
 Alpha  occ. eigenvalues --   -0.53091  -0.52371  -0.50591  -0.47489  -0.44277
 Alpha  occ. eigenvalues --   -0.42245  -0.41560  -0.40166  -0.39665  -0.38625
 Alpha  occ. eigenvalues --   -0.36765  -0.36542  -0.35172  -0.34547  -0.34131
 Alpha  occ. eigenvalues --   -0.32836  -0.32283  -0.31951  -0.30898  -0.29828
 Alpha  occ. eigenvalues --   -0.28975  -0.28661  -0.28173  -0.27462  -0.26573
 Alpha  occ. eigenvalues --   -0.26137  -0.25495  -0.23533  -0.23058  -0.21551
 Alpha  occ. eigenvalues --   -0.17805  -0.17148  -0.15447  -0.13379  -0.11329
 Alpha  occ. eigenvalues --    0.03549
 Alpha virt. eigenvalues --    0.05153   0.06623   0.07008   0.07310   0.07892
 Alpha virt. eigenvalues --    0.08176   0.09088   0.09277   0.09537   0.09865
 Alpha virt. eigenvalues --    0.10745   0.11150   0.11368   0.11902   0.12127

  Beta  occ. eigenvalues --  -19.00472 -14.26118 -14.22117 -14.21013 -14.20797
  Beta  occ. eigenvalues --  -10.18039 -10.12340 -10.12185 -10.11873 -10.11765
  Beta  occ. eigenvalues --  -10.11181 -10.10831 -10.10630 -10.08011 -10.07798
  Beta  occ. eigenvalues --  -10.07242 -10.07106 -10.06737  -0.95532  -0.86839
  Beta  occ. eigenvalues --   -0.84699  -0.80750  -0.79943  -0.74586  -0.70154
  Beta  occ. eigenvalues --   -0.67173  -0.65041  -0.64114  -0.60476  -0.56585
  Beta  occ. eigenvalues --   -0.53034  -0.52315  -0.50531  -0.47380  -0.44222
  Beta  occ. eigenvalues --   -0.42188  -0.41461  -0.40074  -0.39595  -0.38571
  Beta  occ. eigenvalues --   -0.36680  -0.36419  -0.35112  -0.34484  -0.34073
  Beta  occ. eigenvalues --   -0.32787  -0.32201  -0.31873  -0.30835  -0.29753
  Beta  occ. eigenvalues --   -0.28911  -0.28582  -0.27949  -0.27391  -0.26519
  Beta  occ. eigenvalues --   -0.26077  -0.25459  -0.23376  -0.23025  -0.21374
  Beta  occ. eigenvalues --   -0.17696  -0.16939  -0.15356  -0.13281  -0.11107
  Beta virt. eigenvalues --    0.05859   0.06253   0.07020   0.07392   0.07627
  Beta virt. eigenvalues --    0.08190   0.08479   0.09435   0.09662   0.09690
  Beta virt. eigenvalues --    0.10057   0.10967   0.11399   0.11552   0.12187

 Mulliken charges and spin densities:
               1          2
     1  C    0.198196  -0.742979
     2  C   -0.249953   0.205020
     3  N    0.323347   0.027099
     4  C    0.499519  -0.686986
     5  C    0.494446  -0.647551
     6  C    0.070962  -0.112223
     7  N   -0.333451   0.048436
     8  C   -0.170718  -0.023838
     9  C   -0.341409  -0.000098
    10  C   -0.298204   0.533081
    11  C    0.178931   0.170048
    12  C    0.369827  -0.990986
    13  C   -0.453899  -0.075066
    14  C    0.458778  -0.488538
    15  C   -0.078289   0.039703
    16  O   -0.359108   0.020283
    17  N   -0.195018   0.014718
    18  N   -0.168294  -0.093729
    19  H   -0.037367   0.183990
    20  H   -0.280557   0.427172
    21  H    0.103699   0.042709
    22  H   -0.081941   0.248581
    23  H   -0.007654   0.124848
    24  H    0.131431  -0.005627
    25  H   -0.957898   1.152871
    26  H   -0.385778   0.602329
    27  H    0.145797   0.024928
    28  H    0.016878   0.121054
    29  H   -0.090865   0.246758
    30  H    0.013708   0.128756
    31  H   -0.113458   0.324043
    32  H    0.261749   0.043665
    33  H    0.141555   0.101672
    34  H    0.195039   0.035856
 Sum of Mulliken charges =  -1.00000   1.00000

 Dipole moment (field-independent basis, Debye):
    X=             -1.6377    Y=             -1.6810    Z=             -0.8562  Tot=              2.4982
 Quadrupole moment (field-independent basis, Debye-Ang):
   XX=           -223.3976   YY=           -148.8061   ZZ=           -125.7206
   XY=              0.3728   XZ=              0.0509   YZ=              4.6438

 Summary of Natural Population Analysis:

                                       Natural Population
                Natural  -----------------------------------------------
    Atom  No    Charge         Core      Valence    Rydberg      Total
 -----------------------------------------------------------------------
      C    1   -0.30023      0.99966     2.29518    0.00539     3.30023
      C    2   -0.07532      0.99961     2.06460    0.01110     3.07532
      N    3   -0.28981      0.99969     2.77140    0.01871     3.78981
      C    4   -0.07762      0.99960     2.06315    0.01488     3.07762
      C    5   -0.24882      0.99953     2.23967    0.00962     3.24882
      C    6    0.15913      0.99966     1.82364    0.01757     2.84087
      N    7   -0.18223      0.99979     2.67162    0.01082     3.68223
      C    8    0.13550      0.99949     1.85480    0.01021     2.86450
      C    9   -0.14005      0.99951     2.12757    0.01296     3.14005
      C   10    0.09034      0.99942     1.89961    0.01063     2.90966
      C   11   -0.03184      0.99945     2.02255    0.00985     3.03184
      C   12   -0.08424      0.99954     2.07088    0.01382     3.08424
      C   13   -0.12231      0.99955     2.11495    0.00781     3.12231
      C   14   -0.05767      0.99954     2.04436    0.01377     3.05767
      C   15    0.35620      0.99969     1.61979    0.02432     2.64380
      O   16   -0.29979      0.99987     3.29396    0.00596     4.29979
      N   17   -0.31003      0.99964     2.80204    0.00836     3.81003
      N   18   -0.40592      0.99977     2.89608    0.01007     3.90592
      H   19    0.09790      0.00000     0.40099    0.00111     0.40210
      H   20    0.09951      0.00000     0.39943    0.00106     0.40049
      H   21    0.10201      0.00000     0.39681    0.00118     0.39799
      H   22    0.09282      0.00000     0.40586    0.00132     0.40718
      H   23    0.09467      0.00000     0.40410    0.00123     0.40533
      H   24    0.08626      0.00000     0.41139    0.00235     0.41374
      H   25    0.10715      0.00000     0.38868    0.00417     0.39285
      H   26    0.12290      0.00000     0.37477    0.00234     0.37710
      H   27    0.12028      0.00000     0.37782    0.00189     0.37972
      H   28    0.10323      0.00000     0.39490    0.00187     0.39677
      H   29    0.09917      0.00000     0.39948    0.00135     0.40083
      H   30    0.09996      0.00000     0.39801    0.00203     0.40004
      H   31    0.11178      0.00000     0.38635    0.00188     0.38822
      H   32    0.19763      0.00000     0.29994    0.00243     0.30237
      H   33    0.17455      0.00000     0.32372    0.00173     0.32545
      H   34    0.17508      0.00000     0.32323    0.00169     0.32492
 =======================================================================
   * Total *    0.00018     17.99301    46.76132    0.24549    64.99982

 Normal termination of Gaussian 16 at Fri Dec 11 19:44:20 2020.
