 Gaussian 16, Revision A.03,

 -----------------------------------------------------------
 # opt freq B3LYP/6-31G(d) empiricaldispersion=gd3bj scf=xqc
 -----------------------------------------------------------

 ------------------------------
 CID_53562458_JID_9156_neutraal
 ------------------------------
 Symbolic Z-matrix:
 Charge =  0 Multiplicity = 1

 SCF Done:  E(RB3LYP) =  -1552.49464172     A.U. after   15 cycles
 SCF Done:  E(RB3LYP) =  -1552.50248361     A.U. after   13 cycles
 SCF Done:  E(RB3LYP) =  -1552.50370963     A.U. after   13 cycles
 SCF Done:  E(RB3LYP) =  -1552.50394201     A.U. after   12 cycles
 SCF Done:  E(RB3LYP) =  -1552.50421497     A.U. after   12 cycles
 SCF Done:  E(RB3LYP) =  -1552.50454391     A.U. after   14 cycles
 SCF Done:  E(RB3LYP) =  -1552.50488821     A.U. after   14 cycles
 SCF Done:  E(RB3LYP) =  -1552.50535006     A.U. after   12 cycles
 SCF Done:  E(RB3LYP) =  -1552.50565074     A.U. after   13 cycles
 SCF Done:  E(RB3LYP) =  -1552.50556813     A.U. after   11 cycles
 SCF Done:  E(RB3LYP) =  -1552.50648719     A.U. after   11 cycles
 SCF Done:  E(RB3LYP) =  -1552.50649071     A.U. after   10 cycles
 SCF Done:  E(RB3LYP) =  -1552.50649133     A.U. after    9 cycles
 SCF Done:  E(RB3LYP) =  -1552.50649146     A.U. after    7 cycles
 SCF Done:  E(RB3LYP) =  -1552.50649148     A.U. after    7 cycles
 Optimization completed.
    -- Stationary point found.
 Normal termination of Gaussian 16 at Mon Dec 14 17:04:21 2020.

 --------------------------------------------------------------------
 #N Geom=AllCheck Guess=TCheck SCRF=Check GenChk RB3LYP/6-31G(d) Freq
 --------------------------------------------------------------------

 Structure from the checkpoint file:  "JID_9156.chk"
 ------------------------------
 CID_53562458_JID_9156_neutraal
 ------------------------------
 Charge =  0 Multiplicity = 1

 SCF Done:  E(RB3LYP) =  -1552.50649148     A.U. after    1 cycles

  Exact polarizability: 261.169 -12.067 162.819 -18.210  -7.166 141.000
 Approx polarizability: 340.856 -20.654 275.638 -49.395 -24.315 256.590

                      1                      2                      3
                      A                      A                      A
 Frequencies --     17.2932                26.6376                30.3256
 Red. masses --      5.7991                 4.0122                 4.8449
 Frc consts  --      0.0010                 0.0017                 0.0026
 IR Inten    --      1.8051                 0.9567                 1.9627

                      4                      5                      6
                      A                      A                      A
 Frequencies --     60.7567                79.4900                92.2378
 Red. masses --      3.5282                 4.4684                 1.5783
 Frc consts  --      0.0077                 0.0166                 0.0079
 IR Inten    --      4.2322                 0.7189                 0.3238

                      7                      8                      9
                      A                      A                      A
 Frequencies --     97.2307               109.3941               163.2473
 Red. masses --      1.9611                 1.0638                 3.6087
 Frc consts  --      0.0109                 0.0075                 0.0567
 IR Inten    --      0.1466                 0.0460                 2.2403

                     10                     11                     12
                      A                      A                      A
 Frequencies --    168.7394               194.3150               204.7595
 Red. masses --      5.5805                 5.7631                 3.2127
 Frc consts  --      0.0936                 0.1282                 0.0794
 IR Inten    --      0.6175                 1.3090                 0.5707

                     13                     14                     15
                      A                      A                      A
 Frequencies --    223.1291               252.8041               261.1109
 Red. masses --      1.0649                 1.9398                 2.1095
 Frc consts  --      0.0312                 0.0730                 0.0847
 IR Inten    --      0.0745                 3.0096                 1.6112

                     16                     17                     18
                      A                      A                      A
 Frequencies --    269.6734               282.4104               286.7882
 Red. masses --      3.1064                 4.5341                 3.6075
 Frc consts  --      0.1331                 0.2131                 0.1748
 IR Inten    --      4.0698                 0.3360                 0.2130

                     19                     20                     21
                      A                      A                      A
 Frequencies --    311.1418               312.7003               375.9019
 Red. masses --      4.2644                 6.9417                 3.9628
 Frc consts  --      0.2432                 0.3999                 0.3299
 IR Inten    --      1.0539                 3.0852                 2.3463

                     22                     23                     24
                      A                      A                      A
 Frequencies --    418.9742               443.0212               459.5300
 Red. masses --      4.9601                 4.9922                 6.9830
 Frc consts  --      0.5130                 0.5773                 0.8688
 IR Inten    --      2.2738                 0.5985                 0.4250

                     25                     26                     27
                      A                      A                      A
 Frequencies --    478.7708               544.0486               551.9426
 Red. masses --      8.5920                 7.2132                 8.8040
 Frc consts  --      1.1604                 1.2579                 1.5802
 IR Inten    --      4.5283                 5.9909                 1.1981

                     28                     29                     30
                      A                      A                      A
 Frequencies --    579.9769               631.1218               638.5017
 Red. masses --      4.4313                 9.4464                 3.7351
 Frc consts  --      0.8782                 2.2169                 0.8972
 IR Inten    --      2.9797                 1.1442                 2.8581

                     31                     32                     33
                      A                      A                      A
 Frequencies --    652.5025               673.8920               691.2135
 Red. masses --      4.4174                 9.1466                 9.3433
 Frc consts  --      1.1081                 2.4473                 2.6301
 IR Inten    --      4.2450                 2.3799                 2.0229

                     34                     35                     36
                      A                      A                      A
 Frequencies --    701.9419               715.6665               733.6204
 Red. masses --      1.3447                 7.3319                 4.1332
 Frc consts  --      0.3904                 2.2125                 1.3106
 IR Inten    --     23.9508                10.4043                 6.3531

                     37                     38                     39
                      A                      A                      A
 Frequencies --    751.3801               831.2917               898.6910
 Red. masses --      6.8524                 7.2244                 2.6336
 Frc consts  --      2.2794                 2.9414                 1.2532
 IR Inten    --      2.9852                 3.0069                 0.5555

                     40                     41                     42
                      A                      A                      A
 Frequencies --    948.7869               980.5029               985.2038
 Red. masses --      1.1555                 1.6101                 4.2452
 Frc consts  --      0.6128                 0.9120                 2.4277
 IR Inten    --      1.3054                 0.3837                24.6665

                     43                     44                     45
                      A                      A                      A
 Frequencies --    994.2928              1011.0060              1029.8930
 Red. masses --      3.5660                 3.1149                 2.6292
 Frc consts  --      2.0771                 1.8758                 1.6431
 IR Inten    --      3.6716                13.8184                35.1573

                     46                     47                     48
                      A                      A                      A
 Frequencies --   1078.7781              1082.0814              1123.6821
 Red. masses --      1.4767                 4.7196                 1.8500
 Frc consts  --      1.0125                 3.2560                 1.3763
 IR Inten    --      2.8212                 3.1339                 8.9002

                     49                     50                     51
                      A                      A                      A
 Frequencies --   1126.3214              1142.3151              1148.1122
 Red. masses --      2.0508                 2.5793                 3.3507
 Frc consts  --      1.5328                 1.9830                 2.6023
 IR Inten    --     28.1134                15.3721                 9.6264

                     52                     53                     54
                      A                      A                      A
 Frequencies --   1163.2547              1167.2189              1197.8806
 Red. masses --      1.3835                 2.2353                 2.4702
 Frc consts  --      1.1030                 1.7943                 2.0884
 IR Inten    --      6.0799                 8.2456                 0.5988

                     55                     56                     57
                      A                      A                      A
 Frequencies --   1239.6277              1308.2889              1343.5179
 Red. masses --      2.9014                 4.9086                 2.3809
 Frc consts  --      2.6269                 4.9501                 2.5320
 IR Inten    --      0.0215                71.1409                 7.0266

                     58                     59                     60
                      A                      A                      A
 Frequencies --   1344.1814              1353.7802              1378.9829
 Red. masses --      4.9122                 1.5167                 2.8705
 Frc consts  --      5.2292                 1.6377                 3.2161
 IR Inten    --     69.7556                 4.0572                18.3518

                     61                     62                     63
                      A                      A                      A
 Frequencies --   1427.1540              1428.2941              1444.9970
 Red. masses --      1.2563                 3.4980                 2.6328
 Frc consts  --      1.5077                 4.2044                 3.2389
 IR Inten    --      6.4839                 5.3850                16.0500

                     64                     65                     66
                      A                      A                      A
 Frequencies --   1448.3133              1450.4740              1460.6148
 Red. masses --      1.4169                 2.1907                 1.8550
 Frc consts  --      1.7511                 2.7156                 2.3317
 IR Inten    --      1.1502                 1.7358                19.1644

                     67                     68                     69
                      A                      A                      A
 Frequencies --   1504.4667              1506.6947              1513.1131
 Red. masses --      1.0438                 1.6211                 1.2743
 Frc consts  --      1.3920                 2.1683                 1.7190
 IR Inten    --      5.3484                34.5947                18.0760

                     70                     71                     72
                      A                      A                      A
 Frequencies --   1513.1936              1517.2936              1520.2654
 Red. masses --      1.3328                 1.2217                 1.0847
 Frc consts  --      1.7981                 1.6571                 1.4770
 IR Inten    --     45.3578                 6.5490                 4.3825

                     73                     74                     75
                      A                      A                      A
 Frequencies --   1523.4214              1526.2902              1529.7506
 Red. masses --      1.3035                 2.8888                 1.0604
 Frc consts  --      1.7824                 3.9650                 1.4621
 IR Inten    --      5.3406                87.1363                17.8143

                     76                     77                     78
                      A                      A                      A
 Frequencies --   1540.7561              1548.7568              1558.4511
 Red. masses --      1.1092                 9.6008                 2.2312
 Frc consts  --      1.5514                13.5682                 3.1928
 IR Inten    --      6.7039                34.8257                43.7508

                     79                     80                     81
                      A                      A                      A
 Frequencies --   1596.2276              3032.0195              3052.6016
 Red. masses --      4.3879                 1.0830                 1.0347
 Frc consts  --      6.5871                 5.8661                 5.6808
 IR Inten    --     16.3102                14.9119                25.1211

                     82                     83                     84
                      A                      A                      A
 Frequencies --   3053.2234              3065.8278              3075.2474
 Red. masses --      1.0361                 1.0360                 1.0379
 Frc consts  --      5.6906                 5.7372                 5.7830
 IR Inten    --     34.6131                22.7967                15.7038

                     85                     86                     87
                      A                      A                      A
 Frequencies --   3109.3803              3119.5470              3132.4557
 Red. masses --      1.1015                 1.1022                 1.1034
 Frc consts  --      6.2743                 6.3198                 6.3789
 IR Inten    --     15.1655                36.3404                 8.4873

                     88                     89                     90
                      A                      A                      A
 Frequencies --   3134.4126              3135.7791              3150.5561
 Red. masses --      1.1021                 1.1030                 1.1025
 Frc consts  --      6.3797                 6.3904                 6.4475
 IR Inten    --     17.2810                37.4052                15.9357

                     91                     92                     93
                      A                      A                      A
 Frequencies --   3151.9996              3180.7974              3312.5550
 Red. masses --      1.0992                 1.1055                 1.0985
 Frc consts  --      6.4345                 6.5899                 7.1018
 IR Inten    --      8.7685                 5.2269                 1.5681

 - Thermochemistry -
 -------------------
 Temperature   298.150 Kelvin.  Pressure   1.00000 Atm.
 Atom     1 has atomic number  6 and mass  12.00000

 Molecular mass:   294.07214 amu.
 Principal axes and moments of inertia in atomic units:
                           1         2         3
     Eigenvalues --  2641.74072********************
           X            0.99995   0.00931   0.00379
           Y           -0.00933   0.99994   0.00531
           Z           -0.00374  -0.00534   0.99998
 This molecule is an asymmetric top.
 Rotational symmetry number  1.
 Warning -- assumption of classical behavior for rotation
           may cause significant error
 Rotational temperatures (Kelvin)      0.03279     0.00780     0.00718
 Rotational constants (GHZ):           0.68316     0.16256     0.14970
 Zero-point vibrational energy     667688.6 (Joules/Mol)
                                  159.58140 (Kcal/Mol)
 Warning -- explicit consideration of  28 degrees of freedom as
           vibrations may cause significant error
 Vibrational temperatures:     24.88    38.33    43.63    87.42   114.37
          (Kelvin)            132.71   139.89   157.39   234.88   242.78
                              279.58   294.60   321.03   363.73   375.68
                              388.00   406.33   412.62   447.66   449.91
                              540.84   602.81   637.41   661.16   688.84
                              782.76   794.12   834.46   908.04   918.66
                              938.81   969.58   994.50  1009.94  1029.68
                             1055.52  1081.07  1196.04  1293.02  1365.09
                             1410.72  1417.49  1430.57  1454.61  1481.79
                             1552.12  1556.87  1616.73  1620.53  1643.54
                             1651.88  1673.66  1679.37  1723.48  1783.55
                             1882.34  1933.02  1933.98  1947.79  1984.05
                             2053.36  2055.00  2079.03  2083.80  2086.91
                             2101.50  2164.59  2167.80  2177.03  2177.15
                             2183.05  2187.32  2191.86  2195.99  2200.97
                             2216.80  2228.32  2242.26  2296.62  4362.40
                             4392.01  4392.91  4411.04  4424.60  4473.70
                             4488.33  4506.91  4509.72  4511.69  4532.95
                             4535.02  4576.46  4766.03

 Zero-point correction=                           0.254309 (Hartree/Particle)
 Thermal correction to Energy=                    0.273303
 Thermal correction to Enthalpy=                  0.274247
 Thermal correction to Gibbs Free Energy=         0.204373
 Sum of electronic and zero-point Energies=          -1552.252182
 Sum of electronic and thermal Energies=             -1552.233188
 Sum of electronic and thermal Enthalpies=           -1552.232244
 Sum of electronic and thermal Free Energies=        -1552.302118

                     E (Thermal)             CV                S
                      KCal/Mol        Cal/Mol-Kelvin    Cal/Mol-Kelvin
 Total                  171.500             68.845            147.062
 Electronic               0.000              0.000              0.000
 Translational            0.889              2.981             42.933
 Rotational               0.889              2.981             34.224
 Vibrational            169.723             62.884             69.905
 Vibration     1          0.593              1.986              6.923
 Vibration     2          0.593              1.984              6.065
 Vibration     3          0.594              1.984              5.808
 Vibration     4          0.597              1.973              4.432
 Vibration     5          0.600              1.963              3.903
 Vibration     6          0.602              1.955              3.612
 Vibration     7          0.603              1.951              3.509
 Vibration     8          0.606              1.942              3.280
 Vibration     9          0.623              1.888              2.512
 Vibration    10          0.625              1.881              2.449
 Vibration    11          0.635              1.848              2.186
 Vibration    12          0.640              1.833              2.090
 Vibration    13          0.649              1.806              1.934
 Vibration    14          0.664              1.758              1.711
 Vibration    15          0.669              1.744              1.654
 Vibration    16          0.674              1.729              1.598
 Vibration    17          0.681              1.706              1.519
 Vibration    18          0.684              1.698              1.493
 Vibration    19          0.700              1.652              1.356
 Vibration    20          0.701              1.649              1.348
 Vibration    21          0.747              1.521              1.056
 Vibration    22          0.782              1.429              0.895
 Vibration    23          0.803              1.376              0.817
 Vibration    24          0.817              1.340              0.767
 Vibration    25          0.835              1.297              0.713
 Vibration    26          0.899              1.153              0.557
 Vibration    27          0.907              1.135              0.540
 Vibration    28          0.937              1.075              0.485

                           ! Non-Optimized Parameters !
 Normal termination of Gaussian 16 at Mon Dec 14 17:20:17 2020.

 ----------------------------------------------------------------------
 # B3LYP/6-311++G(d,p) empiricaldispersion=gd3bj scf=xqc pop=npa geom=c
 heck
 ----------------------------------------------------------------------

 --------------------------------------
 CID_53562458_JID_9156_Energie_neutraal
 --------------------------------------
 Structure from the checkpoint file:  "JID_9156.chk"
 Charge =  0 Multiplicity = 1

 SCF Done:  E(RB3LYP) =  -1552.75468069     A.U. after   17 cycles
 Normal termination of Gaussian 16 at Mon Dec 14 17:28:16 2020.

 ----------------------------------------------------------------------
 # B3LYP/6-311++G(d,p) empiricaldispersion=gd3bj scf=xqc pop=npa geom=c
 heck
 ----------------------------------------------------------------------

 ------------------------------------
 CID_53562458_JID_9156_Energie_kation
 ------------------------------------
 Structure from the checkpoint file:  "JID_9156.chk"
 Charge =  1 Multiplicity = 2

 SCF Done:  E(UB3LYP) =  -1552.45881376     A.U. after   27 cycles
 Normal termination of Gaussian 16 at Mon Dec 14 17:46:43 2020.
 Gaussian 16:  ES64L-G16RevA.03 25-Dec-2016

 ----------------------------------------------------------------------
 # B3LYP/6-311++G(d,p) empiricaldispersion=gd3bj scf=xqc pop=npa geom=c
 heck
 ----------------------------------------------------------------------

 -----------------------------------
 CID_53562458_JID_9156_Energie_anion
 -----------------------------------
 Structure from the checkpoint file:  "JID_9156.chk"
 Charge = -1 Multiplicity = 2

                         Standard orientation:
 ---------------------------------------------------------------------
 Center     Atomic      Atomic             Coordinates (Angstroms)
 Number     Number       Type             X           Y           Z
 ---------------------------------------------------------------------
      1          6           0       -5.859451    1.829630    0.235233
      2          6           0       -4.600279    1.029901    0.150526
      3          6           0       -4.249077   -0.080832    0.888778
      4          7           0       -3.001701   -0.437598    0.407358
      5          6           0       -2.673391    0.471208   -0.576117
      6          7           0       -3.602810    1.371679   -0.762475
      7         16           0       -1.082803    0.075943   -1.200675
      8          6           0       -1.050866   -1.257774   -0.012249
      9          7           0       -2.092739   -1.390988    0.749012
     10         16           0        0.300442   -2.395050    0.087206
     11          6           0        1.613161   -1.282760   -0.280311
     12          7           0        2.339599   -1.314410   -1.376331
     13          7           0        3.267628   -0.304654   -1.275387
     14          6           0        3.072948    0.319835   -0.127718
     15          7           0        2.043658   -0.273275    0.558182
     16          6           0        1.446761    0.139843    1.818681
     17          6           0        3.884697    1.472696    0.388551
     18          6           0        4.981779    0.967323    1.347472
     19          6           0        4.489126    2.271013   -0.774078
     20          1           0       -5.640573    2.878170    0.466887
     21          1           0       -6.522586    1.435115    1.010926
     22          1           0       -6.397109    1.813285   -0.719636
     23          1           0       -4.742164   -0.634673    1.670719
     24          1           0        2.222567    0.523288    2.482450
     25          1           0        0.691159    0.914465    1.653035
     26          1           0        0.972549   -0.724712    2.285462
     27          1           0        3.212078    2.134166    0.951972
     28          1           0        5.673439    0.309153    0.811640
     29          1           0        5.550318    1.811214    1.752367
     30          1           0        4.565320    0.402377    2.189029
     31          1           0        3.708013    2.668148   -1.428829
     32          1           0        5.079500    3.107305   -0.385551
     33          1           0        5.137379    1.632634   -1.380088
 ---------------------------------------------------------------------

 SCF Done:  E(UB3LYP) =  -1552.76056530     A.U. after   33 cycles
 SCF Done:  E(UB3LYP) =  -1552.76056530     a.u. after    1 cycles

 The electronic state is 2-A.
 Alpha  occ. eigenvalues --  -88.77318 -88.77285 -14.29456 -14.28484 -14.22624
 Alpha  occ. eigenvalues --  -14.22468 -14.22137 -14.19254 -10.15164 -10.14163
 Alpha  occ. eigenvalues --  -10.13828 -10.13024 -10.12267 -10.10533 -10.09704
 Alpha  occ. eigenvalues --  -10.09526 -10.08083 -10.08019 -10.07429  -7.85870
 Alpha  occ. eigenvalues --   -7.85794  -5.82203  -5.82200  -5.81871  -5.81822
 Alpha  occ. eigenvalues --   -5.81350  -5.81160  -0.96627  -0.96280  -0.85117
 Alpha  occ. eigenvalues --   -0.83122  -0.75948  -0.74198  -0.70239  -0.69369
 Alpha  occ. eigenvalues --   -0.66113  -0.64829  -0.63770  -0.60374  -0.58313
 Alpha  occ. eigenvalues --   -0.55072  -0.52039  -0.49360  -0.47801  -0.47273
 Alpha  occ. eigenvalues --   -0.45395  -0.42033  -0.39680  -0.38029  -0.37553
 Alpha  occ. eigenvalues --   -0.37414  -0.36623  -0.36313  -0.35037  -0.33106
 Alpha  occ. eigenvalues --   -0.32739  -0.32562  -0.31534  -0.30737  -0.30298
 Alpha  occ. eigenvalues --   -0.29920  -0.27997  -0.27515  -0.26969  -0.26383
 Alpha  occ. eigenvalues --   -0.26087  -0.25320  -0.22203  -0.21399  -0.20811
 Alpha  occ. eigenvalues --   -0.19422  -0.17989  -0.17100  -0.16117  -0.15556
 Alpha  occ. eigenvalues --   -0.12965  -0.11535   0.03600
 Alpha virt. eigenvalues --    0.05429   0.06744   0.07424   0.07911   0.08264
 Alpha virt. eigenvalues --    0.08904   0.09179   0.10204   0.10297   0.10496
 Alpha virt. eigenvalues --    0.10913   0.11319   0.11689   0.12103   0.12222

  Beta  occ. eigenvalues --  -88.77297 -88.77291 -14.29511 -14.28446 -14.22438
  Beta  occ. eigenvalues --  -14.22228 -14.22142 -14.19265 -10.15109 -10.14075
  Beta  occ. eigenvalues --  -10.13821 -10.12556 -10.12239 -10.10520 -10.09677
  Beta  occ. eigenvalues --  -10.09502 -10.08086 -10.07991 -10.07422  -7.85851
  Beta  occ. eigenvalues --   -7.85797  -5.82213  -5.82202  -5.81871  -5.81834
  Beta  occ. eigenvalues --   -5.81262  -5.81163  -0.96574  -0.96056  -0.84814
  Beta  occ. eigenvalues --   -0.83065  -0.75774  -0.74054  -0.70167  -0.69151
  Beta  occ. eigenvalues --   -0.65937  -0.64770  -0.63704  -0.60335  -0.58179
  Beta  occ. eigenvalues --   -0.55028  -0.51776  -0.49280  -0.47718  -0.47220
  Beta  occ. eigenvalues --   -0.45180  -0.41977  -0.39566  -0.37760  -0.37299
  Beta  occ. eigenvalues --   -0.37063  -0.36534  -0.36267  -0.34879  -0.33026
  Beta  occ. eigenvalues --   -0.32586  -0.32498  -0.31473  -0.30631  -0.30272
  Beta  occ. eigenvalues --   -0.29875  -0.27822  -0.27376  -0.26744  -0.26129
  Beta  occ. eigenvalues --   -0.25982  -0.24559  -0.21899  -0.21109  -0.20469
  Beta  occ. eigenvalues --   -0.19285  -0.17805  -0.16943  -0.16066  -0.15292
  Beta  occ. eigenvalues --   -0.12130  -0.11064
  Beta virt. eigenvalues --    0.05996   0.06707   0.07763   0.08137   0.08586
  Beta virt. eigenvalues --    0.09030   0.09077   0.09256   0.10201   0.10400
  Beta virt. eigenvalues --    0.10666   0.10993   0.11401   0.11829   0.12214

 Mulliken charges and spin densities:
               1          2
     1  C   -0.480868  -0.008461
     2  C    0.187588  -0.000831
     3  C   -0.277212   0.082360
     4  N    0.245131  -0.036086
     5  C   -0.696857   0.090382
     6  N   -0.067578  -0.000971
     7  S    0.464109  -0.055972
     8  C   -0.373868   0.174373
     9  N   -0.014501   0.229812
    10  S   -0.061890  -0.185963
    11  C    0.492049  -0.558476
    12  N    0.090690   0.039246
    13  N   -0.078487  -0.010571
    14  C    0.348859  -0.955716
    15  N    0.133223   0.071998
    16  C    0.296651  -0.757429
    17  C   -1.269711   2.026848
    18  C    0.464243  -1.007534
    19  C   -0.436790  -0.298511
    20  H    0.142124   0.005589
    21  H    0.122470  -0.000632
    22  H    0.144627   0.003046
    23  H    0.114985   0.014147
    24  H   -0.389375   0.551535
    25  H    0.087825   0.113575
    26  H   -0.031744   0.218956
    27  H   -0.225751   0.409253
    28  H    0.072442   0.081997
    29  H   -0.276375   0.444163
    30  H   -0.003190   0.127352
    31  H    0.140212   0.017334
    32  H   -0.010777   0.156389
    33  H    0.147744   0.018794
 Sum of Mulliken charges =  -1.00000   1.00000

 Dipole moment (field-independent basis, Debye):
    X=             -2.6815    Y=              0.1875    Z=              1.2973  Tot=              2.9847
 Quadrupole moment (field-independent basis, Debye-Ang):
   XX=           -190.5083   YY=           -157.6977   ZZ=           -159.8521
   XY=             -0.3772   XZ=             -6.5817   YZ=             -4.8547

 Summary of Natural Population Analysis:

                                       Natural Population
                Natural  -----------------------------------------------
    Atom  No    Charge         Core      Valence    Rydberg      Total
 -----------------------------------------------------------------------
      C    1   -0.29470      0.99963     2.29051    0.00456     3.29470
      C    2    0.05796      0.99957     1.92944    0.01303     2.94204
      C    3   -0.04598      0.99949     2.03583    0.01066     3.04598
      N    4   -0.12401      0.99957     2.61198    0.01246     3.62401
      C    5    0.11964      0.99953     1.86131    0.01952     2.88036
      N    6   -0.28157      0.99965     2.76888    0.01304     3.78157
      S    7    0.18448      4.99940     2.79668    0.01944     7.81552
      C    8    0.00314      0.99963     1.97704    0.02019     2.99686
      N    9   -0.10544      0.99959     2.59233    0.01352     3.60544
      S   10    0.16842      4.99938     2.81030    0.02189     7.83158
      C   11    0.09424      0.99953     1.88075    0.02548     2.90576
      N   12   -0.15274      0.99966     2.64018    0.01290     3.65274
      N   13   -0.16958      0.99968     2.65829    0.01161     3.66958
      C   14    0.19797      0.99958     1.78329    0.01917     2.80203
      N   15   -0.21200      0.99955     2.70068    0.01178     3.71200
      C   16   -0.18047      0.99963     2.17306    0.00778     3.18047
      C   17   -0.13602      0.99958     2.12659    0.00985     3.13602
      C   18   -0.27890      0.99965     2.27330    0.00595     3.27890
      C   19   -0.28030      0.99966     2.27398    0.00666     3.28030
      H   20    0.10220      0.00000     0.39662    0.00119     0.39780
      H   21    0.09747      0.00000     0.40177    0.00076     0.40253
      H   22    0.10157      0.00000     0.39724    0.00119     0.39843
      H   23    0.10396      0.00000     0.39521    0.00083     0.39604
      H   24    0.10273      0.00000     0.39607    0.00120     0.39727
      H   25    0.10449      0.00000     0.39407    0.00144     0.39551
      H   26    0.11342      0.00000     0.38493    0.00166     0.38658
      H   27    0.10385      0.00000     0.39385    0.00230     0.39615
      H   28    0.10068      0.00000     0.39839    0.00092     0.39932
      H   29    0.09961      0.00000     0.39939    0.00100     0.40039
      H   30    0.10027      0.00000     0.39867    0.00107     0.39973
      H   31    0.10415      0.00000     0.39512    0.00073     0.39585
      H   32    0.09568      0.00000     0.40364    0.00068     0.40432
      H   33    0.10581      0.00000     0.39312    0.00107     0.39419
 =======================================================================
   * Total *   -0.00000     26.99195    49.73252    0.27553    77.00000

 Normal termination of Gaussian 16 at Mon Dec 14 18:10:11 2020.
