 Gaussian 16, Revision A.03,

 -----------------------------------------------------------
 # opt freq B3LYP/6-31G(d) empiricaldispersion=gd3bj scf=xqc
 -----------------------------------------------------------

 -------------------------------
 CID_130048291_JID_4920_neutraal
 -------------------------------
 Symbolic Z-matrix:
 Charge =  0 Multiplicity = 1

 SCF Done:  E(RB3LYP) =  -682.992865860     A.U. after   15 cycles
 SCF Done:  E(RB3LYP) =  -682.996490172     A.U. after   12 cycles
 SCF Done:  E(RB3LYP) =  -682.996914154     A.U. after   12 cycles
 SCF Done:  E(RB3LYP) =  -682.996947726     A.U. after   11 cycles
 SCF Done:  E(RB3LYP) =  -682.996967623     A.U. after   12 cycles
 SCF Done:  E(RB3LYP) =  -682.997102190     A.U. after   11 cycles
 SCF Done:  E(RB3LYP) =  -682.997195551     A.U. after   10 cycles
 SCF Done:  E(RB3LYP) =  -682.997264398     A.U. after   11 cycles
 SCF Done:  E(RB3LYP) =  -682.997306556     A.U. after   10 cycles
 SCF Done:  E(RB3LYP) =  -682.997369716     A.U. after   11 cycles
 SCF Done:  E(RB3LYP) =  -682.997373349     A.U. after    9 cycles
 Optimization completed.
    -- Stationary point found.
 Normal termination of Gaussian 16 at Thu Dec 10 10:47:51 2020.

 --------------------------------------------------------------------
 #N Geom=AllCheck Guess=TCheck SCRF=Check GenChk RB3LYP/6-31G(d) Freq
 --------------------------------------------------------------------

 Structure from the checkpoint file:  "JID_4920.chk"
 -------------------------------
 CID_130048291_JID_4920_neutraal
 -------------------------------
 Charge =  0 Multiplicity = 1

 SCF Done:  E(RB3LYP) =  -682.997373349     A.U. after    1 cycles

  Exact polarizability: 185.879  -4.496 106.361  -0.011   0.006  53.419
 Approx polarizability: 251.394   3.071 203.416  -0.020   0.003  81.383

                      1                      2                      3
                      A                      A                      A
 Frequencies --     33.0812                73.3160               110.5939
 Red. masses --      5.4637                 3.7871                 1.1451
 Frc consts  --      0.0035                 0.0120                 0.0083
 IR Inten    --      0.5886                 2.8834                 0.0273

                      4                      5                      6
                      A                      A                      A
 Frequencies --    131.0251               133.4607               144.6325
 Red. masses --      4.3644                 1.5234                 1.7653
 Frc consts  --      0.0441                 0.0160                 0.0218
 IR Inten    --      2.1229                 0.0152                 0.0471

                      7                      8                      9
                      A                      A                      A
 Frequencies --    186.4057               256.8159               290.1352
 Red. masses --      4.8614                 3.4988                 5.8636
 Frc consts  --      0.0995                 0.1360                 0.2908
 IR Inten    --      4.4744                 4.1490                 0.8814

                     10                     11                     12
                      A                      A                      A
 Frequencies --    305.3037               336.3718               361.8762
 Red. masses --      7.0028                 4.0491                 5.7179
 Frc consts  --      0.3846                 0.2699                 0.4412
 IR Inten    --      1.8136                11.3289                 0.1223

                     13                     14                     15
                      A                      A                      A
 Frequencies --    439.8304               447.2410               545.5849
 Red. masses --      4.4836                 6.9116                 6.5607
 Frc consts  --      0.5110                 0.8145                 1.1506
 IR Inten    --      1.3501                 4.4465                 0.1957

                     16                     17                     18
                      A                      A                      A
 Frequencies --    566.0958               613.7290               666.5339
 Red. masses --      4.6855                 5.9468                 5.1480
 Frc consts  --      0.8847                 1.3197                 1.3475
 IR Inten    --      5.2689                 3.7498                 0.1360

                     19                     20                     21
                      A                      A                      A
 Frequencies --    690.1443               700.4417               768.0456
 Red. masses --      6.1407                 8.2902                 4.5092
 Frc consts  --      1.7233                 2.3964                 1.5672
 IR Inten    --      2.5209                 8.6992                31.4304

                     22                     23                     24
                      A                      A                      A
 Frequencies --    799.6610               823.5159               857.9524
 Red. masses --      8.4503                 5.7399                 1.6711
 Frc consts  --      3.1837                 2.2935                 0.7247
 IR Inten    --      0.3568                 8.5919                17.9948

                     25                     26                     27
                      A                      A                      A
 Frequencies --    866.7315               914.4069               941.2185
 Red. masses --      9.2150                 6.4469                 4.6977
 Frc consts  --      4.0786                 3.1760                 2.4520
 IR Inten    --     24.8458                39.5844                20.7188

                     28                     29                     30
                      A                      A                      A
 Frequencies --    971.5615              1036.6088              1058.8456
 Red. masses --      1.3038                 3.6806                 2.5396
 Frc consts  --      0.7251                 2.3302                 1.6776
 IR Inten    --      0.3681                25.4636                16.1421

                     31                     32                     33
                      A                      A                      A
 Frequencies --   1079.1707              1139.4612              1151.3558
 Red. masses --      1.5412                 2.0887                 2.1453
 Frc consts  --      1.0575                 1.5978                 1.6755
 IR Inten    --      3.8521                 2.0868                74.3231

                     34                     35                     36
                      A                      A                      A
 Frequencies --   1187.2540              1201.1265              1226.7239
 Red. masses --      1.2735                 2.9093                 1.7545
 Frc consts  --      1.0577                 2.4729                 1.5556
 IR Inten    --      0.8883               141.0333               136.3476

                     37                     38                     39
                      A                      A                      A
 Frequencies --   1273.0608              1298.1050              1309.3221
 Red. masses --      4.9438                 3.8566                 6.5869
 Frc consts  --      4.7208                 3.8289                 6.6531
 IR Inten    --    164.8228                 5.5315               333.2890

                     40                     41                     42
                      A                      A                      A
 Frequencies --   1384.2303              1437.9682              1440.8138
 Red. masses --      6.0664                 1.3822                 3.0412
 Frc consts  --      6.8485                 1.6839                 3.7197
 IR Inten    --      1.6029                13.4154               107.5326

                     43                     44                     45
                      A                      A                      A
 Frequencies --   1489.7848              1501.6112              1503.4567
 Red. masses --      1.3283                 1.0432                 1.1944
 Frc consts  --      1.7370                 1.3859                 1.5907
 IR Inten    --      1.4046                 9.5819                22.9473

                     46                     47                     48
                      A                      A                      A
 Frequencies --   1504.8977              1511.7190              1525.7033
 Red. masses --      2.6205                 1.0477                 1.0499
 Frc consts  --      3.4966                 1.4107                 1.4400
 IR Inten    --     14.0334                 5.9142                 8.8518

                     49                     50                     51
                      A                      A                      A
 Frequencies --   1611.0020              1662.7986              1684.7817
 Red. masses --      7.9175                 8.0045                 9.0262
 Frc consts  --     12.1068                13.0395                15.0954
 IR Inten    --     39.9267                14.8043                64.1998

                     52                     53                     54
                      A                      A                      A
 Frequencies --   1834.5615              3064.7984              3075.6814
 Red. masses --     11.9882                 1.0384                 1.0293
 Frc consts  --     23.7722                 5.7468                 5.7371
 IR Inten    --    206.7976                 8.5287                39.7162

                     55                     56                     57
                      A                      A                      A
 Frequencies --   3120.5893              3150.1489              3181.0725
 Red. masses --      1.1010                 1.1074                 1.1007
 Frc consts  --      6.3172                 6.4748                 6.5626
 IR Inten    --      5.7152                20.5686                 1.8492

                     58                     59                     60
                      A                      A                      A
 Frequencies --   3181.4612              3227.4247              3257.1252
 Red. masses --      1.1073                 1.0922                 1.0928
 Frc consts  --      6.6034                 6.7026                 6.8304
 IR Inten    --     18.2874                 3.2553                 0.2914

 - Thermochemistry -
 -------------------
 Temperature   298.150 Kelvin.  Pressure   1.00000 Atm.
 Atom     1 has atomic number  6 and mass  12.00000

 Molecular mass:   192.05349 amu.
 Principal axes and moments of inertia in atomic units:
                           1         2         3
     Eigenvalues --   729.936885279.492035986.79683
           X            0.99996  -0.00860  -0.00000
           Y            0.00860   0.99996   0.00003
           Z           -0.00000  -0.00003   1.00000
 This molecule is an asymmetric top.
 Rotational symmetry number  1.
 Warning -- assumption of classical behavior for rotation
           may cause significant error
 Rotational temperatures (Kelvin)      0.11866     0.01641     0.01447
 Rotational constants (GHZ):           2.47246     0.34184     0.30145
 Zero-point vibrational energy     432380.5 (Joules/Mol)
                                  103.34142 (Kcal/Mol)
 Warning -- explicit consideration of  17 degrees of freedom as
           vibrations may cause significant error
 Vibrational temperatures:     47.60   105.49   159.12   188.52   192.02
          (Kelvin)            208.09   268.20   369.50   417.44   439.26
                              483.96   520.66   632.82   643.48   784.98
                              814.49   883.02   958.99   992.96  1007.78
                             1105.05  1150.53  1184.86  1234.40  1247.03
                             1315.63  1354.20  1397.86  1491.45  1523.44
                             1552.69  1639.43  1656.54  1708.19  1728.15
                             1764.98  1831.65  1867.68  1883.82  1991.60
                             2068.92  2073.01  2143.47  2160.48  2163.14
                             2165.21  2175.03  2195.15  2317.87  2392.40
                             2424.03  2639.52  4409.56  4425.22  4489.83
                             4532.36  4576.85  4577.41  4643.54  4686.28

 Zero-point correction=                           0.164685 (Hartree/Particle)
 Thermal correction to Energy=                    0.176716
 Thermal correction to Enthalpy=                  0.177660
 Thermal correction to Gibbs Free Energy=         0.125429
 Sum of electronic and zero-point Energies=           -682.832688
 Sum of electronic and thermal Energies=              -682.820658
 Sum of electronic and thermal Enthalpies=            -682.819713
 Sum of electronic and thermal Free Energies=         -682.871944

                     E (Thermal)             CV                S
                      KCal/Mol        Cal/Mol-Kelvin    Cal/Mol-Kelvin
 Total                  110.891             44.104            109.928
 Electronic               0.000              0.000              0.000
 Translational            0.889              2.981             41.663
 Rotational               0.889              2.981             31.512
 Vibrational            109.113             38.142             36.753
 Vibration     1          0.594              1.983              5.636
 Vibration     2          0.599              1.967              4.062
 Vibration     3          0.606              1.941              3.258
 Vibration     4          0.612              1.922              2.931
 Vibration     5          0.613              1.920              2.896
 Vibration     6          0.616              1.908              2.742
 Vibration     7          0.632              1.858              2.263
 Vibration     8          0.666              1.751              1.683
 Vibration     9          0.686              1.692              1.473
 Vibration    10          0.696              1.664              1.388
 Vibration    11          0.717              1.603              1.229
 Vibration    12          0.736              1.551              1.114
 Vibration    13          0.800              1.383              0.827
 Vibration    14          0.806              1.367              0.804
 Vibration    15          0.901              1.149              0.553
 Vibration    16          0.922              1.105              0.512
 Vibration    17          0.973              1.003              0.427

                           ! Non-Optimized Parameters !
 Normal termination of Gaussian 16 at Thu Dec 10 10:52:36 2020.

 ----------------------------------------------------------------------
 # B3LYP/6-311++G(d,p) empiricaldispersion=gd3bj scf=xqc pop=npa geom=c
 heck
 ----------------------------------------------------------------------

 ---------------------------------------
 CID_130048291_JID_4920_Energie_neutraal
 ---------------------------------------
 Structure from the checkpoint file:  "JID_4920.chk"
 Charge =  0 Multiplicity = 1

 SCF Done:  E(RB3LYP) =  -683.183563343     A.U. after   16 cycles
 Normal termination of Gaussian 16 at Thu Dec 10 10:54:19 2020.

 ----------------------------------------------------------------------
 # B3LYP/6-311++G(d,p) empiricaldispersion=gd3bj scf=xqc pop=npa geom=c
 heck
 ----------------------------------------------------------------------

 -------------------------------------
 CID_130048291_JID_4920_Energie_kation
 -------------------------------------
 Structure from the checkpoint file:  "JID_4920.chk"
 Charge =  1 Multiplicity = 2

 SCF Done:  E(UB3LYP) =  -682.849933112     A.U. after   30 cycles
 Normal termination of Gaussian 16 at Thu Dec 10 10:58:52 2020.
 Gaussian 16:  ES64L-G16RevA.03 25-Dec-2016

 ----------------------------------------------------------------------
 # B3LYP/6-311++G(d,p) empiricaldispersion=gd3bj scf=xqc pop=npa geom=c
 heck
 ----------------------------------------------------------------------

 ------------------------------------
 CID_130048291_JID_4920_Energie_anion
 ------------------------------------
 Structure from the checkpoint file:  "JID_4920.chk"
 Charge = -1 Multiplicity = 2

                         Standard orientation:
 ---------------------------------------------------------------------
 Center     Atomic      Atomic             Coordinates (Angstroms)
 Number     Number       Type             X           Y           Z
 ---------------------------------------------------------------------
      1          6           0        4.724324   -0.580643   -0.000469
      2          6           0        3.257168   -0.363768   -0.000037
      3          7           0        2.309536   -1.241317   -0.000272
      4          6           0        1.131351   -0.487347   -0.000273
      5          6           0        1.475816    0.878507    0.000236
      6          8           0        2.837932    0.965742    0.000190
      7          6           0        0.511172    1.866571    0.000645
      8          6           0       -0.803689    1.392956    0.000624
      9          6           0       -1.063231    0.007581    0.000168
     10          7           0       -0.112819   -0.942186   -0.000368
     11          6           0       -2.474036   -0.509782    0.000308
     12          8           0       -2.788998   -1.676256    0.001692
     13          8           0       -3.372891    0.507162   -0.001216
     14          6           0       -4.746470    0.094342   -0.000872
     15          1           0        5.181057   -0.126800   -0.887000
     16          1           0        4.925829   -1.652406    0.003112
     17          1           0        5.183080   -0.120096    0.881463
     18          1           0        0.748787    2.924662    0.001082
     19          1           0       -1.635620    2.084713    0.000938
     20          1           0       -4.966790   -0.503252   -0.889292
     21          1           0       -4.966820   -0.501749    0.888545
     22          1           0       -5.329318    1.015760   -0.001681
 ---------------------------------------------------------------------

 SCF Done:  E(UB3LYP) =  -683.193431487     A.U. after   32 cycles

 The electronic state is 2-A.
 Alpha  occ. eigenvalues --  -19.05525 -19.02068 -18.94358 -14.16348 -14.11807
 Alpha  occ. eigenvalues --  -10.12701 -10.11903 -10.10671 -10.07619 -10.07174
 Alpha  occ. eigenvalues --  -10.06678 -10.04028 -10.03273 -10.02899  -0.98426
 Alpha  occ. eigenvalues --   -0.95801  -0.86373  -0.79894  -0.76066  -0.66227
 Alpha  occ. eigenvalues --   -0.64656  -0.61618  -0.57413  -0.50530  -0.47936
 Alpha  occ. eigenvalues --   -0.45146  -0.43820  -0.39830  -0.36834  -0.35866
 Alpha  occ. eigenvalues --   -0.35413  -0.35229  -0.32042  -0.31123  -0.30121
 Alpha  occ. eigenvalues --   -0.29966  -0.28645  -0.27444  -0.26801  -0.25899
 Alpha  occ. eigenvalues --   -0.24917  -0.22426  -0.22351  -0.18943  -0.16854
 Alpha  occ. eigenvalues --   -0.15749  -0.12623  -0.12282  -0.09801  -0.09575
 Alpha  occ. eigenvalues --    0.05185
 Alpha virt. eigenvalues --    0.07880   0.08221   0.09965   0.10516   0.11697
 Alpha virt. eigenvalues --    0.11712   0.12184   0.12633   0.13093   0.14183
 Alpha virt. eigenvalues --    0.15753   0.16006   0.17082   0.17384   0.18192

  Beta  occ. eigenvalues --  -19.05585 -19.01978 -18.94154 -14.16316 -14.11038
  Beta  occ. eigenvalues --  -10.12536 -10.11628 -10.10676 -10.07496 -10.07200
  Beta  occ. eigenvalues --  -10.06713 -10.03878 -10.03374 -10.02635  -0.98352
  Beta  occ. eigenvalues --   -0.95563  -0.86039  -0.79435  -0.75441  -0.65748
  Beta  occ. eigenvalues --   -0.64256  -0.61387  -0.57273  -0.50096  -0.47656
  Beta  occ. eigenvalues --   -0.44922  -0.43573  -0.39609  -0.36631  -0.35714
  Beta  occ. eigenvalues --   -0.35043  -0.34795  -0.31803  -0.31001  -0.29876
  Beta  occ. eigenvalues --   -0.29820  -0.28428  -0.27333  -0.25835  -0.25746
  Beta  occ. eigenvalues --   -0.24710  -0.22193  -0.21266  -0.18273  -0.16037
  Beta  occ. eigenvalues --   -0.15629  -0.12058  -0.10312  -0.08741  -0.08715
  Beta virt. eigenvalues --    0.07853   0.08210   0.09934   0.10892   0.11671
  Beta virt. eigenvalues --    0.11842   0.12141   0.12198   0.12656   0.13063
  Beta virt. eigenvalues --    0.14114   0.15967   0.16867   0.17333   0.17370

 Mulliken charges and spin densities:
               1          2
     1  C   -0.106931  -0.013304
     2  C    0.428903   0.132221
     3  N   -0.080252   0.011318
     4  C   -0.529669  -0.000238
     5  C    0.021850   0.026872
     6  O   -0.151893  -0.019492
     7  C   -0.651572   0.266520
     8  C   -0.224369  -0.069076
     9  C    0.091477   0.102353
    10  N   -0.220905   0.365237
    11  C   -0.014524   0.082778
    12  O   -0.327598   0.071260
    13  O   -0.128633   0.016490
    14  C   -0.250693  -0.003414
    15  H    0.130477   0.018244
    16  H    0.159942   0.000172
    17  H    0.131375   0.017066
    18  H    0.129037  -0.018395
    19  H    0.173167   0.006758
    20  H    0.157582   0.003487
    21  H    0.157550   0.003540
    22  H    0.105678  -0.000399
 Sum of Mulliken charges =  -1.00000   1.00000

 Dipole moment (field-independent basis, Debye):
    X=              0.8813    Y=              4.4941    Z=              0.0012  Tot=              4.5797
 Quadrupole moment (field-independent basis, Debye-Ang):
   XX=            -98.5874   YY=           -101.9427   ZZ=            -85.6029
   XY=             -6.4719   XZ=              0.0281   YZ=              0.0060

 Summary of Natural Population Analysis:

                                       Natural Population
                Natural  -----------------------------------------------
    Atom  No    Charge         Core      Valence    Rydberg      Total
 -----------------------------------------------------------------------
      C    1   -0.31407      0.99963     2.31049    0.00396     3.31407
      C    2    0.30766      0.99962     1.67396    0.01877     2.69234
      N    3   -0.25421      0.99966     2.74259    0.01195     3.75421
      C    4    0.14026      0.99947     1.84233    0.01793     2.85974
      C    5    0.13776      0.99933     1.85000    0.01291     2.86224
      O    6   -0.26288      0.99986     3.25603    0.00699     4.26288
      C    7   -0.08194      0.99953     2.07347    0.00894     3.08194
      C    8   -0.12804      0.99956     2.12063    0.00785     3.12804
      C    9    0.05626      0.99950     1.93059    0.01365     2.94374
      N   10   -0.10070      0.99963     2.58827    0.01279     3.60070
      C   11    0.41276      0.99966     1.56303    0.02456     2.58724
      O   12   -0.29189      0.99987     3.28543    0.00659     4.29189
      O   13   -0.28455      0.99986     3.27593    0.00875     4.28455
      C   14   -0.10570      0.99962     2.09719    0.00890     3.10570
      H   15    0.10442      0.00000     0.39451    0.00107     0.39558
      H   16    0.10997      0.00000     0.38926    0.00077     0.39003
      H   17    0.10438      0.00000     0.39456    0.00107     0.39562
      H   18    0.09291      0.00000     0.40546    0.00163     0.40709
      H   19    0.10340      0.00000     0.39554    0.00106     0.39660
      H   20    0.08669      0.00000     0.41196    0.00135     0.41331
      H   21    0.08670      0.00000     0.41195    0.00135     0.41330
      H   22    0.08080      0.00000     0.41831    0.00089     0.41920
 =======================================================================
   * Total *    0.00000     13.99480    35.83149    0.17371    50.00000

 Normal termination of Gaussian 16 at Thu Dec 10 11:03:37 2020.
