 Gaussian 16, Revision A.03,

 -----------------------------------------------------------
 # opt freq B3LYP/6-31G(d) empiricaldispersion=gd3bj scf=xqc
 -----------------------------------------------------------

 -------------------------------
 CID_113966623_JID_9841_neutraal
 -------------------------------
 Symbolic Z-matrix:
 Charge =  0 Multiplicity = 1

 SCF Done:  E(RB3LYP) =  -932.727552229     A.U. after   14 cycles
 SCF Done:  E(RB3LYP) =  -932.732686270     A.U. after   12 cycles
 SCF Done:  E(RB3LYP) =  -932.733009699     A.U. after   13 cycles
 SCF Done:  E(RB3LYP) =  -932.733779963     A.U. after   13 cycles
 SCF Done:  E(RB3LYP) =  -932.735348262     A.U. after   13 cycles
 SCF Done:  E(RB3LYP) =  -932.735714662     A.U. after   13 cycles
 SCF Done:  E(RB3LYP) =  -932.735905753     A.U. after   12 cycles
 SCF Done:  E(RB3LYP) =  -932.736042795     A.U. after   12 cycles
 SCF Done:  E(RB3LYP) =  -932.736185980     A.U. after   12 cycles
 SCF Done:  E(RB3LYP) =  -932.736245053     A.U. after   12 cycles
 SCF Done:  E(RB3LYP) =  -932.739861351     A.U. after   10 cycles
 SCF Done:  E(RB3LYP) =  -932.739864031     A.U. after    9 cycles
 SCF Done:  E(RB3LYP) =  -932.739865645     A.U. after    9 cycles
 SCF Done:  E(RB3LYP) =  -932.739866958     A.U. after    8 cycles
 SCF Done:  E(RB3LYP) =  -932.739867166     A.U. after    7 cycles
 Optimization completed.
    -- Stationary point found.
 Normal termination of Gaussian 16 at Sun Dec 13 21:25:17 2020.

 --------------------------------------------------------------------
 #N Geom=AllCheck Guess=TCheck SCRF=Check GenChk RB3LYP/6-31G(d) Freq
 --------------------------------------------------------------------

 Structure from the checkpoint file:  "JID_9841.chk"
 -------------------------------
 CID_113966623_JID_9841_neutraal
 -------------------------------
 Charge =  0 Multiplicity = 1

 SCF Done:  E(RB3LYP) =  -932.739867166     A.U. after    1 cycles

  Exact polarizability: 199.880   2.080 144.337   9.724  -1.095 108.268
 Approx polarizability: 251.166   7.364 248.213  10.506  -0.037 161.691

                      1                      2                      3
                      A                      A                      A
 Frequencies --     18.9858                28.4736                34.1986
 Red. masses --      6.1002                 4.5905                 4.9984
 Frc consts  --      0.0013                 0.0022                 0.0034
 IR Inten    --      0.6382                 0.3284                 1.8670

                      4                      5                      6
                      A                      A                      A
 Frequencies --     42.9920                60.5632                73.0152
 Red. masses --      5.9137                 6.3304                 4.3478
 Frc consts  --      0.0064                 0.0137                 0.0137
 IR Inten    --      1.5903                 0.5989                 0.3340

                      7                      8                      9
                      A                      A                      A
 Frequencies --    100.4147               106.7511               147.7436
 Red. masses --      5.6803                 4.4369                 2.4582
 Frc consts  --      0.0337                 0.0298                 0.0316
 IR Inten    --      2.6879                 1.8611                 0.3350

                     10                     11                     12
                      A                      A                      A
 Frequencies --    165.8375               180.0974               196.9088
 Red. masses --      5.3832                 4.9220                 4.6077
 Frc consts  --      0.0872                 0.0941                 0.1053
 IR Inten    --      0.8947                 3.7297                 3.4554

                     13                     14                     15
                      A                      A                      A
 Frequencies --    227.7213               258.1583               275.4204
 Red. masses --      1.7864                 1.6990                 4.4389
 Frc consts  --      0.0546                 0.0667                 0.1984
 IR Inten    --      3.7014                 2.0689                 1.6869

                     16                     17                     18
                      A                      A                      A
 Frequencies --    321.7591               351.4196               382.3173
 Red. masses --      3.4280                 2.9865                 2.1731
 Frc consts  --      0.2091                 0.2173                 0.1871
 IR Inten    --      1.4151                 0.4936                 0.7863

                     19                     20                     21
                      A                      A                      A
 Frequencies --    386.7033               406.4262               481.8132
 Red. masses --      3.0295                 6.1648                 3.1925
 Frc consts  --      0.2669                 0.6000                 0.4367
 IR Inten    --      3.2504                10.8540                 6.2201

                     22                     23                     24
                      A                      A                      A
 Frequencies --    502.8005               522.0051               550.9782
 Red. masses --      3.7131                 4.1248                 2.2337
 Frc consts  --      0.5531                 0.6622                 0.3995
 IR Inten    --      4.8431                 2.6831                10.3633

                     25                     26                     27
                      A                      A                      A
 Frequencies --    571.0569               622.8973               652.4983
 Red. masses --      1.4430                 3.3861                 2.7123
 Frc consts  --      0.2773                 0.7741                 0.6804
 IR Inten    --     84.6305                28.7124                 6.3358

                     28                     29                     30
                      A                      A                      A
 Frequencies --    662.8256               674.3479               683.4601
 Red. masses --      2.2859                 3.0981                 3.5447
 Frc consts  --      0.5917                 0.8301                 0.9756
 IR Inten    --     79.6250                44.7226                19.1927

                     31                     32                     33
                      A                      A                      A
 Frequencies --    690.2749               721.4593               738.9093
 Red. masses --      2.7541                 3.6448                 3.1904
 Frc consts  --      0.7732                 1.1177                 1.0263
 IR Inten    --      3.8244                36.1205                 7.6913

                     34                     35                     36
                      A                      A                      A
 Frequencies --    756.8737               794.6505               821.7013
 Red. masses --      1.6187                 3.4109                 2.1028
 Frc consts  --      0.5464                 1.2690                 0.8365
 IR Inten    --     36.6598                 7.8534                 1.4596

                     37                     38                     39
                      A                      A                      A
 Frequencies --    835.5767               846.4185               880.1901
 Red. masses --      1.5023                 3.0132                 2.2534
 Frc consts  --      0.6180                 1.2719                 1.0286
 IR Inten    --      9.5037                10.5587                28.9471

                     40                     41                     42
                      A                      A                      A
 Frequencies --    915.3518               944.2310               960.6467
 Red. masses --      2.2546                 2.6778                 2.4651
 Frc consts  --      1.1130                 1.4067                 1.3403
 IR Inten    --     11.3772                11.6682                 5.8642

                     43                     44                     45
                      A                      A                      A
 Frequencies --    970.7386               988.9952               992.0630
 Red. masses --      2.4638                 1.7900                 5.7096
 Frc consts  --      1.3679                 1.0316                 3.3108
 IR Inten    --     16.9883                23.2243                18.3547

                     46                     47                     48
                      A                      A                      A
 Frequencies --   1035.5949              1040.6269              1067.5381
 Red. masses --      2.1033                 2.0009                 3.0575
 Frc consts  --      1.3290                 1.2767                 2.0530
 IR Inten    --     25.3154                54.7648                23.2123

                     49                     50                     51
                      A                      A                      A
 Frequencies --   1079.1680              1097.5601              1129.2823
 Red. masses --      2.1250                 1.7391                 3.7962
 Frc consts  --      1.4581                 1.2344                 2.8524
 IR Inten    --      1.6011                12.2262               204.0432

                     52                     53                     54
                      A                      A                      A
 Frequencies --   1129.8163              1165.0797              1174.7912
 Red. masses --      2.7502                 2.6188                 1.6752
 Frc consts  --      2.0684                 2.0944                 1.3622
 IR Inten    --     91.4715                 8.4486               212.3427

                     55                     56                     57
                      A                      A                      A
 Frequencies --   1181.7931              1210.3368              1229.0614
 Red. masses --      1.9613                 1.5848                 1.4341
 Frc consts  --      1.6139                 1.3678                 1.2764
 IR Inten    --     18.8133                 3.5187                 3.7964

                     58                     59                     60
                      A                      A                      A
 Frequencies --   1238.3442              1264.0318              1299.6139
 Red. masses --      1.1856                 1.3688                 1.4059
 Frc consts  --      1.0712                 1.2886                 1.3991
 IR Inten    --      0.1628                31.0413                 0.5324

                     61                     62                     63
                      A                      A                      A
 Frequencies --   1306.2252              1311.8744              1320.0379
 Red. masses --      1.6085                 1.6699                 1.3200
 Frc consts  --      1.6169                 1.6932                 1.3552
 IR Inten    --     21.8537                20.9984                 2.8862

                     64                     65                     66
                      A                      A                      A
 Frequencies --   1349.2687              1364.6444              1386.6252
 Red. masses --      1.4555                 1.3452                 4.9594
 Frc consts  --      1.5612                 1.4760                 5.6182
 IR Inten    --      1.1352                62.6537                26.1171

                     67                     68                     69
                      A                      A                      A
 Frequencies --   1388.5004              1394.5440              1399.4327
 Red. masses --      1.4082                 1.3621                 1.7194
 Frc consts  --      1.5996                 1.5607                 1.9839
 IR Inten    --     12.5863                11.7411                20.8571

                     70                     71                     72
                      A                      A                      A
 Frequencies --   1407.0671              1416.0099              1436.5534
 Red. masses --      1.3698                 2.3194                 1.4592
 Frc consts  --      1.5978                 2.7400                 1.7743
 IR Inten    --     25.7084               128.2105                 1.1366

                     73                     74                     75
                      A                      A                      A
 Frequencies --   1440.2674              1447.7992              1504.3592
 Red. masses --      1.8813                 3.4683                 1.3298
 Frc consts  --      2.2993                 4.2834                 1.7731
 IR Inten    --     15.3905                53.0103                14.7486

                     76                     77                     78
                      A                      A                      A
 Frequencies --   1511.9228              1517.1360              1521.4031
 Red. masses --      1.2923                 1.3930                 1.0935
 Frc consts  --      1.7405                 1.8891                 1.4912
 IR Inten    --     17.6464                82.9933                 3.7075

                     79                     80                     81
                      A                      A                      A
 Frequencies --   1528.5853              1543.4573              1544.6134
 Red. masses --      1.0826                 3.1405                 1.0572
 Frc consts  --      1.4903                 4.4080                 1.4861
 IR Inten    --      1.6808                18.3710                18.0602

                     82                     83                     84
                      A                      A                      A
 Frequencies --   1561.1793              1577.8174              1767.5925
 Red. masses --      1.0910                 4.5876                 7.8184
 Frc consts  --      1.5667                 6.7290                14.3925
 IR Inten    --      0.9331                73.9631               294.3688

                     85                     86                     87
                      A                      A                      A
 Frequencies --   1848.3840              2993.2207              3048.9028
 Red. masses --      9.8654                 1.0827                 1.0488
 Frc consts  --     19.8586                 5.7153                 5.7444
 IR Inten    --    404.4908                42.1974                28.7217

                     88                     89                     90
                      A                      A                      A
 Frequencies --   3051.9060              3069.9995              3081.6221
 Red. masses --      1.0479                 1.0716                 1.0700
 Frc consts  --      5.7506                 5.9506                 5.9870
 IR Inten    --     48.6751                14.2434                26.1598

                     91                     92                     93
                      A                      A                      A
 Frequencies --   3087.4903              3089.5140              3107.6506
 Red. masses --      1.0996                 1.0664                 1.0940
 Frc consts  --      6.1760                 5.9971                 6.2248
 IR Inten    --     41.6355                32.1296                10.8757

                     94                     95                     96
                      A                      A                      A
 Frequencies --   3123.7655              3125.3356              3145.1350
 Red. masses --      1.0995                 1.0966                 1.1009
 Frc consts  --      6.3214                 6.3111                 6.4164
 IR Inten    --     33.2365                40.0523                12.7136

                     97                     98                     99
                      A                      A                      A
 Frequencies --   3162.2674              3173.8833              3273.5054
 Red. masses --      1.0995                 1.0977                 1.0967
 Frc consts  --      6.4778                 6.5152                 6.9242
 IR Inten    --      9.0027                 5.9321                 0.2327

                    100                    101                    102
                      A                      A                      A
 Frequencies --   3298.4391              3588.3886              3703.8426
 Red. masses --      1.0987                 1.0759                 1.0641
 Frc consts  --      7.0425                 8.1624                 8.6011
 IR Inten    --      0.5823                24.2136                70.1277

 - Thermochemistry -
 -------------------
 Temperature   298.150 Kelvin.  Pressure   1.00000 Atm.
 Atom     1 has atomic number  6 and mass  12.00000

 Molecular mass:   267.12191 amu.
 Principal axes and moments of inertia in atomic units:
                           1         2         3
     Eigenvalues --  2013.59149********************
           X            0.99991  -0.00579   0.01185
           Y            0.00680   0.99614  -0.08751
           Z           -0.01130   0.08758   0.99609
 This molecule is an asymmetric top.
 Rotational symmetry number  1.
 Warning -- assumption of classical behavior for rotation
           may cause significant error
 Rotational temperatures (Kelvin)      0.04301     0.00795     0.00776
 Rotational constants (GHZ):           0.89628     0.16565     0.16162
 Zero-point vibrational energy     782426.4 (Joules/Mol)
                                  187.00440 (Kcal/Mol)
 Warning -- explicit consideration of  25 degrees of freedom as
           vibrations may cause significant error
 Vibrational temperatures:     27.32    40.97    49.20    61.86    87.14
          (Kelvin)            105.05   144.47   153.59   212.57   238.60
                              259.12   283.31   327.64   371.43   396.27
                              462.94   505.61   550.07   556.38   584.76
                              693.22   723.42   751.05   792.73   821.62
                              896.21   938.80   953.66   970.24   983.35
                              993.15  1038.02  1063.13  1088.97  1143.32
                             1182.24  1202.21  1217.81  1266.40  1316.99
                             1358.54  1382.16  1396.68  1422.94  1427.36
                             1489.99  1497.23  1535.95  1552.68  1579.14
                             1624.79  1625.55  1676.29  1690.26  1700.34
                             1741.40  1768.35  1781.70  1818.66  1869.85
                             1879.37  1887.49  1899.24  1941.30  1963.42
                             1995.04  1997.74  2006.44  2013.47  2024.46
                             2037.32  2066.88  2072.22  2083.06  2164.44
                             2175.32  2182.82  2188.96  2199.29  2220.69
                             2222.35  2246.19  2270.13  2543.17  2659.41
                             4306.58  4386.69  4391.01  4417.04  4433.77
                             4442.21  4445.12  4471.22  4494.40  4496.66
                             4525.15  4549.80  4566.51  4709.84  4745.72
                             5162.89  5329.00

 Zero-point correction=                           0.298010 (Hartree/Particle)
 Thermal correction to Energy=                    0.316141
 Thermal correction to Enthalpy=                  0.317085
 Thermal correction to Gibbs Free Energy=         0.248655
 Sum of electronic and zero-point Energies=           -932.441857
 Sum of electronic and thermal Energies=              -932.423727
 Sum of electronic and thermal Enthalpies=            -932.422782
 Sum of electronic and thermal Free Energies=         -932.491212

                     E (Thermal)             CV                S
                      KCal/Mol        Cal/Mol-Kelvin    Cal/Mol-Kelvin
 Total                  198.381             67.157            144.023
 Electronic               0.000              0.000              0.000
 Translational            0.889              2.981             42.647
 Rotational               0.889              2.981             33.860
 Vibrational            196.604             61.195             67.517
 Vibration     1          0.593              1.986              6.738
 Vibration     2          0.593              1.984              5.933
 Vibration     3          0.594              1.983              5.570
 Vibration     4          0.595              1.980              5.116
 Vibration     5          0.597              1.973              4.439
 Vibration     6          0.599              1.967              4.070
 Vibration     7          0.604              1.949              3.446
 Vibration     8          0.606              1.944              3.327
 Vibration     9          0.617              1.905              2.701
 Vibration    10          0.624              1.884              2.482
 Vibration    11          0.629              1.867              2.327
 Vibration    12          0.636              1.844              2.162
 Vibration    13          0.651              1.799              1.897
 Vibration    14          0.667              1.749              1.674
 Vibration    15          0.677              1.719              1.562
 Vibration    16          0.707              1.632              1.301
 Vibration    17          0.728              1.572              1.160
 Vibration    18          0.752              1.508              1.030
 Vibration    19          0.755              1.499              1.013
 Vibration    20          0.771              1.456              0.939
 Vibration    21          0.838              1.290              0.705
 Vibration    22          0.858              1.244              0.651
 Vibration    23          0.877              1.201              0.605
 Vibration    24          0.906              1.138              0.542
 Vibration    25          0.927              1.094              0.502

                           ! Non-Optimized Parameters !
 Normal termination of Gaussian 16 at Sun Dec 13 21:41:32 2020.

 ----------------------------------------------------------------------
 # B3LYP/6-311++G(d,p) empiricaldispersion=gd3bj scf=xqc pop=npa geom=c
 heck
 ----------------------------------------------------------------------

 ---------------------------------------
 CID_113966623_JID_9841_Energie_neutraal
 ---------------------------------------
 Structure from the checkpoint file:  "JID_9841.chk"
 Charge =  0 Multiplicity = 1

 SCF Done:  E(RB3LYP) =  -933.015413383     A.U. after   15 cycles
 Normal termination of Gaussian 16 at Sun Dec 13 21:47:57 2020.

 ----------------------------------------------------------------------
 # B3LYP/6-311++G(d,p) empiricaldispersion=gd3bj scf=xqc pop=npa geom=c
 heck
 ----------------------------------------------------------------------

 -------------------------------------
 CID_113966623_JID_9841_Energie_kation
 -------------------------------------
 Structure from the checkpoint file:  "JID_9841.chk"
 Charge =  1 Multiplicity = 2

 SCF Done:  E(UB3LYP) =  -932.697324496     A.U. after   30 cycles
 Normal termination of Gaussian 16 at Sun Dec 13 22:05:23 2020.
 Gaussian 16:  ES64L-G16RevA.03 25-Dec-2016

 ----------------------------------------------------------------------
 # B3LYP/6-311++G(d,p) empiricaldispersion=gd3bj scf=xqc pop=npa geom=c
 heck
 ----------------------------------------------------------------------

 ------------------------------------
 CID_113966623_JID_9841_Energie_anion
 ------------------------------------
 Structure from the checkpoint file:  "JID_9841.chk"
 Charge = -1 Multiplicity = 2

                         Standard orientation:
 ---------------------------------------------------------------------
 Center     Atomic      Atomic             Coordinates (Angstroms)
 Number     Number       Type             X           Y           Z
 ---------------------------------------------------------------------
      1          6           0       -2.646668    1.745532   -1.057723
      2          6           0       -3.700999    1.012249   -0.222184
      3          6           0       -4.607931    0.113188   -1.080715
      4          6           0       -3.788213   -1.182172   -1.213987
      5          8           0       -2.845348   -1.184798   -0.124642
      6          6           0       -3.095768   -0.053391    0.714596
      7          6           0       -1.880635    0.456557    1.486013
      8          8           0       -1.983956    1.539865    2.052589
      9          7           0       -0.724931   -0.267970    1.570871
     10          6           0       -0.365218   -1.575602    1.044869
     11          6           0        0.184155   -1.510224   -0.386897
     12          7           0        1.354800   -0.651391   -0.487683
     13          6           0        2.652691   -0.994845   -0.206238
     14          6           0        3.380690    0.173795   -0.317524
     15          7           0        2.552584    1.226988   -0.653287
     16          6           0        1.354077    0.703618   -0.740830
     17          6           0        4.826531    0.343969   -0.129401
     18          8           0        5.452750    1.374504   -0.236721
     19          8           0        5.422502   -0.842872    0.199169
     20          1           0       -1.993465    2.344171   -0.417534
     21          1           0       -3.128599    2.417127   -1.775873
     22          1           0       -2.028086    1.041330   -1.627828
     23          1           0       -4.274204    1.737638    0.359628
     24          1           0       -5.551063   -0.083680   -0.559735
     25          1           0       -4.846603    0.556177   -2.051949
     26          1           0       -3.218685   -1.221049   -2.149942
     27          1           0       -4.409639   -2.082827   -1.153422
     28          1           0       -3.842803   -0.321794    1.479289
     29          1           0       -0.011417    0.235253    2.085171
     30          1           0        0.397136   -1.992916    1.710978
     31          1           0       -1.230846   -2.236362    1.056989
     32          1           0        0.453220   -2.512646   -0.734586
     33          1           0       -0.592851   -1.117253   -1.043708
     34          1           0        2.946673   -2.006101    0.028493
     35          1           0        0.441758    1.232312   -0.980408
     36          1           0        6.368451   -0.632409    0.302106
 ---------------------------------------------------------------------

 SCF Done:  E(UB3LYP) =  -933.013754002     A.U. after   33 cycles
 SCF Done:  E(UB3LYP) =  -933.013754002     a.u. after    1 cycles

 The electronic state is 2-A.
 Alpha  occ. eigenvalues --  -19.07130 -19.04471 -19.00645 -19.00488 -14.28350
 Alpha  occ. eigenvalues --  -14.26074 -14.20687 -10.19603 -10.19538 -10.14929
 Alpha  occ. eigenvalues --  -10.13444 -10.13183 -10.13094 -10.13003 -10.10982
 Alpha  occ. eigenvalues --  -10.10005 -10.09994 -10.08832 -10.07787  -1.00684
 Alpha  occ. eigenvalues --   -0.96896  -0.95281  -0.93394  -0.91546  -0.84686
 Alpha  occ. eigenvalues --   -0.80174  -0.72496  -0.68489  -0.67370  -0.66631
 Alpha  occ. eigenvalues --   -0.61432  -0.59246  -0.56715  -0.54282  -0.51326
 Alpha  occ. eigenvalues --   -0.49803  -0.48432  -0.47264  -0.44535  -0.42973
 Alpha  occ. eigenvalues --   -0.42729  -0.41095  -0.39764  -0.38710  -0.38255
 Alpha  occ. eigenvalues --   -0.37786  -0.36971  -0.35802  -0.35380  -0.34519
 Alpha  occ. eigenvalues --   -0.33791  -0.33077  -0.32597  -0.31791  -0.31250
 Alpha  occ. eigenvalues --   -0.30688  -0.30450  -0.29811  -0.29059  -0.26925
 Alpha  occ. eigenvalues --   -0.25799  -0.25027  -0.23957  -0.22944  -0.19687
 Alpha  occ. eigenvalues --   -0.18970  -0.18739  -0.18163  -0.17501  -0.16993
 Alpha  occ. eigenvalues --   -0.15072   0.03466
 Alpha virt. eigenvalues --    0.05191   0.06027   0.06674   0.06918   0.07520
 Alpha virt. eigenvalues --    0.08154   0.08516   0.09016   0.09381   0.10038
 Alpha virt. eigenvalues --    0.10208   0.10768   0.11376   0.11602   0.12231

  Beta  occ. eigenvalues --  -19.07116 -19.04469 -19.00645 -19.00383 -14.28299
  Beta  occ. eigenvalues --  -14.26072 -14.20686 -10.19537 -10.19490 -10.14917
  Beta  occ. eigenvalues --  -10.13455 -10.13169 -10.13058 -10.12977 -10.10834
  Beta  occ. eigenvalues --  -10.10003 -10.09985 -10.08806 -10.07770  -1.00575
  Beta  occ. eigenvalues --   -0.96889  -0.95276  -0.93314  -0.91401  -0.84677
  Beta  occ. eigenvalues --   -0.80114  -0.72473  -0.68396  -0.67303  -0.66521
  Beta  occ. eigenvalues --   -0.61397  -0.59125  -0.56600  -0.54235  -0.51269
  Beta  occ. eigenvalues --   -0.49690  -0.48391  -0.47207  -0.44463  -0.42935
  Beta  occ. eigenvalues --   -0.42687  -0.41071  -0.39631  -0.38596  -0.38191
  Beta  occ. eigenvalues --   -0.37717  -0.36891  -0.35728  -0.34993  -0.34474
  Beta  occ. eigenvalues --   -0.33760  -0.33034  -0.32549  -0.31668  -0.31212
  Beta  occ. eigenvalues --   -0.30641  -0.30385  -0.29769  -0.29016  -0.26891
  Beta  occ. eigenvalues --   -0.25770  -0.24998  -0.23934  -0.22574  -0.19521
  Beta  occ. eigenvalues --   -0.18951  -0.18709  -0.18070  -0.17428  -0.16972
  Beta  occ. eigenvalues --   -0.14598
  Beta virt. eigenvalues --    0.05819   0.06458   0.06724   0.07148   0.07239
  Beta virt. eigenvalues --    0.07913   0.08398   0.08937   0.09222   0.09723
  Beta virt. eigenvalues --    0.10375   0.10524   0.10988   0.11698   0.11882

 Mulliken charges and spin densities:
               1          2
     1  C    0.257640  -0.874538
     2  C   -0.696245   0.869165
     3  C   -0.233295  -0.239757
     4  C    1.016123  -1.240444
     5  O   -0.165072   0.075141
     6  C    0.138473  -0.231158
     7  C    0.012624  -0.283022
     8  O   -0.277600   0.006058
     9  N   -0.166369   0.063623
    10  C    0.433146  -0.802574
    11  C   -0.270666  -0.122720
    12  N    0.202444  -0.020752
    13  C   -0.442918   0.230256
    14  C    0.305816  -0.310540
    15  N   -0.057083   0.011362
    16  C   -0.300691   0.105182
    17  C    0.249211  -0.151708
    18  O   -0.343615   0.034711
    19  O   -0.219196   0.001812
    20  H    0.211150  -0.035817
    21  H    0.010172   0.152527
    22  H    0.043933   0.120117
    23  H    0.072666   0.157785
    24  H   -0.158130   0.329158
    25  H   -0.272180   0.424610
    26  H   -0.146738   0.307317
    27  H   -0.441490   0.603619
    28  H    0.007857   0.222297
    29  H    0.315231  -0.005038
    30  H    0.148121   0.037469
    31  H   -0.166974   0.399963
    32  H   -0.705908   0.904268
    33  H    0.282206  -0.035594
    34  H   -0.084091   0.257944
    35  H    0.175841   0.029569
    36  H    0.265609   0.009710
 Sum of Mulliken charges =  -1.00000   1.00000

 Dipole moment (field-independent basis, Debye):
    X=              0.9645    Y=             -0.0538    Z=              2.2981  Tot=              2.4929
 Quadrupole moment (field-independent basis, Debye-Ang):
   XX=           -206.3584   YY=           -164.5389   ZZ=           -142.5040
   XY=            -22.6636   XZ=              3.8858   YZ=             -7.9120

 Summary of Natural Population Analysis:

                                       Natural Population
                Natural  -----------------------------------------------
    Atom  No    Charge         Core      Valence    Rydberg      Total
 -----------------------------------------------------------------------
      C    1   -0.29265      0.99964     2.28708    0.00594     3.29265
      C    2   -0.11636      0.99960     2.10619    0.01057     3.11636
      C    3   -0.20461      0.99962     2.19675    0.00823     3.20461
      C    4   -0.00665      0.99959     1.99545    0.01160     3.00665
      O    5   -0.31609      0.99989     3.30455    0.01165     4.31609
      C    6    0.03171      0.99948     1.95386    0.01495     2.96829
      C    7    0.33904      0.99963     1.63799    0.02334     2.66096
      O    8   -0.32629      0.99988     3.32112    0.00530     4.32629
      N    9   -0.31498      0.99967     2.80592    0.00940     3.81498
      C   10   -0.09392      0.99960     2.08316    0.01115     3.09392
      C   11   -0.08778      0.99960     2.07668    0.01151     3.08778
      N   12   -0.20025      0.99965     2.69038    0.01022     3.70025
      C   13    0.02408      0.99952     1.96506    0.01134     2.97592
      C   14   -0.01816      0.99948     2.00370    0.01498     3.01816
      N   15   -0.23155      0.99971     2.72321    0.00863     3.73155
      C   16    0.10061      0.99964     1.88236    0.01740     2.89939
      C   17    0.39786      0.99965     1.57757    0.02492     2.60214
      O   18   -0.29556      0.99987     3.28992    0.00576     4.29556
      O   19   -0.35447      0.99988     3.34827    0.00632     4.35447
      H   20    0.10890      0.00000     0.39022    0.00088     0.39110
      H   21    0.10169      0.00000     0.39760    0.00071     0.39831
      H   22    0.09654      0.00000     0.40205    0.00141     0.40346
      H   23    0.10894      0.00000     0.39018    0.00088     0.39106
      H   24    0.10227      0.00000     0.39632    0.00142     0.39773
      H   25    0.10606      0.00000     0.39279    0.00114     0.39394
      H   26    0.08547      0.00000     0.41273    0.00180     0.41453
      H   27    0.09070      0.00000     0.40694    0.00236     0.40930
      H   28    0.09793      0.00000     0.40078    0.00129     0.40207
      H   29    0.19770      0.00000     0.30053    0.00177     0.30230
      H   30    0.09629      0.00000     0.40265    0.00105     0.40371
      H   31    0.11686      0.00000     0.38138    0.00176     0.38314
      H   32    0.10774      0.00000     0.38918    0.00308     0.39226
      H   33    0.10970      0.00000     0.38796    0.00234     0.39030
      H   34    0.10833      0.00000     0.39041    0.00126     0.39167
      H   35    0.09658      0.00000     0.40185    0.00156     0.40342
      H   36    0.23430      0.00000     0.26188    0.00382     0.26570
 =======================================================================
   * Total *    0.00000     18.99360    51.75466    0.25173    71.00000

 Normal termination of Gaussian 16 at Sun Dec 13 22:24:50 2020.
