 Gaussian 16, Revision A.03,

 -----------------------------------------------------------
 # opt freq B3LYP/6-31G(d) empiricaldispersion=gd3bj scf=xqc
 -----------------------------------------------------------

 -------------------------------
 CID_151893658_JID_7244_neutraal
 -------------------------------
 Symbolic Z-matrix:
 Charge =  0 Multiplicity = 1

 SCF Done:  E(RB3LYP) =  -803.363124265     A.U. after   15 cycles
 SCF Done:  E(RB3LYP) =  -803.367956589     A.U. after   12 cycles
 SCF Done:  E(RB3LYP) =  -803.355601944     A.U. after   15 cycles
 SCF Done:  E(RB3LYP) =  -803.365002445     A.U. after   13 cycles
 SCF Done:  E(RB3LYP) =  -803.368452233     A.U. after   10 cycles
 SCF Done:  E(RB3LYP) =  -803.366837362     A.U. after   13 cycles
 SCF Done:  E(RB3LYP) =  -803.369334198     A.U. after   12 cycles
 SCF Done:  E(RB3LYP) =  -803.369469078     A.U. after   12 cycles
 SCF Done:  E(RB3LYP) =  -803.369621853     A.U. after   11 cycles
 SCF Done:  E(RB3LYP) =  -803.369648843     A.U. after   10 cycles
 SCF Done:  E(RB3LYP) =  -803.369734424     A.U. after   10 cycles
 SCF Done:  E(RB3LYP) =  -803.369738018     A.U. after   10 cycles
 SCF Done:  E(RB3LYP) =  -803.369737829     A.U. after    9 cycles
 SCF Done:  E(RB3LYP) =  -803.369739089     A.U. after    9 cycles
 SCF Done:  E(RB3LYP) =  -803.369739145     A.U. after    8 cycles
 Optimization completed.
    -- Stationary point found.
 Normal termination of Gaussian 16 at Mon Dec 14 16:55:14 2020.

 --------------------------------------------------------------------
 #N Geom=AllCheck Guess=TCheck SCRF=Check GenChk RB3LYP/6-31G(d) Freq
 --------------------------------------------------------------------

 Structure from the checkpoint file:  "JID_7244.chk"
 -------------------------------
 CID_151893658_JID_7244_neutraal
 -------------------------------
 Charge =  0 Multiplicity = 1

 SCF Done:  E(RB3LYP) =  -803.369739145     A.U. after    1 cycles

  Exact polarizability: 191.525   3.563 156.766   0.358   1.207  92.152
 Approx polarizability: 261.718  -3.333 250.670  -0.914   5.108 136.166

                      1                      2                      3
                      A                      A                      A
 Frequencies --     24.3469                37.3147                58.8255
 Red. masses --      4.0209                 4.2383                 3.6996
 Frc consts  --      0.0014                 0.0035                 0.0075
 IR Inten    --      0.4635                 0.1685                 1.0633

                      4                      5                      6
                      A                      A                      A
 Frequencies --     88.3011               100.0484               113.6233
 Red. masses --      2.4888                 4.0121                 3.5932
 Frc consts  --      0.0114                 0.0237                 0.0273
 IR Inten    --      2.7487                 5.1046                 1.3859

                      7                      8                      9
                      A                      A                      A
 Frequencies --    128.4306               142.5005               212.4881
 Red. masses --      5.4816                 3.0680                 1.8547
 Frc consts  --      0.0533                 0.0367                 0.0493
 IR Inten    --      0.1759                 0.1313                 0.7926

                     10                     11                     12
                      A                      A                      A
 Frequencies --    221.6012               241.9077               249.3582
 Red. masses --      1.7100                 1.7140                 1.6579
 Frc consts  --      0.0495                 0.0591                 0.0607
 IR Inten    --      6.7697                 0.2808                 7.2432

                     13                     14                     15
                      A                      A                      A
 Frequencies --    265.1954               266.8403               298.4767
 Red. masses --      3.0276                 4.4262                 1.3239
 Frc consts  --      0.1255                 0.1857                 0.0695
 IR Inten    --      1.2940                 6.6492                 2.2399

                     16                     17                     18
                      A                      A                      A
 Frequencies --    336.1550               352.6126               383.7012
 Red. masses --      2.9608                 2.4785                 6.4020
 Frc consts  --      0.1971                 0.1816                 0.5553
 IR Inten    --      0.2401                 8.6944                 4.1335

                     19                     20                     21
                      A                      A                      A
 Frequencies --    388.0244               402.6685               435.6662
 Red. masses --      3.1308                 2.7523                 3.0649
 Frc consts  --      0.2777                 0.2629                 0.3428
 IR Inten    --      3.9703                 0.8069                 6.7416

                     22                     23                     24
                      A                      A                      A
 Frequencies --    439.6644               504.7104               515.0194
 Red. masses --      3.0611                 2.0891                 1.3909
 Frc consts  --      0.3486                 0.3135                 0.2174
 IR Inten    --      7.9018                25.4949               135.5393

                     25                     26                     27
                      A                      A                      A
 Frequencies --    538.3352               551.9016               566.6426
 Red. masses --      4.4691                 2.9687                 3.2804
 Frc consts  --      0.7631                 0.5328                 0.6206
 IR Inten    --      8.3457                13.7704                 2.1653

                     28                     29                     30
                      A                      A                      A
 Frequencies --    623.3691               658.7261               690.4980
 Red. masses --      4.5940                 4.5942                 2.4194
 Frc consts  --      1.0518                 1.1745                 0.6797
 IR Inten    --      4.5513                10.1438                16.7985

                     31                     32                     33
                      A                      A                      A
 Frequencies --    716.8311               757.3647               776.9076
 Red. masses --      3.2980                 3.6988                 3.5230
 Frc consts  --      0.9985                 1.2500                 1.2529
 IR Inten    --      7.1846                 7.4707                21.9108

                     34                     35                     36
                      A                      A                      A
 Frequencies --    798.1429               829.9495               835.7015
 Red. masses --      1.4594                 2.8458                 1.7760
 Frc consts  --      0.5478                 1.1549                 0.7308
 IR Inten    --     11.6263                14.0391                 8.4256

                     37                     38                     39
                      A                      A                      A
 Frequencies --    860.1027               908.0829               946.8618
 Red. masses --      2.4447                 3.2130                 1.5163
 Frc consts  --      1.0655                 1.5610                 0.8010
 IR Inten    --     16.6630                17.7586                 0.0463

                     40                     41                     42
                      A                      A                      A
 Frequencies --    963.4592               975.1394              1006.1336
 Red. masses --      2.1217                 1.3735                 2.0057
 Frc consts  --      1.1604                 0.7695                 1.1963
 IR Inten    --      9.7549                 0.0113                12.7088

                     43                     44                     45
                      A                      A                      A
 Frequencies --   1013.1426              1021.0154              1068.0913
 Red. masses --      1.3345                 1.4850                 1.6771
 Frc consts  --      0.8071                 0.9121                 1.1272
 IR Inten    --      1.9532                 0.8686                14.7992

                     46                     47                     48
                      A                      A                      A
 Frequencies --   1083.9393              1094.8354              1098.0620
 Red. masses --      2.0605                 2.3973                 2.9022
 Frc consts  --      1.4263                 1.6930                 2.0617
 IR Inten    --     13.8791                 2.6577                10.1615

                     49                     50                     51
                      A                      A                      A
 Frequencies --   1116.8807              1128.7107              1173.1214
 Red. masses --      4.8728                 2.3355                 1.6297
 Frc consts  --      3.5813                 1.7530                 1.3214
 IR Inten    --     87.4411                81.8831                 7.2417

                     52                     53                     54
                      A                      A                      A
 Frequencies --   1187.4753              1194.1592              1211.3317
 Red. masses --      1.4056                 1.7367                 1.8692
 Frc consts  --      1.1678                 1.4591                 1.6159
 IR Inten    --      7.1204                31.5685                34.9891

                     55                     56                     57
                      A                      A                      A
 Frequencies --   1234.8816              1268.6085              1274.2373
 Red. masses --      1.7478                 1.5192                 1.9228
 Frc consts  --      1.5703                 1.4405                 1.8395
 IR Inten    --     34.0444                11.8815               118.5603

                     58                     59                     60
                      A                      A                      A
 Frequencies --   1299.9418              1322.7346              1325.5322
 Red. masses --      1.6944                 2.5695                 1.8969
 Frc consts  --      1.6870                 2.6488                 1.9637
 IR Inten    --      7.4715                78.5755                23.9262

                     61                     62                     63
                      A                      A                      A
 Frequencies --   1339.0111              1404.5635              1407.9837
 Red. masses --      4.8107                 1.4539                 3.0246
 Frc consts  --      5.0819                 1.6899                 3.5328
 IR Inten    --     58.0561                19.3254               153.3043

                     64                     65                     66
                      A                      A                      A
 Frequencies --   1421.0792              1427.2942              1446.0897
 Red. masses --      1.4231                 1.3734                 1.2740
 Frc consts  --      1.6932                 1.6484                 1.5696
 IR Inten    --     67.2155                45.2337                14.2527

                     67                     68                     69
                      A                      A                      A
 Frequencies --   1483.9991              1495.5146              1500.0096
 Red. masses --      2.6123                 1.1267                 1.0885
 Frc consts  --      3.3895                 1.4847                 1.4430
 IR Inten    --    221.3466                 2.2261                 1.3508

                     70                     71                     72
                      A                      A                      A
 Frequencies --   1504.0440              1515.6277              1518.6604
 Red. masses --      2.4396                 1.0646                 1.0555
 Frc consts  --      3.2516                 1.4409                 1.4343
 IR Inten    --     38.5931                 2.9177                 1.2568

                     73                     74                     75
                      A                      A                      A
 Frequencies --   1525.3561              1532.8074              1541.4947
 Red. masses --      1.0722                 1.0557                 1.0865
 Frc consts  --      1.4699                 1.4614                 1.5211
 IR Inten    --     11.2275                 2.9097                 2.9041

                     76                     77                     78
                      A                      A                      A
 Frequencies --   1542.3063              1552.1754              1628.8131
 Red. masses --      1.0505                 1.0744                 3.0102
 Frc consts  --      1.4723                 1.5251                 4.7053
 IR Inten    --      3.4083                 6.2664               102.4892

                     79                     80                     81
                      A                      A                      A
 Frequencies --   1633.1937              1650.0547              1769.7748
 Red. masses --      2.3090                 3.1841                 7.9064
 Frc consts  --      3.6287                 5.1078                14.5903
 IR Inten    --    172.3260                 6.2398               423.0457

                     82                     83                     84
                      A                      A                      A
 Frequencies --   3033.8158              3054.5759              3059.7609
 Red. masses --      1.0339                 1.0494                 1.0464
 Frc consts  --      5.6066                 5.7686                 5.7719
 IR Inten    --     32.3799                 1.4181                36.3687

                     85                     86                     87
                      A                      A                      A
 Frequencies --   3064.9240              3070.4117              3091.6782
 Red. masses --      1.0469                 1.0589                 1.1027
 Frc consts  --      5.7941                 5.8814                 6.2103
 IR Inten    --      2.2540                26.9130                48.9722

                     88                     89                     90
                      A                      A                      A
 Frequencies --   3100.0605              3124.0991              3130.0261
 Red. masses --      1.0978                 1.1014                 1.1015
 Frc consts  --      6.2160                 6.3334                 6.3580
 IR Inten    --     38.1239                30.3495                22.5186

                     91                     92                     93
                      A                      A                      A
 Frequencies --   3132.6230              3138.7854              3141.8718
 Red. masses --      1.1031                 1.1026                 1.1006
 Frc consts  --      6.3780                 6.4000                 6.4009
 IR Inten    --      7.3882                25.8477                30.9397

                     94                     95                     96
                      A                      A                      A
 Frequencies --   3147.3730              3177.6219              3218.1656
 Red. masses --      1.1024                 1.0896                 1.0916
 Frc consts  --      6.4343                 6.4822                 6.6608
 IR Inten    --     24.8208                25.3361                13.6982

                     97                     98                     99
                      A                      A                      A
 Frequencies --   3234.5813              3537.9869              3685.9505
 Red. masses --      1.0939                 1.0509                 1.1010
 Frc consts  --      6.7431                 7.7507                 8.8131
 IR Inten    --      6.9243               284.4387               108.1673

 - Thermochemistry -
 -------------------
 Temperature   298.150 Kelvin.  Pressure   1.00000 Atm.
 Atom     1 has atomic number  6 and mass  12.00000

 Molecular mass:   238.13174 amu.
 Principal axes and moments of inertia in atomic units:
                           1         2         3
     Eigenvalues --  2219.133575907.028427401.85545
           X            0.99999   0.00332  -0.00070
           Y           -0.00333   0.99993  -0.01145
           Z            0.00067   0.01146   0.99993
 This molecule is an asymmetric top.
 Rotational symmetry number  1.
 Warning -- assumption of classical behavior for rotation
           may cause significant error
 Rotational temperatures (Kelvin)      0.03903     0.01466     0.01170
 Rotational constants (GHZ):           0.81326     0.30552     0.24382
 Zero-point vibrational energy     779441.8 (Joules/Mol)
                                  186.29107 (Kcal/Mol)
 Warning -- explicit consideration of  27 degrees of freedom as
           vibrations may cause significant error
 Vibrational temperatures:     35.03    53.69    84.64   127.05   143.95
          (Kelvin)            163.48   184.78   205.03   305.72   318.83
                              348.05   358.77   381.56   383.92   429.44
                              483.65   507.33   552.06   558.28   579.35
                              626.83   632.58   726.17   741.00   774.54
                              794.06   815.27   896.89   947.76   993.47
                             1031.36  1089.68  1117.80  1148.35  1194.11
                             1202.39  1237.50  1306.53  1362.32  1386.20
                             1403.01  1447.60  1457.69  1469.01  1536.75
                             1559.55  1575.22  1579.87  1606.94  1623.96
                             1687.86  1708.51  1718.13  1742.84  1776.72
                             1825.24  1833.34  1870.33  1903.12  1907.15
                             1926.54  2020.85  2025.77  2044.62  2053.56
                             2080.60  2135.14  2151.71  2158.18  2163.98
                             2180.65  2185.01  2194.65  2205.37  2217.87
                             2219.03  2233.23  2343.50  2349.80  2374.06
                             2546.31  4364.98  4394.85  4402.31  4409.74
                             4417.64  4448.24  4460.30  4494.88  4503.41
                             4507.15  4516.01  4520.45  4528.37  4571.89
                             4630.22  4653.84  5090.37  5303.26

 Zero-point correction=                           0.296874 (Hartree/Particle)
 Thermal correction to Energy=                    0.314094
 Thermal correction to Enthalpy=                  0.315038
 Thermal correction to Gibbs Free Energy=         0.251443
 Sum of electronic and zero-point Energies=           -803.072865
 Sum of electronic and thermal Energies=              -803.055645
 Sum of electronic and thermal Enthalpies=            -803.054701
 Sum of electronic and thermal Free Energies=         -803.118297

                     E (Thermal)             CV                S
                      KCal/Mol        Cal/Mol-Kelvin    Cal/Mol-Kelvin
 Total                  197.097             65.399            133.848
 Electronic               0.000              0.000              0.000
 Translational            0.889              2.981             42.304
 Rotational               0.889              2.981             32.939
 Vibrational            195.319             59.438             58.604
 Vibration     1          0.593              1.985              6.244
 Vibration     2          0.594              1.982              5.397
 Vibration     3          0.596              1.974              4.496
 Vibration     4          0.601              1.957              3.697
 Vibration     5          0.604              1.949              3.453
 Vibration     6          0.607              1.938              3.206
 Vibration     7          0.611              1.925              2.969
 Vibration     8          0.616              1.911              2.770
 Vibration     9          0.644              1.822              2.022
 Vibration    10          0.648              1.808              1.946
 Vibration    11          0.658              1.776              1.789
 Vibration    12          0.662              1.764              1.735
 Vibration    13          0.671              1.737              1.627
 Vibration    14          0.672              1.734              1.617
 Vibration    15          0.692              1.677              1.425
 Vibration    16          0.717              1.603              1.230
 Vibration    17          0.729              1.570              1.154
 Vibration    18          0.753              1.505              1.025
 Vibration    19          0.756              1.496              1.008
 Vibration    20          0.768              1.464              0.953
 Vibration    21          0.796              1.392              0.840
 Vibration    22          0.800              1.384              0.828
 Vibration    23          0.860              1.240              0.646
 Vibration    24          0.870              1.217              0.622
 Vibration    25          0.893              1.165              0.569
 Vibration    26          0.907              1.136              0.540
 Vibration    27          0.923              1.103              0.511

 Optimization completed.
    -- Stationary point found.
 Normal termination of Gaussian 16 at Mon Dec 14 17:08:16 2020.

 ----------------------------------------------------------------------
 # B3LYP/6-311++G(d,p) empiricaldispersion=gd3bj scf=xqc pop=npa geom=c
 heck
 ----------------------------------------------------------------------

 ---------------------------------------
 CID_151893658_JID_7244_Energie_neutraal
 ---------------------------------------
 Structure from the checkpoint file:  "JID_7244.chk"
 Charge =  0 Multiplicity = 1

 SCF Done:  E(RB3LYP) =  -803.601665493     A.U. after   15 cycles
 Normal termination of Gaussian 16 at Mon Dec 14 17:15:00 2020.

 ----------------------------------------------------------------------
 # B3LYP/6-311++G(d,p) empiricaldispersion=gd3bj scf=xqc pop=npa geom=c
 heck
 ----------------------------------------------------------------------

 -------------------------------------
 CID_151893658_JID_7244_Energie_kation
 -------------------------------------
 Structure from the checkpoint file:  "JID_7244.chk"
 Charge =  1 Multiplicity = 2

 SCF Done:  E(UB3LYP) =  -803.291172787     A.U. after   27 cycles
 Normal termination of Gaussian 16 at Mon Dec 14 17:33:23 2020.
 Gaussian 16:  ES64L-G16RevA.03 25-Dec-2016

 ----------------------------------------------------------------------
 # B3LYP/6-311++G(d,p) empiricaldispersion=gd3bj scf=xqc pop=npa geom=c
 heck
 ----------------------------------------------------------------------

 ------------------------------------
 CID_151893658_JID_7244_Energie_anion
 ------------------------------------
 Structure from the checkpoint file:  "JID_7244.chk"
 Charge = -1 Multiplicity = 2

                         Standard orientation:
 ---------------------------------------------------------------------
 Center     Atomic      Atomic             Coordinates (Angstroms)
 Number     Number       Type             X           Y           Z
 ---------------------------------------------------------------------
      1          6           0        2.622539   -0.368714    1.778553
      2          6           0        2.879751   -0.276795    0.273773
      3          6           0        4.390716   -0.309053   -0.002942
      4          6           0        2.194716   -1.425193   -0.500264
      5          6           0        0.757053   -1.761722   -0.134154
      6          8           0       -0.039337   -0.566666   -0.208804
      7          6           0       -1.386758   -0.697955   -0.110411
      8          6           0       -2.165043    0.475317    0.023885
      9          6           0       -3.547370    0.295064    0.055684
     10          6           0       -4.100464   -0.982205   -0.015903
     11          6           0       -3.228064   -2.059473   -0.109047
     12          7           0       -1.895944   -1.924056   -0.158208
     13          6           0       -1.676523    1.895153    0.174419
     14          8           0       -2.487718    2.820627    0.194304
     15          7           0       -0.345180    2.099582    0.324418
     16          8           0        2.346247    1.017424   -0.083695
     17          6           0        2.362221    1.385479   -1.453169
     18          1           0        2.950996   -1.336666    2.171513
     19          1           0        1.559124   -0.241082    1.997131
     20          1           0        3.172442    0.421990    2.297576
     21          1           0        4.842491   -1.195359    0.454635
     22          1           0        4.613928   -0.343133   -1.074415
     23          1           0        4.864384    0.581056    0.422485
     24          1           0        2.260624   -1.223205   -1.574983
     25          1           0        2.778813   -2.339004   -0.332173
     26          1           0        0.351930   -2.512169   -0.816518
     27          1           0        0.678798   -2.168229    0.880341
     28          1           0       -4.159155    1.185811    0.148841
     29          1           0       -5.173693   -1.136879    0.013683
     30          1           0       -3.600267   -3.081430   -0.146902
     31          1           0        0.366296    1.378051    0.272818
     32          1           0       -0.057968    3.058716    0.456045
     33          1           0        2.085591    2.441907   -1.485808
     34          1           0        3.355506    1.270355   -1.904629
     35          1           0        1.627839    0.820082   -2.040087
 ---------------------------------------------------------------------

 SCF Done:  E(UB3LYP) =  -803.600492772     A.U. after   33 cycles
 SCF Done:  E(UB3LYP) =  -803.600492772     a.u. after    1 cycles

 The electronic state is 2-A.
 Alpha  occ. eigenvalues --  -19.04650 -19.03092 -18.95042 -14.19489 -14.17950
 Alpha  occ. eigenvalues --  -10.14640 -10.14155 -10.13947 -10.12132 -10.11583
 Alpha  occ. eigenvalues --  -10.07816 -10.07321 -10.06758 -10.06727 -10.05125
 Alpha  occ. eigenvalues --  -10.05032 -10.04830  -0.97033  -0.94029  -0.90262
 Alpha  occ. eigenvalues --   -0.81554  -0.77149  -0.71939  -0.68072  -0.66408
 Alpha  occ. eigenvalues --   -0.62603  -0.60807  -0.58412  -0.55252  -0.53161
 Alpha  occ. eigenvalues --   -0.49318  -0.47147  -0.45375  -0.42889  -0.41784
 Alpha  occ. eigenvalues --   -0.40576  -0.39540  -0.37946  -0.36879  -0.36115
 Alpha  occ. eigenvalues --   -0.35366  -0.33628  -0.33418  -0.32608  -0.30920
 Alpha  occ. eigenvalues --   -0.30267  -0.29005  -0.28874  -0.28795  -0.28644
 Alpha  occ. eigenvalues --   -0.27208  -0.26949  -0.26460  -0.25692  -0.25072
 Alpha  occ. eigenvalues --   -0.23443  -0.22318  -0.21174  -0.16921  -0.16444
 Alpha  occ. eigenvalues --   -0.15408  -0.14372  -0.12823  -0.12162   0.04127
 Alpha virt. eigenvalues --    0.05525   0.07230   0.08047   0.08299   0.08812
 Alpha virt. eigenvalues --    0.09940   0.10214   0.10339   0.10826   0.11178
 Alpha virt. eigenvalues --    0.11228   0.11884   0.13234   0.13295   0.13944

  Beta  occ. eigenvalues --  -19.04651 -19.03090 -18.94956 -14.19440 -14.17854
  Beta  occ. eigenvalues --  -10.14651 -10.14153 -10.13856 -10.12127 -10.11565
  Beta  occ. eigenvalues --  -10.07798 -10.07020 -10.06746 -10.06690 -10.05211
  Beta  occ. eigenvalues --  -10.04893 -10.04598  -0.97021  -0.94024  -0.90085
  Beta  occ. eigenvalues --   -0.81281  -0.77020  -0.71916  -0.67720  -0.66309
  Beta  occ. eigenvalues --   -0.62386  -0.60748  -0.58379  -0.55151  -0.52707
  Beta  occ. eigenvalues --   -0.49199  -0.47026  -0.45249  -0.42796  -0.41715
  Beta  occ. eigenvalues --   -0.40553  -0.39384  -0.37910  -0.36832  -0.36068
  Beta  occ. eigenvalues --   -0.35295  -0.33429  -0.33323  -0.32551  -0.30878
  Beta  occ. eigenvalues --   -0.29991  -0.28975  -0.28716  -0.28655  -0.28429
  Beta  occ. eigenvalues --   -0.27111  -0.26628  -0.26282  -0.25554  -0.24975
  Beta  occ. eigenvalues --   -0.23382  -0.22045  -0.21042  -0.16893  -0.15387
  Beta  occ. eigenvalues --   -0.15211  -0.13922  -0.12692  -0.11457
  Beta virt. eigenvalues --    0.06358   0.07657   0.08159   0.08450   0.08587
  Beta virt. eigenvalues --    0.08982   0.10163   0.10247   0.10435   0.11099
  Beta virt. eigenvalues --    0.11381   0.11446   0.11940   0.13222   0.13431

 Mulliken charges and spin densities:
               1          2
     1  C   -0.173760  -0.527905
     2  C   -1.542135   1.698134
     3  C    1.124508  -1.603353
     4  C    0.739243  -1.341880
     5  C   -0.546055   0.387177
     6  O   -0.133440   0.004961
     7  C   -0.079751  -0.069216
     8  C    0.725609   0.096910
     9  C   -0.088280   0.223554
    10  C   -0.436586  -0.049630
    11  C   -0.300380   0.228683
    12  N   -0.066444   0.034981
    13  C   -0.548526   0.024552
    14  O   -0.423978   0.035555
    15  N   -0.496174   0.031201
    16  O   -0.004803   0.008489
    17  C    0.138826  -0.408000
    18  H   -0.019241   0.168819
    19  H    0.141316   0.025419
    20  H    0.139485   0.023851
    21  H   -0.305687   0.455128
    22  H   -0.342402   0.490476
    23  H   -0.066833   0.227211
    24  H    0.142003   0.041819
    25  H   -0.225560   0.412580
    26  H    0.107318   0.118904
    27  H    0.220263  -0.032227
    28  H    0.204091  -0.014993
    29  H    0.121860   0.005079
    30  H    0.130084  -0.011210
    31  H    0.504128  -0.024119
    32  H    0.271181   0.009389
    33  H    0.098468   0.036367
    34  H   -0.067725   0.188637
    35  H    0.059375   0.104658
 Sum of Mulliken charges =  -1.00000   1.00000

 Dipole moment (field-independent basis, Debye):
    X=              0.2623    Y=             -0.8270    Z=              0.4744  Tot=              0.9888
 Quadrupole moment (field-independent basis, Debye-Ang):
   XX=           -179.2889   YY=           -140.4499   ZZ=           -121.0036
   XY=             16.9258   XZ=              3.4786   YZ=             -1.5099

 Summary of Natural Population Analysis:

                                       Natural Population
                Natural  -----------------------------------------------
    Atom  No    Charge         Core      Valence    Rydberg      Total
 -----------------------------------------------------------------------
      C    1   -0.29370      0.99960     2.28658    0.00751     3.29370
      C    2    0.13872      0.99953     1.84507    0.01668     2.86128
      C    3   -0.29852      0.99961     2.29201    0.00690     3.29852
      C    4   -0.21417      0.99956     2.20435    0.01026     3.21417
      C    5   -0.01373      0.99955     2.00087    0.01331     3.01373
      O    6   -0.29101      0.99985     3.28180    0.00935     4.29101
      C    7    0.27966      0.99943     1.70625    0.01466     2.72034
      C    8   -0.08685      0.99941     2.07831    0.00913     3.08685
      C    9   -0.01640      0.99955     2.00808    0.00877     3.01640
      C   10   -0.16271      0.99956     2.15453    0.00861     3.16271
      C   11    0.08621      0.99961     1.90019    0.01399     2.91379
      N   12   -0.26500      0.99966     2.75611    0.00923     3.76500
      C   13    0.34253      0.99967     1.63633    0.02148     2.65747
      O   14   -0.33659      0.99988     3.33093    0.00578     4.33659
      N   15   -0.40172      0.99969     2.89505    0.00698     3.90172
      O   16   -0.31715      0.99987     3.30548    0.01180     4.31715
      C   17   -0.10429      0.99959     2.09471    0.00999     3.10429
      H   18    0.09980      0.00000     0.39952    0.00067     0.40020
      H   19    0.10777      0.00000     0.39105    0.00117     0.39223
      H   20    0.10286      0.00000     0.39619    0.00095     0.39714
      H   21    0.10435      0.00000     0.39422    0.00143     0.39565
      H   22    0.10166      0.00000     0.39685    0.00149     0.39834
      H   23    0.10278      0.00000     0.39620    0.00102     0.39722
      H   24    0.10272      0.00000     0.39600    0.00127     0.39728
      H   25    0.10734      0.00000     0.39161    0.00105     0.39266
      H   26    0.10081      0.00000     0.39753    0.00166     0.39919
      H   27    0.08670      0.00000     0.41192    0.00137     0.41330
      H   28    0.10904      0.00000     0.38989    0.00107     0.39096
      H   29    0.09591      0.00000     0.40302    0.00107     0.40409
      H   30    0.07800      0.00000     0.42077    0.00122     0.42200
      H   31    0.21232      0.00000     0.28464    0.00304     0.28768
      H   32    0.18455      0.00000     0.31240    0.00304     0.31545
      H   33    0.09171      0.00000     0.40728    0.00101     0.40829
      H   34    0.08129      0.00000     0.41758    0.00113     0.41871
      H   35    0.08509      0.00000     0.41378    0.00113     0.41491
 =======================================================================
   * Total *    0.00000     16.99363    46.79712    0.20926    64.00000

 Normal termination of Gaussian 16 at Mon Dec 14 17:55:01 2020.
