 Gaussian 16, Revision A.03,

 -----------------------------------------------------------
 # opt freq B3LYP/6-31G(d) empiricaldispersion=gd3bj scf=xqc
 -----------------------------------------------------------

 -------------------------------
 CID_116146162_JID_1149_neutraal
 -------------------------------
 Symbolic Z-matrix:
 Charge =  0 Multiplicity = 1

 SCF Done:  E(RB3LYP) =  -483.164987207     A.U. after   13 cycles
 SCF Done:  E(RB3LYP) =  -483.169512353     A.U. after   11 cycles
 SCF Done:  E(RB3LYP) =  -483.169987329     A.U. after   11 cycles
 SCF Done:  E(RB3LYP) =  -483.169971074     A.U. after   11 cycles
 SCF Done:  E(RB3LYP) =  -483.170067979     A.U. after   11 cycles
 SCF Done:  E(RB3LYP) =  -483.170150966     A.U. after   10 cycles
 SCF Done:  E(RB3LYP) =  -483.170166408     A.U. after   10 cycles
 SCF Done:  E(RB3LYP) =  -483.170169761     A.U. after    9 cycles
 SCF Done:  E(RB3LYP) =  -483.170171408     A.U. after    8 cycles
 SCF Done:  E(RB3LYP) =  -483.170172092     A.U. after    7 cycles
 SCF Done:  E(RB3LYP) =  -483.170172605     A.U. after    8 cycles
 SCF Done:  E(RB3LYP) =  -483.170172691     A.U. after    7 cycles
 SCF Done:  E(RB3LYP) =  -483.170172691     A.U. after    7 cycles
 Optimization completed.
    -- Stationary point found.
 Normal termination of Gaussian 16 at Tue Dec  8 19:16:33 2020.

 --------------------------------------------------------------------
 #N Geom=AllCheck Guess=TCheck SCRF=Check GenChk RB3LYP/6-31G(d) Freq
 --------------------------------------------------------------------

 Structure from the checkpoint file:  "JID_1149.chk"
 -------------------------------
 CID_116146162_JID_1149_neutraal
 -------------------------------
 Charge =  0 Multiplicity = 1

 SCF Done:  E(RB3LYP) =  -483.170172691     A.U. after    1 cycles

  Exact polarizability: 112.081  -1.101  95.115   3.167   7.688  94.562
 Approx polarizability: 134.591  -1.697 134.517   9.496  13.934 152.519

                      1                      2                      3
                      A                      A                      A
 Frequencies --     33.7558                71.4388                91.3945
 Red. masses --      3.4356                 2.7703                 2.3071
 Frc consts  --      0.0023                 0.0083                 0.0114
 IR Inten    --      0.1316                 0.9507                 0.0736

                      4                      5                      6
                      A                      A                      A
 Frequencies --    120.4710               135.6828               184.4865
 Red. masses --      2.8674                 2.9991                 2.5156
 Frc consts  --      0.0245                 0.0325                 0.0504
 IR Inten    --      1.9016                 0.0749                 0.4957

                      7                      8                      9
                      A                      A                      A
 Frequencies --    248.0459               269.2555               290.4112
 Red. masses --      1.0893                 3.2814                 2.8091
 Frc consts  --      0.0395                 0.1402                 0.1396
 IR Inten    --      0.0778                 2.8236                 0.4897

                     10                     11                     12
                      A                      A                      A
 Frequencies --    323.8175               336.8975               375.8956
 Red. masses --      1.1304                 2.5155                 2.4259
 Frc consts  --      0.0698                 0.1682                 0.2020
 IR Inten    --    114.8814                 5.2441                 2.3231

                     13                     14                     15
                      A                      A                      A
 Frequencies --    380.8690               450.0728               566.7198
 Red. masses --      2.3509                 2.7367                 2.1971
 Frc consts  --      0.2009                 0.3266                 0.4157
 IR Inten    --      7.9324                14.4498                14.6832

                     16                     17                     18
                      A                      A                      A
 Frequencies --    587.3817               615.8746               683.3941
 Red. masses --      2.7174                 2.2625                 1.7331
 Frc consts  --      0.5524                 0.5056                 0.4769
 IR Inten    --      6.5519                 0.0841                 8.4714

                     19                     20                     21
                      A                      A                      A
 Frequencies --    697.9504               747.6185               790.8137
 Red. masses --      2.1476                 2.0665                 1.6076
 Frc consts  --      0.6164                 0.6805                 0.5924
 IR Inten    --     33.6092                50.1224                 8.1723

                     22                     23                     24
                      A                      A                      A
 Frequencies --    823.9899               862.3894               887.0317
 Red. masses --      2.8024                 2.1214                 2.0316
 Frc consts  --      1.1210                 0.9296                 0.9418
 IR Inten    --      7.9075                18.2645                 2.4804

                     25                     26                     27
                      A                      A                      A
 Frequencies --    898.4879               933.3610               937.0506
 Red. masses --      2.1479                 1.5681                 1.5040
 Frc consts  --      1.0216                 0.8049                 0.7781
 IR Inten    --      9.9414                21.6817                16.7415

                     28                     29                     30
                      A                      A                      A
 Frequencies --    953.7914               992.4772              1029.7105
 Red. masses --      1.9627                 1.7196                 1.6346
 Frc consts  --      1.0520                 0.9980                 1.0212
 IR Inten    --     10.0951                 7.1448                 4.8146

                     31                     32                     33
                      A                      A                      A
 Frequencies --   1039.0405              1044.0578              1054.8812
 Red. masses --      1.8153                 1.2518                 1.7120
 Frc consts  --      1.1547                 0.8039                 1.1224
 IR Inten    --     10.7761                12.2238                 2.7801

                     34                     35                     36
                      A                      A                      A
 Frequencies --   1089.2152              1106.3394              1127.4596
 Red. masses --      1.7444                 2.3475                 2.3397
 Frc consts  --      1.2193                 1.6929                 1.7523
 IR Inten    --     10.8966                 2.8485                 9.2956

                     37                     38                     39
                      A                      A                      A
 Frequencies --   1155.0725              1187.8579              1213.3816
 Red. masses --      1.5009                 1.4680                 2.2629
 Frc consts  --      1.1798                 1.2204                 1.9629
 IR Inten    --     66.9903                 4.1357                67.5124

                     40                     41                     42
                      A                      A                      A
 Frequencies --   1228.5785              1252.1951              1276.6429
 Red. masses --      1.7013                 1.5082                 1.4316
 Frc consts  --      1.5130                 1.3934                 1.3747
 IR Inten    --      7.5932                 6.1297                 2.3988

                     43                     44                     45
                      A                      A                      A
 Frequencies --   1292.2576              1320.0951              1321.1247
 Red. masses --      1.5091                 1.3029                 1.2656
 Frc consts  --      1.4848                 1.3378                 1.3014
 IR Inten    --      1.3327                 2.2733                 3.4574

                     46                     47                     48
                      A                      A                      A
 Frequencies --   1329.1827              1343.9124              1351.1815
 Red. masses --      1.4074                 1.3534                 1.4118
 Frc consts  --      1.4650                 1.4402                 1.5186
 IR Inten    --      6.1819                 4.6959                 4.3165

                     49                     50                     51
                      A                      A                      A
 Frequencies --   1356.8200              1383.1704              1424.0138
 Red. masses --      1.4189                 1.3784                 1.2724
 Frc consts  --      1.5390                 1.5538                 1.5203
 IR Inten    --      1.8046                 4.9132                 4.0028

                     52                     53                     54
                      A                      A                      A
 Frequencies --   1429.5313              1446.9151              1466.9301
 Red. masses --      1.2615                 1.2077                 1.1926
 Frc consts  --      1.5189                 1.4896                 1.5120
 IR Inten    --      5.3318                42.1293                 4.4680

                     55                     56                     57
                      A                      A                      A
 Frequencies --   1506.2513              1513.9670              1521.2534
 Red. masses --      1.1808                 1.0759                 1.0581
 Frc consts  --      1.5784                 1.4529                 1.4427
 IR Inten    --     48.1428                 1.1344                10.2285

                     58                     59                     60
                      A                      A                      A
 Frequencies --   1523.2917              1531.6073              1541.2803
 Red. masses --      1.0811                 1.1332                 1.1047
 Frc consts  --      1.4780                 1.5662                 1.5462
 IR Inten    --      5.9300                17.1480                 5.6202

                     61                     62                     63
                      A                      A                      A
 Frequencies --   1728.8272              2988.3896              3019.2408
 Red. masses --      4.4534                 1.0829                 1.0832
 Frc consts  --      7.8423                 5.6978                 5.8179
 IR Inten    --      6.0359                31.0384                25.1257

                     64                     65                     66
                      A                      A                      A
 Frequencies --   3049.4534              3059.0905              3061.6176
 Red. masses --      1.0351                 1.0691                 1.0611
 Frc consts  --      5.6714                 5.8945                 5.8603
 IR Inten    --     31.5636                23.1420                32.5662

                     67                     68                     69
                      A                      A                      A
 Frequencies --   3071.2553              3097.1189              3112.5976
 Red. masses --      1.0639                 1.1005                 1.1000
 Frc consts  --      5.9126                 6.2197                 6.2790
 IR Inten    --     37.4647                14.2405                11.2869

                     70                     71                     72
                      A                      A                      A
 Frequencies --   3115.6995              3118.6940              3125.2861
 Red. masses --      1.1018                 1.0984                 1.0936
 Frc consts  --      6.3015                 6.2947                 6.2932
 IR Inten    --     20.5758                42.4768                48.4952

                     73                     74                     75
                      A                      A                      A
 Frequencies --   3135.9462              3138.0539              3164.7825
 Red. masses --      1.0849                 1.1026                 1.0647
 Frc consts  --      6.2859                 6.3974                 6.2827
 IR Inten    --     37.0657                32.2162                 5.7663

                     76                     77                     78
                      A                      A                      A
 Frequencies --   3238.7095              3530.6663              3736.6523
 Red. masses --      1.1153                 1.0730                 1.0657
 Frc consts  --      6.8927                 7.8806                 8.7669
 IR Inten    --     21.9202                 6.3666                 6.5636

 - Thermochemistry -
 -------------------
 Temperature   298.150 Kelvin.  Pressure   1.00000 Atm.
 Atom     1 has atomic number  6 and mass  12.00000

 Molecular mass:   155.13101 amu.
 Principal axes and moments of inertia in atomic units:
                           1         2         3
     Eigenvalues --   981.705982711.806532859.36138
           X            0.99991   0.01269  -0.00415
           Y           -0.01226   0.99572   0.09160
           Z            0.00529  -0.09154   0.99579
 This molecule is an asymmetric top.
 Rotational symmetry number  1.
 Warning -- assumption of classical behavior for rotation
           may cause significant error
 Rotational temperatures (Kelvin)      0.08823     0.03194     0.03029
 Rotational constants (GHZ):           1.83837     0.66551     0.63117
 Zero-point vibrational energy     665064.6 (Joules/Mol)
                                  158.95427 (Kcal/Mol)
 Warning -- explicit consideration of  17 degrees of freedom as
           vibrations may cause significant error
 Vibrational temperatures:     48.57   102.78   131.50   173.33   195.22
          (Kelvin)            265.43   356.88   387.40   417.84   465.90
                              484.72   540.83   547.99   647.55   815.38
                              845.11   886.11   983.25  1004.20  1075.66
                             1137.80  1185.54  1240.79  1276.24  1292.72
                             1342.90  1348.21  1372.29  1427.95  1481.52
                             1494.95  1502.17  1517.74  1567.14  1591.78
                             1622.16  1661.89  1709.06  1745.79  1767.65
                             1801.63  1836.80  1859.27  1899.32  1900.80
                             1912.40  1933.59  1944.05  1952.16  1990.07
                             2048.84  2056.78  2081.79  2110.59  2167.16
                             2178.26  2188.74  2191.68  2203.64  2217.56
                             2487.40  4299.63  4344.01  4387.48  4401.35
                             4404.98  4418.85  4456.06  4478.33  4482.80
                             4487.11  4496.59  4511.93  4514.96  4553.42
                             4659.78  5079.84  5376.21

 Zero-point correction=                           0.253310 (Hartree/Particle)
 Thermal correction to Energy=                    0.265330
 Thermal correction to Enthalpy=                  0.266274
 Thermal correction to Gibbs Free Energy=         0.215015
 Sum of electronic and zero-point Energies=           -482.916863
 Sum of electronic and thermal Energies=              -482.904843
 Sum of electronic and thermal Enthalpies=            -482.903898
 Sum of electronic and thermal Free Energies=         -482.955158

                     E (Thermal)             CV                S
                      KCal/Mol        Cal/Mol-Kelvin    Cal/Mol-Kelvin
 Total                  166.497             45.748            107.884
 Electronic               0.000              0.000              0.000
 Translational            0.889              2.981             41.027
 Rotational               0.889              2.981             30.410
 Vibrational            164.720             39.786             36.447
 Vibration     1          0.594              1.983              5.595
 Vibration     2          0.598              1.968              4.113
 Vibration     3          0.602              1.955              3.630
 Vibration     4          0.609              1.932              3.093
 Vibration     5          0.614              1.918              2.864
 Vibration     6          0.631              1.861              2.283
 Vibration     7          0.662              1.766              1.744
 Vibration     8          0.674              1.730              1.601
 Vibration     9          0.686              1.692              1.472
 Vibration    10          0.708              1.628              1.291
 Vibration    11          0.718              1.602              1.227
 Vibration    12          0.747              1.521              1.056
 Vibration    13          0.751              1.511              1.036
 Vibration    14          0.809              1.361              0.796
 Vibration    15          0.923              1.103              0.511
 Vibration    16          0.945              1.059              0.472
 Vibration    17          0.975              0.998              0.423

                           ! Non-Optimized Parameters !
 Normal termination of Gaussian 16 at Tue Dec  8 19:23:08 2020.

 ----------------------------------------------------------------------
 # B3LYP/6-311++G(d,p) empiricaldispersion=gd3bj scf=xqc pop=npa geom=c
 heck
 ----------------------------------------------------------------------

 ---------------------------------------
 CID_116146162_JID_1149_Energie_neutraal
 ---------------------------------------
 Structure from the checkpoint file:  "JID_1149.chk"
 Charge =  0 Multiplicity = 1

 SCF Done:  E(RB3LYP) =  -483.319527126     A.U. after   14 cycles
 Normal termination of Gaussian 16 at Tue Dec  8 19:26:11 2020.

 ----------------------------------------------------------------------
 # B3LYP/6-311++G(d,p) empiricaldispersion=gd3bj scf=xqc pop=npa geom=c
 heck
 ----------------------------------------------------------------------

 -------------------------------------
 CID_116146162_JID_1149_Energie_kation
 -------------------------------------
 Structure from the checkpoint file:  "JID_1149.chk"
 Charge =  1 Multiplicity = 2

 SCF Done:  E(UB3LYP) =  -483.024090858     A.U. after   22 cycles
 Normal termination of Gaussian 16 at Tue Dec  8 19:32:51 2020.
 Gaussian 16:  ES64L-G16RevA.03 25-Dec-2016

 ----------------------------------------------------------------------
 # B3LYP/6-311++G(d,p) empiricaldispersion=gd3bj scf=xqc pop=npa geom=c
 heck
 ----------------------------------------------------------------------

 ------------------------------------
 CID_116146162_JID_1149_Energie_anion
 ------------------------------------
 Structure from the checkpoint file:  "JID_1149.chk"
 Charge = -1 Multiplicity = 2

                         Standard orientation:
 ---------------------------------------------------------------------
 Center     Atomic      Atomic             Coordinates (Angstroms)
 Number     Number       Type             X           Y           Z
 ---------------------------------------------------------------------
      1          6           0       -3.092037   -1.262652   -0.516107
      2          6           0       -1.932147   -0.250836   -0.580621
      3          6           0       -2.385329    1.057481    0.044807
      4          6           0       -1.955362    1.576497    1.194143
      5          7           0       -0.731982   -0.854846   -0.020829
      6          6           0        0.548039   -0.418631   -0.537774
      7          6           0        0.914964    1.083628   -0.629305
      8          6           0        2.426188    1.040505   -0.926773
      9          6           0        2.951473   -0.231385   -0.193570
     10          6           0        1.701683   -0.979393    0.316919
     11          8           0        1.455431   -0.747580    1.712566
     12          1           0       -3.300936   -1.524019    0.527411
     13          1           0       -2.819936   -2.175868   -1.052960
     14          1           0       -4.010689   -0.851669   -0.950950
     15          1           0       -1.722158   -0.058712   -1.643081
     16          1           0       -3.186957    1.565726   -0.493937
     17          1           0       -2.373966    2.494421    1.596481
     18          1           0       -1.168163    1.107822    1.779099
     19          1           0       -0.722007   -0.832989    0.995119
     20          1           0        0.663126   -0.831520   -1.553608
     21          1           0        0.714214    1.581624    0.326960
     22          1           0        0.338584    1.623731   -1.385799
     23          1           0        2.943421    1.952017   -0.611975
     24          1           0        2.588601    0.942738   -2.006060
     25          1           0        3.603802    0.005678    0.653726
     26          1           0        3.534990   -0.864760   -0.869522
     27          1           0        1.779089   -2.065463    0.233137
     28          1           0        1.554586    0.204512    1.870918
 ---------------------------------------------------------------------

 SCF Done:  E(UB3LYP) =  -483.304036312     A.U. after   32 cycles

 The electronic state is 2-A.
 Alpha  occ. eigenvalues --  -19.02078 -14.18427 -10.11356 -10.10034 -10.08730
 Alpha  occ. eigenvalues --  -10.06958 -10.06158 -10.05930 -10.05834 -10.05783
 Alpha  occ. eigenvalues --  -10.05206  -0.92290  -0.80482  -0.71805  -0.67503
 Alpha  occ. eigenvalues --   -0.62864  -0.60080  -0.57930  -0.52230  -0.48108
 Alpha  occ. eigenvalues --   -0.47100  -0.44798  -0.41145  -0.38345  -0.37139
 Alpha  occ. eigenvalues --   -0.36041  -0.34780  -0.32692  -0.31765  -0.30583
 Alpha  occ. eigenvalues --   -0.29794  -0.28373  -0.26976  -0.26132  -0.25395
 Alpha  occ. eigenvalues --   -0.23844  -0.23703  -0.23462  -0.22566  -0.21424
 Alpha  occ. eigenvalues --   -0.17427  -0.15893  -0.11396   0.04703
 Alpha virt. eigenvalues --    0.06838   0.07255   0.08425   0.08749   0.09336
 Alpha virt. eigenvalues --    0.09814   0.09926   0.10775   0.11141   0.12040
 Alpha virt. eigenvalues --    0.12368   0.12844   0.13007   0.13022   0.15190

  Beta  occ. eigenvalues --  -19.02047 -14.18423 -10.11350 -10.10024 -10.08718
  Beta  occ. eigenvalues --  -10.06940 -10.06137 -10.05904 -10.05802 -10.05763
  Beta  occ. eigenvalues --  -10.05179  -0.92223  -0.80464  -0.71765  -0.67464
  Beta  occ. eigenvalues --   -0.62827  -0.60025  -0.57876  -0.52176  -0.48048
  Beta  occ. eigenvalues --   -0.47021  -0.44744  -0.41087  -0.38301  -0.37104
  Beta  occ. eigenvalues --   -0.35992  -0.34725  -0.32652  -0.31725  -0.30548
  Beta  occ. eigenvalues --   -0.29747  -0.28334  -0.26941  -0.26092  -0.25356
  Beta  occ. eigenvalues --   -0.23808  -0.23666  -0.23407  -0.22524  -0.21379
  Beta  occ. eigenvalues --   -0.17395  -0.15836  -0.11381
  Beta virt. eigenvalues --    0.07055   0.07764   0.08099   0.08923   0.09166
  Beta virt. eigenvalues --    0.09925   0.10078   0.10361   0.11216   0.11529
  Beta virt. eigenvalues --    0.12450   0.12808   0.13144   0.13234   0.13430

 Mulliken charges and spin densities:
               1          2
     1  C    0.475927  -1.014762
     2  C    0.864485  -1.079829
     3  C   -1.733354   2.068964
     4  C    1.544180  -2.185138
     5  N    0.170597  -0.023449
     6  C   -2.068895   1.648315
     7  C    0.137834  -0.160296
     8  C    1.705954  -2.312534
     9  C   -0.337142  -0.124046
    10  C    0.762494  -0.936168
    11  O   -0.200747  -0.022408
    12  H    0.056013   0.065819
    13  H    0.014263   0.140022
    14  H   -0.255534   0.397023
    15  H   -0.055976   0.202979
    16  H   -0.753051   0.950470
    17  H   -0.215348   0.347907
    18  H    0.021554   0.095243
    19  H    0.140133   0.085295
    20  H   -0.321671   0.512503
    21  H   -0.036215   0.165292
    22  H   -0.229888   0.406433
    23  H   -0.395782   0.553250
    24  H   -0.215998   0.372315
    25  H   -0.098721   0.267078
    26  H   -0.154900   0.288006
    27  H    0.099830   0.128139
    28  H    0.079957   0.163579
 Sum of Mulliken charges =  -1.00000   1.00000

 Dipole moment (field-independent basis, Debye):
    X=             -0.0046    Y=             -2.9031    Z=              1.9626  Tot=              3.5042
 Quadrupole moment (field-independent basis, Debye-Ang):
   XX=           -131.0323   YY=           -109.8237   ZZ=           -107.4630
   XY=              0.8951   XZ=             -2.4706   YZ=              0.7025

 Summary of Natural Population Analysis:

                                       Natural Population
                Natural  -----------------------------------------------
    Atom  No    Charge         Core      Valence    Rydberg      Total
 -----------------------------------------------------------------------
      C    1   -0.27814      0.99964     2.27196    0.00654     3.27814
      C    2   -0.03012      0.99959     2.01711    0.01342     3.03012
      C    3   -0.08517      0.99955     2.07417    0.01146     3.08517
      C    4   -0.19912      0.99955     2.19134    0.00824     3.19912
      N    5   -0.34669      0.99971     2.83460    0.01238     3.84669
      C    6   -0.01600      0.99955     2.00275    0.01370     3.01600
      C    7   -0.20443      0.99962     2.19449    0.01032     3.20443
      C    8   -0.19419      0.99964     2.18655    0.00800     3.19419
      C    9   -0.20635      0.99963     2.19845    0.00827     3.20635
      C   10    0.06489      0.99953     1.92096    0.01462     2.93511
      O   11   -0.37714      0.99990     3.37053    0.00671     4.37714
      H   12    0.09592      0.00000     0.40313    0.00095     0.40408
      H   13    0.10165      0.00000     0.39722    0.00113     0.39835
      H   14    0.09680      0.00000     0.40224    0.00096     0.40320
      H   15    0.09809      0.00000     0.39966    0.00225     0.40191
      H   16    0.09492      0.00000     0.40365    0.00143     0.40508
      H   17    0.09568      0.00000     0.40328    0.00104     0.40432
      H   18    0.08940      0.00000     0.40878    0.00181     0.41060
      H   19    0.18174      0.00000     0.31478    0.00347     0.31826
      H   20    0.09243      0.00000     0.40573    0.00184     0.40757
      H   21    0.09533      0.00000     0.40248    0.00219     0.40467
      H   22    0.10615      0.00000     0.39216    0.00169     0.39385
      H   23    0.10130      0.00000     0.39715    0.00155     0.39870
      H   24    0.09802      0.00000     0.40020    0.00178     0.40198
      H   25    0.10230      0.00000     0.39656    0.00114     0.39770
      H   26    0.10330      0.00000     0.39552    0.00118     0.39670
      H   27    0.09079      0.00000     0.40809    0.00112     0.40921
      H   28    0.22867      0.00000     0.26762    0.00371     0.27133
 =======================================================================
   * Total *   -0.00000     10.99591    31.86117    0.14292    43.00000

 Normal termination of Gaussian 16 at Tue Dec  8 19:42:29 2020.
