 Gaussian 16, Revision A.03,

 -----------------------------------------------------------
 # opt freq B3LYP/6-31G(d) empiricaldispersion=gd3bj scf=xqc
 -----------------------------------------------------------

 ------------------------------
 CID_12363967_JID_2504_neutraal
 ------------------------------
 Symbolic Z-matrix:
 Charge =  0 Multiplicity = 1

 SCF Done:  E(RB3LYP) =  -524.922622532     A.U. after   12 cycles
 SCF Done:  E(RB3LYP) =  -524.925739388     A.U. after   11 cycles
 SCF Done:  E(RB3LYP) =  -524.925657255     A.U. after   11 cycles
 SCF Done:  E(RB3LYP) =  -524.926485855     A.U. after   11 cycles
 SCF Done:  E(RB3LYP) =  -524.926670610     A.U. after   11 cycles
 SCF Done:  E(RB3LYP) =  -524.926873411     A.U. after   10 cycles
 SCF Done:  E(RB3LYP) =  -524.926921389     A.U. after   10 cycles
 SCF Done:  E(RB3LYP) =  -524.926944244     A.U. after    9 cycles
 SCF Done:  E(RB3LYP) =  -524.926945691     A.U. after    7 cycles
 SCF Done:  E(RB3LYP) =  -524.926946024     A.U. after    7 cycles
 SCF Done:  E(RB3LYP) =  -524.926946118     A.U. after    6 cycles
 Optimization completed.
    -- Stationary point found.
 Normal termination of Gaussian 16 at Wed Dec  9 17:37:17 2020.

 --------------------------------------------------------------------
 #N Geom=AllCheck Guess=TCheck SCRF=Check GenChk RB3LYP/6-31G(d) Freq
 --------------------------------------------------------------------

 Structure from the checkpoint file:  "JID_2504.chk"
 ------------------------------
 CID_12363967_JID_2504_neutraal
 ------------------------------
 Charge =  0 Multiplicity = 1

 SCF Done:  E(RB3LYP) =  -524.926946118     A.U. after    1 cycles

  Exact polarizability: 132.032   2.211 114.756   0.104  -3.216 103.787
 Approx polarizability: 160.597   3.849 156.848   0.042  -4.644 156.283

                      1                      2                      3
                      A                      A                      A
 Frequencies --     41.6230                60.1022                62.2517
 Red. masses --      4.0246                 3.0007                 3.3447
 Frc consts  --      0.0041                 0.0064                 0.0076
 IR Inten    --      0.3453                 0.7547                 0.1257

                      4                      5                      6
                      A                      A                      A
 Frequencies --    102.1166               111.5937               117.3202
 Red. masses --      3.0682                 3.2443                 1.9671
 Frc consts  --      0.0189                 0.0238                 0.0160
 IR Inten    --      0.3906                 0.6426                 0.3513

                      7                      8                      9
                      A                      A                      A
 Frequencies --    146.3075               175.8626               215.3256
 Red. masses --      2.0732                 2.4475                 1.7338
 Frc consts  --      0.0261                 0.0446                 0.0474
 IR Inten    --      0.7771                 3.8331                 1.1618

                     10                     11                     12
                      A                      A                      A
 Frequencies --    225.7467               258.2888               273.6432
 Red. masses --      1.1760                 1.4180                 1.4076
 Frc consts  --      0.0353                 0.0557                 0.0621
 IR Inten    --      0.0913                 0.9741                 3.7407

                     13                     14                     15
                      A                      A                      A
 Frequencies --    284.4860               305.1133               323.2661
 Red. masses --      1.7363                 1.1703                 2.0142
 Frc consts  --      0.0828                 0.0642                 0.1240
 IR Inten    --      4.7906                82.2255                 2.5729

                     16                     17                     18
                      A                      A                      A
 Frequencies --    357.0223               385.1018               412.0278
 Red. masses --      2.4356                 2.4301                 2.7125
 Frc consts  --      0.1829                 0.2123                 0.2713
 IR Inten    --      5.7442                 9.0447                22.5820

                     19                     20                     21
                      A                      A                      A
 Frequencies --    423.2346               459.2316               478.0133
 Red. masses --      1.8891                 2.0935                 2.0879
 Frc consts  --      0.1994                 0.2601                 0.2811
 IR Inten    --      1.8789                 4.9819                 2.4574

                     22                     23                     24
                      A                      A                      A
 Frequencies --    523.9268               571.6094               705.1499
 Red. masses --      2.4727                 2.9391                 1.7534
 Frc consts  --      0.3999                 0.5658                 0.5137
 IR Inten    --      3.2786                 9.4616                 4.7083

                     25                     26                     27
                      A                      A                      A
 Frequencies --    759.5779               793.4490               812.2347
 Red. masses --      2.0049                 1.2200                 2.2438
 Frc consts  --      0.6815                 0.4525                 0.8722
 IR Inten    --      6.6485                 3.5355                 3.6348

                     28                     29                     30
                      A                      A                      A
 Frequencies --    813.4293               841.1147               907.9250
 Red. masses --      1.1567                 2.0333                 1.5664
 Frc consts  --      0.4509                 0.8475                 0.7608
 IR Inten    --      4.0075                10.9942                 1.5498

                     31                     32                     33
                      A                      A                      A
 Frequencies --    916.4692               938.4007               967.3261
 Red. masses --      2.1200                 1.8681                 1.7457
 Frc consts  --      1.0491                 0.9693                 0.9624
 IR Inten    --      1.2979                 2.9219                 1.2834

                     34                     35                     36
                      A                      A                      A
 Frequencies --    988.8082              1018.4745              1032.1362
 Red. masses --      2.0466                 2.1271                 1.6197
 Frc consts  --      1.1790                 1.3000                 1.0166
 IR Inten    --     14.6198                 1.9935                 6.9165

                     37                     38                     39
                      A                      A                      A
 Frequencies --   1082.6842              1093.4890              1099.7482
 Red. masses --      2.2526                 1.9084                 1.8970
 Frc consts  --      1.5558                 1.3444                 1.3518
 IR Inten    --     48.5265                55.3397                21.2199

                     40                     41                     42
                      A                      A                      A
 Frequencies --   1117.0107              1122.6112              1136.8928
 Red. masses --      2.4725                 1.7236                 1.7907
 Frc consts  --      1.8176                 1.2798                 1.3637
 IR Inten    --     17.1260                 5.6014                22.1390

                     43                     44                     45
                      A                      A                      A
 Frequencies --   1141.2135              1157.1656              1195.4313
 Red. masses --      2.0122                 1.7255                 1.5182
 Frc consts  --      1.5440                 1.3613                 1.2783
 IR Inten    --     12.2304                23.7273                22.6831

                     46                     47                     48
                      A                      A                      A
 Frequencies --   1229.7283              1246.4218              1268.8316
 Red. masses --      1.3670                 1.5998                 1.9608
 Frc consts  --      1.2180                 1.4643                 1.8600
 IR Inten    --      8.9587                20.3572                27.6814

                     49                     50                     51
                      A                      A                      A
 Frequencies --   1306.8900              1325.1522              1345.9115
 Red. masses --      1.3769                 1.1807                 1.1820
 Frc consts  --      1.3856                 1.2216                 1.2616
 IR Inten    --      0.1823                 9.2773                 5.5171

                     52                     53                     54
                      A                      A                      A
 Frequencies --   1367.3877              1375.9699              1389.1960
 Red. masses --      1.3768                 1.2883                 1.4081
 Frc consts  --      1.5167                 1.4371                 1.6011
 IR Inten    --      9.2804                21.0562                 6.9295

                     55                     56                     57
                      A                      A                      A
 Frequencies --   1402.7775              1407.6368              1415.7055
 Red. masses --      1.2928                 1.4383                 1.3775
 Frc consts  --      1.4988                 1.6791                 1.6266
 IR Inten    --      9.2316                17.6643                 8.0865

                     58                     59                     60
                      A                      A                      A
 Frequencies --   1421.1379              1427.4001              1431.1944
 Red. masses --      1.3243                 1.3370                 1.2546
 Frc consts  --      1.5758                 1.6050                 1.5141
 IR Inten    --      5.9284                 5.0422                20.1629

                     61                     62                     63
                      A                      A                      A
 Frequencies --   1436.5253              1437.3244              1447.9622
 Red. masses --      1.3086                 1.2565                 1.2465
 Frc consts  --      1.5910                 1.5294                 1.5398
 IR Inten    --     15.7678                12.1096                41.9462

                     64                     65                     66
                      A                      A                      A
 Frequencies --   1449.1564              1503.4757              1504.8764
 Red. masses --      1.3961                 1.0746                 1.0766
 Frc consts  --      1.7274                 1.4311                 1.4365
 IR Inten    --     17.7995                 1.5678                 1.8598

                     67                     68                     69
                      A                      A                      A
 Frequencies --   1512.7474              1516.7477              1519.9608
 Red. masses --      1.0633                 1.0661                 1.0629
 Frc consts  --      1.4336                 1.4451                 1.4468
 IR Inten    --      2.7314                 3.0382                 4.3610

                     70                     71                     72
                      A                      A                      A
 Frequencies --   1523.9749              1529.5835              1531.7272
 Red. masses --      1.0565                 1.0647                 1.0537
 Frc consts  --      1.4457                 1.4676                 1.4565
 IR Inten    --      1.9814                 7.3601                 1.5019

                     73                     74                     75
                      A                      A                      A
 Frequencies --   1534.9944              1536.7037              1536.9026
 Red. masses --      1.0548                 1.0854                 1.0659
 Frc consts  --      1.4644                 1.5101                 1.4834
 IR Inten    --      7.7285                 4.3095                 4.2693

                     76                     77                     78
                      A                      A                      A
 Frequencies --   1550.9677              2960.4475              3006.8596
 Red. masses --      1.0905                 1.0724                 1.0671
 Frc consts  --      1.5456                 5.5377                 5.6841
 IR Inten    --      4.4619                77.9552                46.9764

                     79                     80                     81
                      A                      A                      A
 Frequencies --   3010.3933              3012.2007              3030.6998
 Red. masses --      1.0720                 1.0715                 1.0687
 Frc consts  --      5.7241                 5.7283                 5.7835
 IR Inten    --     31.2417                39.8925                51.6158

                     82                     83                     84
                      A                      A                      A
 Frequencies --   3037.3603              3045.3242              3050.5350
 Red. masses --      1.0442                 1.0657                 1.0386
 Frc consts  --      5.6759                 5.8231                 5.6945
 IR Inten    --      6.3998                39.3723                20.4305

                     85                     86                     87
                      A                      A                      A
 Frequencies --   3053.5865              3055.6520              3064.8834
 Red. masses --      1.0414                 1.0822                 1.0958
 Frc consts  --      5.7211                 5.9535                 6.0649
 IR Inten    --     22.7275                24.1528                26.8967

                     88                     89                     90
                      A                      A                      A
 Frequencies --   3067.5747              3072.7007              3084.7354
 Red. masses --      1.0904                 1.0839                 1.0952
 Frc consts  --      6.0453                 6.0292                 6.1404
 IR Inten    --     27.8422                20.4770                38.2875

                     91                     92                     93
                      A                      A                      A
 Frequencies --   3098.6136              3106.5165              3109.8830
 Red. masses --      1.0925                 1.0918                 1.0953
 Frc consts  --      6.1802                 6.2077                 6.2412
 IR Inten    --     63.5515                58.8409                45.5616

                     94                     95                     96
                      A                      A                      A
 Frequencies --   3111.4206              3119.7628              3130.8534
 Red. masses --      1.1004                 1.0997                 1.1031
 Frc consts  --      6.2766                 6.3063                 6.3706
 IR Inten    --     46.6644                39.3924                36.7786

                     97                     98                     99
                      A                      A                      A
 Frequencies --   3134.3504              3138.4299              3719.0138
 Red. masses --      1.1023                 1.1004                 1.0657
 Frc consts  --      6.3805                 6.3862                 8.6846
 IR Inten    --     27.2670                38.6720                 6.0809

 - Thermochemistry -
 -------------------
 Temperature   298.150 Kelvin.  Pressure   1.00000 Atm.
 Atom     1 has atomic number  6 and mass  12.00000

 Molecular mass:   173.17796 amu.
 Principal axes and moments of inertia in atomic units:
                           1         2         3
     Eigenvalues --  1327.607873801.473024496.38107
           X            0.99994  -0.01081   0.00287
           Y            0.01082   0.99993  -0.00448
           Z           -0.00283   0.00451   0.99999
 This molecule is an asymmetric top.
 Rotational symmetry number  1.
 Warning -- assumption of classical behavior for rotation
           may cause significant error
 Rotational temperatures (Kelvin)      0.06524     0.02278     0.01926
 Rotational constants (GHZ):           1.35939     0.47475     0.40138
 Zero-point vibrational energy     858982.9 (Joules/Mol)
                                  205.30184 (Kcal/Mol)
 Warning -- explicit consideration of  23 degrees of freedom as
           vibrations may cause significant error
 Vibrational temperatures:     59.89    86.47    89.57   146.92   160.56
          (Kelvin)            168.80   210.50   253.03   309.81   324.80
                              371.62   393.71   409.31   438.99   465.11
                              513.68   554.08   592.82   608.94   660.73
                              687.75   753.81   822.42  1014.55  1092.86
                             1141.60  1168.62  1170.34  1210.18  1306.30
                             1318.59  1350.15  1391.77  1422.67  1465.36
                             1485.01  1557.74  1573.29  1582.29  1607.13
                             1615.19  1635.74  1641.95  1664.90  1719.96
                             1769.30  1793.32  1825.57  1880.32  1906.60
                             1936.47  1967.37  1979.71  1998.74  2018.28
                             2025.28  2036.88  2044.70  2053.71  2059.17
                             2066.84  2067.99  2083.29  2085.01  2163.17
                             2165.18  2176.51  2182.26  2186.88  2192.66
                             2200.73  2203.81  2208.51  2210.97  2211.26
                             2231.50  4259.42  4326.20  4331.28  4333.89
                             4360.50  4370.08  4381.54  4389.04  4393.43
                             4396.40  4409.68  4413.56  4420.93  4438.25
                             4458.21  4469.58  4474.43  4476.64  4488.64
                             4504.60  4509.63  4515.50  5350.83

 Zero-point correction=                           0.327169 (Hartree/Particle)
 Thermal correction to Energy=                    0.342463
 Thermal correction to Enthalpy=                  0.343407
 Thermal correction to Gibbs Free Energy=         0.285081
 Sum of electronic and zero-point Energies=           -524.599777
 Sum of electronic and thermal Energies=              -524.584483
 Sum of electronic and thermal Enthalpies=            -524.583539
 Sum of electronic and thermal Free Energies=         -524.641866

                     E (Thermal)             CV                S
                      KCal/Mol        Cal/Mol-Kelvin    Cal/Mol-Kelvin
 Total                  214.899             56.792            122.759
 Electronic               0.000              0.000              0.000
 Translational            0.889              2.981             41.355
 Rotational               0.889              2.981             31.496
 Vibrational            213.122             50.831             49.909
 Vibration     1          0.594              1.981              5.180
 Vibration     2          0.597              1.973              4.454
 Vibration     3          0.597              1.972              4.385
 Vibration     4          0.604              1.947              3.414
 Vibration     5          0.607              1.940              3.241
 Vibration     6          0.608              1.935              3.144
 Vibration     7          0.617              1.907              2.720
 Vibration     8          0.628              1.872              2.372
 Vibration     9          0.645              1.818              1.998
 Vibration    10          0.650              1.802              1.913
 Vibration    11          0.667              1.749              1.673
 Vibration    12          0.676              1.722              1.573
 Vibration    13          0.683              1.702              1.507
 Vibration    14          0.696              1.664              1.389
 Vibration    15          0.708              1.629              1.294
 Vibration    16          0.732              1.561              1.135
 Vibration    17          0.754              1.502              1.019
 Vibration    18          0.776              1.444              0.919
 Vibration    19          0.785              1.420              0.881
 Vibration    20          0.817              1.340              0.768
 Vibration    21          0.835              1.299              0.715
 Vibration    22          0.879              1.197              0.601
 Vibration    23          0.928              1.093              0.501

 Optimization completed.
    -- Stationary point found.
 Normal termination of Gaussian 16 at Wed Dec  9 17:48:23 2020.

 ----------------------------------------------------------------------
 # B3LYP/6-311++G(d,p) empiricaldispersion=gd3bj scf=xqc pop=npa geom=c
 heck
 ----------------------------------------------------------------------

 --------------------------------------
 CID_12363967_JID_2504_Energie_neutraal
 --------------------------------------
 Structure from the checkpoint file:  "JID_2504.chk"
 Charge =  0 Multiplicity = 1

 SCF Done:  E(RB3LYP) =  -525.087609822     A.U. after   13 cycles
 Normal termination of Gaussian 16 at Wed Dec  9 17:53:12 2020.

 ----------------------------------------------------------------------
 # B3LYP/6-311++G(d,p) empiricaldispersion=gd3bj scf=xqc pop=npa geom=c
 heck
 ----------------------------------------------------------------------

 ------------------------------------
 CID_12363967_JID_2504_Energie_kation
 ------------------------------------
 Structure from the checkpoint file:  "JID_2504.chk"
 Charge =  1 Multiplicity = 2

 SCF Done:  E(UB3LYP) =  -524.815915484     A.U. after   18 cycles
 Normal termination of Gaussian 16 at Wed Dec  9 18:03:01 2020.
 Gaussian 16:  ES64L-G16RevA.03 25-Dec-2016

 ----------------------------------------------------------------------
 # B3LYP/6-311++G(d,p) empiricaldispersion=gd3bj scf=xqc pop=npa geom=c
 heck
 ----------------------------------------------------------------------

 -----------------------------------
 CID_12363967_JID_2504_Energie_anion
 -----------------------------------
 Structure from the checkpoint file:  "JID_2504.chk"
 Charge = -1 Multiplicity = 2

                         Standard orientation:
 ---------------------------------------------------------------------
 Center     Atomic      Atomic             Coordinates (Angstroms)
 Number     Number       Type             X           Y           Z
 ---------------------------------------------------------------------
      1          6           0       -1.274924    2.671645   -0.034337
      2          6           0       -1.843887    1.335975   -0.519304
      3          7           0       -2.007860    0.359074    0.547516
      4          6           0       -3.108402   -0.576118    0.380622
      5          6           0       -3.092687   -1.478247   -0.866865
      6          6           0       -0.834192   -0.117692    1.262449
      7          6           0       -0.040923   -1.317199    0.698058
      8          6           0        0.594112   -1.133220   -0.688272
      9          6           0        1.562605    0.052917   -0.813633
     10          6           0        2.718306    0.082611    0.193958
     11          6           0        3.630496   -1.140427    0.106562
     12          8           0        3.469095    1.292084    0.047067
     13          1           0       -1.272686    3.399470   -0.853787
     14          1           0       -0.243388    2.581987    0.321867
     15          1           0       -1.882784    3.066410    0.786197
     16          1           0       -2.845785    1.521021   -0.926908
     17          1           0       -1.239045    0.969697   -1.367936
     18          1           0       -3.148908   -1.201224    1.281774
     19          1           0       -4.043634    0.003754    0.365425
     20          1           0       -2.240179   -2.163070   -0.871531
     21          1           0       -4.009426   -2.078983   -0.909216
     22          1           0       -3.047488   -0.879932   -1.783795
     23          1           0       -0.156036    0.731580    1.393941
     24          1           0       -1.157617   -0.397958    2.275789
     25          1           0        0.742208   -1.557176    1.431654
     26          1           0       -0.693942   -2.198102    0.672160
     27          1           0        1.119601   -2.059710   -0.954404
     28          1           0       -0.197115   -1.014908   -1.437345
     29          1           0        1.993237    0.048105   -1.827262
     30          1           0        1.021215    0.999745   -0.717671
     31          1           0        2.312128    0.150086    1.209360
     32          1           0        4.034700   -1.248852   -0.909349
     33          1           0        4.469971   -1.032405    0.799915
     34          1           0        3.094882   -2.064116    0.351298
     35          1           0        3.829323    1.292929   -0.854756
 ---------------------------------------------------------------------

 SCF Done:  E(UB3LYP) =  -525.072688329     A.U. after   25 cycles

 The electronic state is 2-A.
 Alpha  occ. eigenvalues --  -19.01867 -14.19688 -10.11922 -10.09377 -10.09340
 Alpha  occ. eigenvalues --  -10.09232 -10.06426 -10.06353 -10.06251 -10.06150
 Alpha  occ. eigenvalues --  -10.05919 -10.05656  -0.92059  -0.82014  -0.70374
 Alpha  occ. eigenvalues --   -0.66427  -0.65849  -0.63010  -0.59869  -0.55955
 Alpha  occ. eigenvalues --   -0.53038  -0.51661  -0.47896  -0.44469  -0.40030
 Alpha  occ. eigenvalues --   -0.39054  -0.37793  -0.37082  -0.35603  -0.33818
 Alpha  occ. eigenvalues --   -0.32906  -0.32223  -0.32058  -0.31200  -0.29492
 Alpha  occ. eigenvalues --   -0.28989  -0.28176  -0.27481  -0.26762  -0.26630
 Alpha  occ. eigenvalues --   -0.26047  -0.25413  -0.24043  -0.23405  -0.23091
 Alpha  occ. eigenvalues --   -0.22082  -0.21244  -0.17378  -0.10159   0.04461
 Alpha virt. eigenvalues --    0.06307   0.07056   0.07408   0.08466   0.08746
 Alpha virt. eigenvalues --    0.09297   0.09827   0.10052   0.10734   0.11355
 Alpha virt. eigenvalues --    0.11634   0.12235   0.12461   0.13195   0.13693

  Beta  occ. eigenvalues --  -19.01839 -14.19689 -10.11917 -10.09358 -10.09321
  Beta  occ. eigenvalues --  -10.09225 -10.06411 -10.06339 -10.06237 -10.06127
  Beta  occ. eigenvalues --  -10.05881 -10.05627  -0.92002  -0.82004  -0.70338
  Beta  occ. eigenvalues --   -0.66399  -0.65813  -0.62969  -0.59824  -0.55906
  Beta  occ. eigenvalues --   -0.52978  -0.51600  -0.47836  -0.44421  -0.40001
  Beta  occ. eigenvalues --   -0.39014  -0.37755  -0.37044  -0.35567  -0.33791
  Beta  occ. eigenvalues --   -0.32860  -0.32192  -0.32026  -0.31171  -0.29453
  Beta  occ. eigenvalues --   -0.28958  -0.28137  -0.27442  -0.26723  -0.26606
  Beta  occ. eigenvalues --   -0.26005  -0.25370  -0.24020  -0.23378  -0.23065
  Beta  occ. eigenvalues --   -0.22050  -0.21198  -0.17347  -0.10145
  Beta virt. eigenvalues --    0.06581   0.07351   0.07678   0.07768   0.09082
  Beta virt. eigenvalues --    0.09232   0.09692   0.10088   0.10345   0.11131
  Beta virt. eigenvalues --    0.11725   0.12030   0.12662   0.12733   0.13378

 Mulliken charges and spin densities:
               1          2
     1  C    0.149021  -0.641154
     2  C   -0.026501  -0.247027
     3  N    0.027093   0.174842
     4  C   -0.196910  -0.027114
     5  C    0.540732  -0.984185
     6  C   -0.018864  -0.586135
     7  C   -0.053481  -0.194814
     8  C   -0.146033  -0.134424
     9  C    0.661289  -0.785193
    10  C   -1.033095   0.761531
    11  C    1.255789  -1.820267
    12  O   -0.216258   0.008401
    13  H   -0.098233   0.232951
    14  H    0.015462   0.110401
    15  H    0.086621   0.059108
    16  H   -0.145290   0.289117
    17  H    0.057849   0.060253
    18  H   -0.123160   0.241408
    19  H   -0.073245   0.231225
    20  H   -0.157979   0.291446
    21  H   -0.502209   0.643092
    22  H   -0.125746   0.266980
    23  H    0.221501  -0.106747
    24  H   -0.022004   0.196288
    25  H    0.060213   0.082719
    26  H    0.044208   0.107797
    27  H   -0.200261   0.379146
    28  H    0.125075   0.041705
    29  H   -0.549540   0.700316
    30  H   -0.033843   0.240119
    31  H    0.056312   0.134208
    32  H   -0.409406   0.572202
    33  H   -0.071760   0.213866
    34  H   -0.149339   0.290890
    35  H    0.051990   0.197048
 Sum of Mulliken charges =  -1.00000   1.00000

 Dipole moment (field-independent basis, Debye):
    X=             -1.1022    Y=              1.6134    Z=              3.0132  Tot=              3.5913
 Quadrupole moment (field-independent basis, Debye-Ang):
   XX=           -162.5528   YY=           -123.6024   ZZ=           -114.9923
   XY=             -4.4342   XZ=              2.8755   YZ=             -1.2072

 Summary of Natural Population Analysis:

                                       Natural Population
                Natural  -----------------------------------------------
    Atom  No    Charge         Core      Valence    Rydberg      Total
 -----------------------------------------------------------------------
      C    1   -0.28841      0.99966     2.28437    0.00438     3.28841
      C    2   -0.08286      0.99961     2.07231    0.01094     3.08286
      N    3   -0.28843      0.99971     2.77447    0.01425     3.78843
      C    4   -0.07953      0.99962     2.06821    0.01170     3.07953
      C    5   -0.29629      0.99966     2.29167    0.00496     3.29629
      C    6   -0.08145      0.99960     2.07020    0.01166     3.08145
      C    7   -0.20047      0.99962     2.19240    0.00845     3.20047
      C    8   -0.19421      0.99962     2.18569    0.00891     3.19421
      C    9   -0.20426      0.99960     2.19380    0.01086     3.20426
      C   10    0.06166      0.99957     1.92649    0.01228     2.93834
      C   11   -0.29895      0.99964     2.29351    0.00580     3.29895
      O   12   -0.37250      0.99990     3.36613    0.00647     4.37250
      H   13    0.09855      0.00000     0.40057    0.00087     0.40145
      H   14    0.09691      0.00000     0.40190    0.00119     0.40309
      H   15    0.09736      0.00000     0.40139    0.00125     0.40264
      H   16    0.09383      0.00000     0.40479    0.00139     0.40617
      H   17    0.08121      0.00000     0.41642    0.00237     0.41879
      H   18    0.09218      0.00000     0.40673    0.00109     0.40782
      H   19    0.08890      0.00000     0.40987    0.00123     0.41110
      H   20    0.09684      0.00000     0.40172    0.00144     0.40316
      H   21    0.09828      0.00000     0.40017    0.00155     0.40172
      H   22    0.09698      0.00000     0.40172    0.00130     0.40302
      H   23    0.09390      0.00000     0.40467    0.00143     0.40610
      H   24    0.09145      0.00000     0.40753    0.00102     0.40855
      H   25    0.09428      0.00000     0.40443    0.00130     0.40572
      H   26    0.09767      0.00000     0.40104    0.00129     0.40233
      H   27    0.09885      0.00000     0.39978    0.00136     0.40115
      H   28    0.09941      0.00000     0.39887    0.00172     0.40059
      H   29    0.09826      0.00000     0.39973    0.00201     0.40174
      H   30    0.10041      0.00000     0.39767    0.00192     0.39959
      H   31    0.08172      0.00000     0.41604    0.00224     0.41828
      H   32    0.09895      0.00000     0.39922    0.00183     0.40105
      H   33    0.10160      0.00000     0.39745    0.00094     0.39840
      H   34    0.10177      0.00000     0.39715    0.00107     0.39823
      H   35    0.22637      0.00000     0.27018    0.00345     0.27363
 =======================================================================
   * Total *    0.00000     11.99582    36.85827    0.14591    49.00000

 Normal termination of Gaussian 16 at Wed Dec  9 18:16:13 2020.
