 Gaussian 16, Revision A.03,

 -----------------------------------------------------------
 # opt freq B3LYP/6-31G(d) empiricaldispersion=gd3bj scf=xqc
 -----------------------------------------------------------

 -------------------------------
 CID_117312128_JID_6504_neutraal
 -------------------------------
 Symbolic Z-matrix:
 Charge =  0 Multiplicity = 1

 SCF Done:  E(RB3LYP) =  -741.693629809     A.U. after   15 cycles
 SCF Done:  E(RB3LYP) =  -741.700223948     A.U. after   13 cycles
 SCF Done:  E(RB3LYP) =  -741.701602987     A.U. after   13 cycles
 SCF Done:  E(RB3LYP) =  -741.703943718     A.U. after   12 cycles
 SCF Done:  E(RB3LYP) =  -741.702915857     A.U. after   13 cycles
 SCF Done:  E(RB3LYP) =  -741.702260278     A.U. after   13 cycles
 SCF Done:  E(RB3LYP) =  -741.702233390     A.U. after   12 cycles
 SCF Done:  E(RB3LYP) =  -741.704458679     A.U. after   10 cycles
 SCF Done:  E(RB3LYP) =  -741.705325646     A.U. after   12 cycles
 SCF Done:  E(RB3LYP) =  -741.705582226     A.U. after   13 cycles
 SCF Done:  E(RB3LYP) =  -741.706501486     A.U. after    8 cycles
 SCF Done:  E(RB3LYP) =  -741.706503140     A.U. after    8 cycles
 SCF Done:  E(RB3LYP) =  -741.706503593     A.U. after    8 cycles
 SCF Done:  E(RB3LYP) =  -741.706503722     A.U. after    7 cycles
 SCF Done:  E(RB3LYP) =  -741.706503757     A.U. after    7 cycles
 Optimization completed.
    -- Stationary point found.
 Normal termination of Gaussian 16 at Thu Dec 10 23:27:23 2020.

 --------------------------------------------------------------------
 #N Geom=AllCheck Guess=TCheck SCRF=Check GenChk RB3LYP/6-31G(d) Freq
 --------------------------------------------------------------------

 Structure from the checkpoint file:  "JID_6504.chk"
 -------------------------------
 CID_117312128_JID_6504_neutraal
 -------------------------------
 Charge =  0 Multiplicity = 1

 SCF Done:  E(RB3LYP) =  -741.706503757     A.U. after    1 cycles

  Exact polarizability: 168.327   6.847 116.264  -0.602   6.157 113.597
 Approx polarizability: 253.518   6.293 177.803  -4.828  17.261 186.000

                      1                      2                      3
                      A                      A                      A
 Frequencies --     45.4793                62.3505                71.7463
 Red. masses --      5.2970                 4.2129                 3.5122
 Frc consts  --      0.0065                 0.0096                 0.0107
 IR Inten    --      5.0390                 2.8653                 0.9202

                      4                      5                      6
                      A                      A                      A
 Frequencies --     79.2761               133.1895               142.6684
 Red. masses --      4.5464                 4.6181                 4.3276
 Frc consts  --      0.0168                 0.0483                 0.0519
 IR Inten    --      1.1970                 2.7970                 2.4869

                      7                      8                      9
                      A                      A                      A
 Frequencies --    163.8287               179.5778               225.5918
 Red. masses --      1.5479                 2.3227                 6.0493
 Frc consts  --      0.0245                 0.0441                 0.1814
 IR Inten    --      0.3008                 1.1138                 3.4564

                     10                     11                     12
                      A                      A                      A
 Frequencies --    242.8493               272.2325               298.5917
 Red. masses --      3.7200                 3.4356                 3.9708
 Frc consts  --      0.1293                 0.1500                 0.2086
 IR Inten    --      0.4485                 6.2852                 1.2561

                     13                     14                     15
                      A                      A                      A
 Frequencies --    329.2911               342.7429               392.1398
 Red. masses --      1.1662                 3.8818                 4.4551
 Frc consts  --      0.0745                 0.2687                 0.4036
 IR Inten    --    101.5194                15.3263                 4.4883

                     16                     17                     18
                      A                      A                      A
 Frequencies --    427.7222               457.3485               476.9255
 Red. masses --      1.8610                 2.2249                 2.1898
 Frc consts  --      0.2006                 0.2742                 0.2935
 IR Inten    --     73.4602                20.0054                10.5119

                     19                     20                     21
                      A                      A                      A
 Frequencies --    504.9016               539.3608               591.4892
 Red. masses --      4.0861                 4.0435                 3.6105
 Frc consts  --      0.6137                 0.6931                 0.7442
 IR Inten    --      4.1771                 3.8381                 6.1013

                     22                     23                     24
                      A                      A                      A
 Frequencies --    602.0027               619.0465               632.2071
 Red. masses --      3.3660                 4.4753                 5.6601
 Frc consts  --      0.7187                 1.0105                 1.3329
 IR Inten    --      4.3612                 9.3585                12.0947

                     25                     26                     27
                      A                      A                      A
 Frequencies --    692.1687               708.8595               750.6627
 Red. masses --      1.4070                 5.0370                 6.6432
 Frc consts  --      0.3972                 1.4912                 2.2055
 IR Inten    --     42.4689                 0.2036                 5.7631

                     28                     29                     30
                      A                      A                      A
 Frequencies --    770.1068               773.8362               804.7044
 Red. masses --      4.4070                 1.5003                 4.4389
 Frc consts  --      1.5399                 0.5293                 1.6935
 IR Inten    --      4.4878                40.7651                 2.6526

                     31                     32                     33
                      A                      A                      A
 Frequencies --    835.1233               879.9385               894.3529
 Red. masses --      3.8474                 2.8466                 2.0132
 Frc consts  --      1.5809                 1.2986                 0.9488
 IR Inten    --      7.0832                 4.6608                 1.1966

                     34                     35                     36
                      A                      A                      A
 Frequencies --    953.9171               988.9632              1009.6667
 Red. masses --      1.3789                 1.2716                 1.6977
 Frc consts  --      0.7393                 0.7328                 1.0197
 IR Inten    --      0.7894                 0.1339                 1.0241

                     37                     38                     39
                      A                      A                      A
 Frequencies --   1012.0721              1025.7449              1047.5942
 Red. masses --      1.9683                 6.2543                 4.7521
 Frc consts  --      1.1879                 3.8771                 3.0727
 IR Inten    --      2.9232                16.8436                67.1163

                     40                     41                     42
                      A                      A                      A
 Frequencies --   1077.9130              1084.8604              1086.3257
 Red. masses --      2.1680                 1.4921                 2.4186
 Frc consts  --      1.4841                 1.0346                 1.6816
 IR Inten    --      3.0696                 3.2914                 9.8353

                     43                     44                     45
                      A                      A                      A
 Frequencies --   1101.1860              1151.5176              1195.5718
 Red. masses --      1.7024                 1.7609                 1.1032
 Frc consts  --      1.2163                 1.3757                 0.9291
 IR Inten    --     24.5546                 1.1111                 0.0996

                     46                     47                     48
                      A                      A                      A
 Frequencies --   1200.7069              1223.8966              1247.9055
 Red. masses --      2.7820                 2.4823                 1.3357
 Frc consts  --      2.3631                 2.1907                 1.2255
 IR Inten    --     12.4936                12.5691                76.1874

                     49                     50                     51
                      A                      A                      A
 Frequencies --   1282.9373              1318.0992              1327.6571
 Red. masses --      1.3522                 2.6471                 2.1703
 Frc consts  --      1.3113                 2.7097                 2.2539
 IR Inten    --      1.3406                16.1836                12.7944

                     52                     53                     54
                      A                      A                      A
 Frequencies --   1339.5351              1361.9051              1374.5236
 Red. masses --      2.7111                 2.4172                 1.3418
 Frc consts  --      2.8661                 2.6415                 1.4937
 IR Inten    --      3.3693                11.0614                12.7174

                     55                     56                     57
                      A                      A                      A
 Frequencies --   1402.0161              1409.4515              1438.2354
 Red. masses --      1.3185                 1.9917                 3.1953
 Frc consts  --      1.5270                 2.3312                 3.8942
 IR Inten    --     10.3919                18.6730               142.9516

                     58                     59                     60
                      A                      A                      A
 Frequencies --   1454.9474              1500.9100              1503.6251
 Red. masses --      1.3784                 1.3046                 1.4674
 Frc consts  --      1.7192                 1.7316                 1.9547
 IR Inten    --     22.0251                10.6865                19.1477

                     61                     62                     63
                      A                      A                      A
 Frequencies --   1504.1600              1524.7697              1548.3727
 Red. masses --      1.2088                 1.1063                 2.7689
 Frc consts  --      1.6113                 1.5154                 3.9112
 IR Inten    --      6.0397                 6.6224                54.5173

                     64                     65                     66
                      A                      A                      A
 Frequencies --   1641.3707              1664.4132              1701.7773
 Red. masses --      6.3334                 5.9371                 1.0797
 Frc consts  --     10.0532                 9.6906                 1.8422
 IR Inten    --      2.6295                 6.6295                36.9474

                     67                     68                     69
                      A                      A                      A
 Frequencies --   1704.3367              1817.1803              3044.9459
 Red. masses --      5.7774                10.1850                 1.0378
 Frc consts  --      9.8876                19.8157                 5.6694
 IR Inten    --      5.9497               474.7366                28.4987

                     70                     71                     72
                      A                      A                      A
 Frequencies --   3061.6206              3092.8876              3117.3339
 Red. masses --      1.0579                 1.1011                 1.1072
 Frc consts  --      5.8424                 6.2060                 6.3392
 IR Inten    --     39.4512                15.6697                17.4716

                     73                     74                     75
                      A                      A                      A
 Frequencies --   3138.9108              3183.7207              3195.8546
 Red. masses --      1.0997                 1.0866                 1.0893
 Frc consts  --      6.3838                 6.4893                 6.5550
 IR Inten    --     18.5273                 3.3546                 9.6027

                     76                     77                     78
                      A                      A                      A
 Frequencies --   3208.0365              3219.7072              3299.1518
 Red. masses --      1.0935                 1.0965                 1.0987
 Frc consts  --      6.6306                 6.6970                 7.0460
 IR Inten    --     26.8517                11.3548                 1.6187

                     79                     80                     81
                      A                      A                      A
 Frequencies --   3381.8838              3513.1245              3688.3240
 Red. masses --      1.0550                 1.0896                 1.0804
 Frc consts  --      7.1089                 7.9236                 8.6595
 IR Inten    --     12.5678                 1.7954                83.6194

 - Thermochemistry -
 -------------------
 Temperature   298.150 Kelvin.  Pressure   1.00000 Atm.
 Atom     1 has atomic number  6 and mass  12.00000

 Molecular mass:   219.10078 amu.
 Principal axes and moments of inertia in atomic units:
                           1         2         3
     Eigenvalues --  2464.038933714.616744302.80444
           X            0.99988   0.00454   0.01486
           Y           -0.00414   0.99964  -0.02659
           Z           -0.01497   0.02653   0.99954
 This molecule is an asymmetric top.
 Rotational symmetry number  1.
 Warning -- assumption of classical behavior for rotation
           may cause significant error
 Rotational temperatures (Kelvin)      0.03515     0.02332     0.02013
 Rotational constants (GHZ):           0.73243     0.48585     0.41943
 Zero-point vibrational energy     617966.2 (Joules/Mol)
                                  147.69747 (Kcal/Mol)
 Warning -- explicit consideration of  23 degrees of freedom as
           vibrations may cause significant error
 Vibrational temperatures:     65.43    89.71   103.23   114.06   191.63
          (Kelvin)            205.27   235.71   258.37   324.58   349.41
                              391.68   429.61   473.78   493.13   564.20
                              615.40   658.02   686.19   726.44   776.02
                              851.02   866.15   890.67   909.61   995.88
                             1019.89  1080.04  1108.01  1113.38  1157.79
                             1201.56  1266.04  1286.77  1372.47  1422.90
                             1452.69  1456.15  1475.82  1507.25  1550.88
                             1560.87  1562.98  1584.36  1656.78  1720.16
                             1727.55  1760.91  1795.46  1845.86  1896.45
                             1910.20  1927.29  1959.48  1977.63  2017.19
                             2027.89  2069.30  2093.34  2159.47  2163.38
                             2164.15  2193.80  2227.76  2361.57  2394.72
                             2448.48  2452.16  2614.52  4381.00  4404.99
                             4449.98  4485.15  4516.19  4580.66  4598.12
                             4615.65  4632.44  4746.74  4865.78  5054.60
                             5306.68

 Zero-point correction=                           0.235371 (Hartree/Particle)
 Thermal correction to Energy=                    0.250025
 Thermal correction to Enthalpy=                  0.250969
 Thermal correction to Gibbs Free Energy=         0.193587
 Sum of electronic and zero-point Energies=           -741.471133
 Sum of electronic and thermal Energies=              -741.456479
 Sum of electronic and thermal Enthalpies=            -741.455535
 Sum of electronic and thermal Free Energies=         -741.512916

                     E (Thermal)             CV                S
                      KCal/Mol        Cal/Mol-Kelvin    Cal/Mol-Kelvin
 Total                  156.893             55.785            120.769
 Electronic               0.000              0.000              0.000
 Translational            0.889              2.981             42.056
 Rotational               0.889              2.981             32.043
 Vibrational            155.115             49.823             46.670
 Vibration     1          0.595              1.979              5.005
 Vibration     2          0.597              1.972              4.381
 Vibration     3          0.598              1.967              4.105
 Vibration     4          0.600              1.963              3.909
 Vibration     5          0.613              1.920              2.899
 Vibration     6          0.616              1.911              2.768
 Vibration     7          0.623              1.887              2.505
 Vibration     8          0.629              1.867              2.333
 Vibration     9          0.650              1.802              1.914
 Vibration    10          0.659              1.775              1.782
 Vibration    11          0.675              1.724              1.582
 Vibration    12          0.692              1.676              1.425
 Vibration    13          0.712              1.617              1.264
 Vibration    14          0.722              1.590              1.199
 Vibration    15          0.760              1.487              0.992
 Vibration    16          0.789              1.410              0.866
 Vibration    17          0.815              1.345              0.774
 Vibration    18          0.833              1.301              0.718
 Vibration    19          0.860              1.239              0.646
 Vibration    20          0.894              1.163              0.567
 Vibration    21          0.949              1.050              0.465
 Vibration    22          0.960              1.028              0.446
 Vibration    23          0.979              0.992              0.418

                           ! Non-Optimized Parameters !
 Normal termination of Gaussian 16 at Thu Dec 10 23:37:58 2020.

 ----------------------------------------------------------------------
 # B3LYP/6-311++G(d,p) empiricaldispersion=gd3bj scf=xqc pop=npa geom=c
 heck
 ----------------------------------------------------------------------

 ---------------------------------------
 CID_117312128_JID_6504_Energie_neutraal
 ---------------------------------------
 Structure from the checkpoint file:  "JID_6504.chk"
 Charge =  0 Multiplicity = 1

 SCF Done:  E(RB3LYP) =  -741.921491882     A.U. after   15 cycles
 Normal termination of Gaussian 16 at Thu Dec 10 23:41:49 2020.

 ----------------------------------------------------------------------
 # B3LYP/6-311++G(d,p) empiricaldispersion=gd3bj scf=xqc pop=npa geom=c
 heck
 ----------------------------------------------------------------------

 -------------------------------------
 CID_117312128_JID_6504_Energie_kation
 -------------------------------------
 Structure from the checkpoint file:  "JID_6504.chk"
 Charge =  1 Multiplicity = 2

 SCF Done:  E(UB3LYP) =  -741.647760045     A.U. after   23 cycles
 Normal termination of Gaussian 16 at Thu Dec 10 23:50:02 2020.
 Gaussian 16:  ES64L-G16RevA.03 25-Dec-2016

 ----------------------------------------------------------------------
 # B3LYP/6-311++G(d,p) empiricaldispersion=gd3bj scf=xqc pop=npa geom=c
 heck
 ----------------------------------------------------------------------

 ------------------------------------
 CID_117312128_JID_6504_Energie_anion
 ------------------------------------
 Structure from the checkpoint file:  "JID_6504.chk"
 Charge = -1 Multiplicity = 2

                         Standard orientation:
 ---------------------------------------------------------------------
 Center     Atomic      Atomic             Coordinates (Angstroms)
 Number     Number       Type             X           Y           Z
 ---------------------------------------------------------------------
      1          6           0        1.074953   -1.680851    2.134617
      2          6           0        1.638856   -1.029375    0.920978
      3          6           0        2.917656   -0.782085    0.557227
      4          7           0        2.895088   -0.207390   -0.715942
      5          6           0        1.598324   -0.037921   -1.162675
      6          8           0        1.208006    0.477666   -2.205665
      7          7           0        0.823361   -0.583589   -0.136713
      8          6           0       -0.601145   -0.607711   -0.172878
      9          6           0       -1.227360   -1.590187   -0.943267
     10          6           0       -2.616642   -1.651370   -1.006076
     11          6           0       -3.380653   -0.729655   -0.288168
     12          6           0       -2.749101    0.249740    0.474204
     13          6           0       -1.353099    0.335370    0.544028
     14          6           0       -0.725153    1.484370    1.309952
     15          8           0       -0.682568    2.674621    0.532195
     16          7           0        0.528997    2.661330   -0.265732
     17          1           0        1.884585   -1.981274    2.805263
     18          1           0        0.492369   -2.573750    1.876330
     19          1           0        0.406150   -1.009906    2.687162
     20          1           0        3.837820   -0.997707    1.076497
     21          1           0        3.676543    0.189778   -1.211900
     22          1           0       -0.609851   -2.294203   -1.491446
     23          1           0       -3.099359   -2.415547   -1.607978
     24          1           0       -4.465381   -0.772272   -0.325920
     25          1           0       -3.343593    0.976782    1.021553
     26          1           0       -1.356378    1.730569    2.170986
     27          1           0        0.284588    1.245676    1.657319
     28          1           0        0.283667    2.180066   -1.139199
     29          1           0        0.613392    3.649099   -0.509855
 ---------------------------------------------------------------------

 SCF Done:  E(UB3LYP) =  -741.909187489     A.U. after   33 cycles
 SCF Done:  E(UB3LYP) =  -741.909187490     a.u. after    1 cycles

 The electronic state is 2-A.
 Alpha  occ. eigenvalues --  -19.05062 -18.98170 -14.25837 -14.25311 -14.24454
 Alpha  occ. eigenvalues --  -10.19149 -10.12253 -10.12091 -10.11210 -10.09958
 Alpha  occ. eigenvalues --  -10.08620 -10.08422 -10.08187 -10.08128 -10.07970
 Alpha  occ. eigenvalues --  -10.07954  -0.96407  -0.95728  -0.88511  -0.82298
 Alpha  occ. eigenvalues --   -0.76137  -0.72661  -0.68555  -0.66552  -0.65187
 Alpha  occ. eigenvalues --   -0.60110  -0.57415  -0.55018  -0.50769  -0.50656
 Alpha  occ. eigenvalues --   -0.47611  -0.42776  -0.41989  -0.41544  -0.40807
 Alpha  occ. eigenvalues --   -0.38630  -0.37559  -0.35904  -0.35101  -0.34354
 Alpha  occ. eigenvalues --   -0.33513  -0.33145  -0.32432  -0.31949  -0.31700
 Alpha  occ. eigenvalues --   -0.29775  -0.28007  -0.27388  -0.26885  -0.25384
 Alpha  occ. eigenvalues --   -0.23120  -0.20458  -0.19785  -0.17465  -0.16458
 Alpha  occ. eigenvalues --   -0.16172  -0.14404  -0.10151   0.04307
 Alpha virt. eigenvalues --    0.05868   0.06714   0.07022   0.07435   0.07645
 Alpha virt. eigenvalues --    0.08351   0.09160   0.09694   0.09903   0.11534
 Alpha virt. eigenvalues --    0.11606   0.12234   0.12741   0.13579   0.13944

  Beta  occ. eigenvalues --  -19.05054 -18.98169 -14.25830 -14.25292 -14.24445
  Beta  occ. eigenvalues --  -10.19151 -10.12269 -10.12081 -10.11212 -10.09929
  Beta  occ. eigenvalues --  -10.08563 -10.08430 -10.08131 -10.08075 -10.07922
  Beta  occ. eigenvalues --  -10.07912  -0.96392  -0.95719  -0.88502  -0.82269
  Beta  occ. eigenvalues --   -0.76053  -0.72625  -0.68523  -0.66429  -0.65124
  Beta  occ. eigenvalues --   -0.60056  -0.57350  -0.54962  -0.50691  -0.50585
  Beta  occ. eigenvalues --   -0.47559  -0.42732  -0.41937  -0.41508  -0.40774
  Beta  occ. eigenvalues --   -0.38574  -0.37528  -0.35838  -0.35068  -0.34305
  Beta  occ. eigenvalues --   -0.33466  -0.33109  -0.32362  -0.31917  -0.31678
  Beta  occ. eigenvalues --   -0.29737  -0.27963  -0.27232  -0.26804  -0.25357
  Beta  occ. eigenvalues --   -0.23106  -0.20417  -0.19757  -0.17452  -0.16257
  Beta  occ. eigenvalues --   -0.15866  -0.14365  -0.10133
  Beta virt. eigenvalues --    0.06439   0.07011   0.07179   0.07476   0.07969
  Beta virt. eigenvalues --    0.08109   0.08710   0.09664   0.10071   0.10496
  Beta virt. eigenvalues --    0.11670   0.11973   0.12601   0.12966   0.13533

 Mulliken charges and spin densities:
               1          2
     1  C    2.170940  -2.875892
     2  C   -1.425837   1.749653
     3  C    0.731666  -0.951636
     4  N   -0.210292   0.018769
     5  C    0.603774  -0.459925
     6  O   -0.402993   0.014926
     7  N    0.531771  -0.039283
     8  C   -0.855996   0.379097
     9  C    0.126651   0.142874
    10  C    0.206029  -0.333197
    11  C    0.149888  -0.480777
    12  C    0.108999  -0.162143
    13  C   -0.774782   0.743313
    14  C    0.366150  -1.101753
    15  O   -0.056388   0.006141
    16  N   -0.500159   0.025506
    17  H   -0.253701   0.423943
    18  H   -0.065682   0.239744
    19  H   -0.108255   0.253781
    20  H   -1.483142   1.672739
    21  H   -0.034973   0.368263
    22  H    0.003130   0.143943
    23  H   -0.091053   0.252857
    24  H   -0.290325   0.438662
    25  H   -0.086727   0.254595
    26  H   -0.164426   0.359437
    27  H    0.289000  -0.117746
    28  H    0.317027  -0.050760
    29  H    0.199707   0.084869
 Sum of Mulliken charges =  -1.00000   1.00000

 Dipole moment (field-independent basis, Debye):
    X=             -3.8688    Y=              1.5292    Z=             -1.9655  Tot=              4.6010
 Quadrupole moment (field-independent basis, Debye-Ang):
   XX=           -165.9540   YY=           -126.0107   ZZ=           -136.4694
   XY=              7.3700   XZ=             -6.6670   YZ=              3.7302

 Summary of Natural Population Analysis:

                                       Natural Population
                Natural  -----------------------------------------------
    Atom  No    Charge         Core      Valence    Rydberg      Total
 -----------------------------------------------------------------------
      C    1   -0.30015      0.99963     2.29515    0.00537     3.30015
      C    2    0.07030      0.99951     1.91718    0.01301     2.92970
      C    3   -0.02776      0.99946     2.01583    0.01247     3.02776
      N    4   -0.30052      0.99968     2.79072    0.01012     3.80052
      C    5    0.39772      0.99967     1.57865    0.02396     2.60228
      O    6   -0.35134      0.99987     3.34644    0.00503     4.35134
      N    7   -0.25069      0.99958     2.73793    0.01318     3.75069
      C    8    0.07661      0.99942     1.91100    0.01297     2.92339
      C    9   -0.08458      0.99951     2.07544    0.00964     3.08458
      C   10   -0.08952      0.99956     2.08111    0.00884     3.08952
      C   11   -0.10228      0.99956     2.09267    0.01004     3.10228
      C   12   -0.08191      0.99952     2.07213    0.01026     3.08191
      C   13   -0.02513      0.99945     2.01525    0.01043     3.02513
      C   14   -0.02160      0.99955     2.00692    0.01513     3.02160
      O   15   -0.23344      0.99990     3.22357    0.00997     4.23344
      N   16   -0.25912      0.99976     2.74884    0.01052     3.75912
      H   17    0.11202      0.00000     0.38682    0.00115     0.38798
      H   18    0.10788      0.00000     0.39083    0.00130     0.39212
      H   19    0.10509      0.00000     0.39324    0.00166     0.39491
      H   20    0.10993      0.00000     0.38453    0.00554     0.39007
      H   21    0.20589      0.00000     0.29152    0.00259     0.29411
      H   22    0.10575      0.00000     0.39329    0.00095     0.39425
      H   23    0.09955      0.00000     0.39962    0.00083     0.40045
      H   24    0.10017      0.00000     0.39890    0.00093     0.39983
      H   25    0.10089      0.00000     0.39795    0.00116     0.39911
      H   26    0.09326      0.00000     0.40499    0.00175     0.40674
      H   27    0.09699      0.00000     0.40093    0.00208     0.40301
      H   28    0.17937      0.00000     0.31866    0.00197     0.32063
      H   29    0.16661      0.00000     0.33170    0.00168     0.33339
 =======================================================================
   * Total *    0.00000     15.99363    41.80182    0.20454    58.00000

 Normal termination of Gaussian 16 at Fri Dec 11 00:02:12 2020.
