 Gaussian 16, Revision A.03,

 -----------------------------------------------------------
 # opt freq B3LYP/6-31G(d) empiricaldispersion=gd3bj scf=xqc
 -----------------------------------------------------------

 ------------------------------
 CID_79600889_JID_7922_neutraal
 ------------------------------
 Symbolic Z-matrix:
 Charge =  0 Multiplicity = 1

 SCF Done:  E(RB3LYP) =  -779.839870071     A.U. after   14 cycles
 SCF Done:  E(RB3LYP) =  -779.844270069     A.U. after   12 cycles
 SCF Done:  E(RB3LYP) =  -779.844656141     A.U. after   11 cycles
 SCF Done:  E(RB3LYP) =  -779.844889699     A.U. after   11 cycles
 SCF Done:  E(RB3LYP) =  -779.845057136     A.U. after   11 cycles
 SCF Done:  E(RB3LYP) =  -779.845265183     A.U. after   12 cycles
 SCF Done:  E(RB3LYP) =  -779.845437200     A.U. after   11 cycles
 SCF Done:  E(RB3LYP) =  -779.845552081     A.U. after   12 cycles
 SCF Done:  E(RB3LYP) =  -779.845839424     A.U. after   11 cycles
 SCF Done:  E(RB3LYP) =  -779.845950300     A.U. after   12 cycles
 SCF Done:  E(RB3LYP) =  -779.845983464     A.U. after    8 cycles
 SCF Done:  E(RB3LYP) =  -779.845983853     A.U. after    8 cycles
 SCF Done:  E(RB3LYP) =  -779.845983932     A.U. after    7 cycles
 SCF Done:  E(RB3LYP) =  -779.845984016     A.U. after    8 cycles
 SCF Done:  E(RB3LYP) =  -779.845984055     A.U. after    7 cycles
 Optimization completed.
    -- Stationary point found.
 Normal termination of Gaussian 16 at Sun Dec 13 12:34:44 2020.

 --------------------------------------------------------------------
 #N Geom=AllCheck Guess=TCheck SCRF=Check GenChk RB3LYP/6-31G(d) Freq
 --------------------------------------------------------------------

 Structure from the checkpoint file:  "JID_7922.chk"
 ------------------------------
 CID_79600889_JID_7922_neutraal
 ------------------------------
 Charge =  0 Multiplicity = 1

 SCF Done:  E(RB3LYP) =  -779.845984055     A.U. after    1 cycles

  Exact polarizability: 213.118   4.045 137.642  -5.083   1.244  77.597
 Approx polarizability: 270.971   2.145 246.867 -10.322  10.007 126.593

                      1                      2                      3
                      A                      A                      A
 Frequencies --     21.5166                38.2976                62.9536
 Red. masses --      4.8720                 4.8721                 4.7708
 Frc consts  --      0.0013                 0.0042                 0.0111
 IR Inten    --      0.2943                 0.5289                 1.7037

                      4                      5                      6
                      A                      A                      A
 Frequencies --     75.8725               127.5359               156.1506
 Red. masses --      4.8464                 2.8187                 3.9588
 Frc consts  --      0.0164                 0.0270                 0.0569
 IR Inten    --      4.8485                 0.7501                 1.0285

                      7                      8                      9
                      A                      A                      A
 Frequencies --    176.4458               225.2391               245.5328
 Red. masses --      5.3975                 4.8292                 3.5981
 Frc consts  --      0.0990                 0.1443                 0.1278
 IR Inten    --      0.7901                 1.3126                 6.8730

                     10                     11                     12
                      A                      A                      A
 Frequencies --    285.1252               315.9510               326.4204
 Red. masses --      3.9692                 3.3387                 4.0051
 Frc consts  --      0.1901                 0.1964                 0.2514
 IR Inten    --      0.7140                21.0878                13.3203

                     13                     14                     15
                      A                      A                      A
 Frequencies --    375.1859               417.0988               449.3471
 Red. masses --      1.3255                 3.6583                 2.7203
 Frc consts  --      0.1099                 0.3750                 0.3236
 IR Inten    --    135.8044                30.2817                 1.2568

                     16                     17                     18
                      A                      A                      A
 Frequencies --    465.9310               500.4227               534.5012
 Red. masses --      3.8408                 6.4797                 4.2676
 Frc consts  --      0.4913                 0.9561                 0.7183
 IR Inten    --      7.2852                 0.5182                 2.4823

                     19                     20                     21
                      A                      A                      A
 Frequencies --    553.1136               578.6881               599.6079
 Red. masses --      3.9982                 1.9112                 4.9658
 Frc consts  --      0.7207                 0.3771                 1.0519
 IR Inten    --      1.0353                48.8326                 3.5283

                     22                     23                     24
                      A                      A                      A
 Frequencies --    607.8023               694.4691               720.7040
 Red. masses --      4.4358                 2.1549                 3.4651
 Frc consts  --      0.9655                 0.6123                 1.0604
 IR Inten    --     14.6534                23.5062                 0.5412

                     25                     26                     27
                      A                      A                      A
 Frequencies --    742.1339               750.9328               763.1134
 Red. masses --      4.4431                 5.7803                 4.6678
 Frc consts  --      1.4418                 1.9204                 1.6015
 IR Inten    --      8.3655                12.1386                 0.1803

                     28                     29                     30
                      A                      A                      A
 Frequencies --    767.2326               847.4079               864.1438
 Red. masses --      1.3200                 4.5539                 1.4115
 Frc consts  --      0.4578                 1.9267                 0.6210
 IR Inten    --     48.5852                19.9691                 3.1338

                     31                     32                     33
                      A                      A                      A
 Frequencies --    889.0115               909.8989               935.2515
 Red. masses --      2.8071                 1.9718                 1.9011
 Frc consts  --      1.3072                 0.9618                 0.9798
 IR Inten    --      7.2182                 6.6777                 6.3056

                     34                     35                     36
                      A                      A                      A
 Frequencies --    945.0930               969.4244               988.3078
 Red. masses --      1.6584                 1.2276                 1.5564
 Frc consts  --      0.8727                 0.6797                 0.8957
 IR Inten    --      5.2547                 0.0213                32.2772

                     37                     38                     39
                      A                      A                      A
 Frequencies --   1033.5304              1058.9645              1061.8059
 Red. masses --      5.4671                 6.0857                 3.2429
 Frc consts  --      3.4407                 4.0209                 2.1542
 IR Inten    --      3.6703                49.4668                 2.3124

                     40                     41                     42
                      A                      A                      A
 Frequencies --   1076.5760              1086.9718              1094.2159
 Red. masses --      2.8968                 4.1701                 2.4356
 Frc consts  --      1.9782                 2.9029                 1.7181
 IR Inten    --     39.4218                53.5664                20.9022

                     43                     44                     45
                      A                      A                      A
 Frequencies --   1130.7017              1146.9381              1165.2824
 Red. masses --      2.8438                 1.7023                 3.5558
 Frc consts  --      2.1421                 1.3194                 2.8448
 IR Inten    --     12.3094                32.8243                 7.7221

                     46                     47                     48
                      A                      A                      A
 Frequencies --   1187.9117              1203.3793              1211.3340
 Red. masses --      1.1096                 1.1941                 1.6914
 Frc consts  --      0.9225                 1.0188                 1.4623
 IR Inten    --      1.0837                46.7931                 9.1824

                     49                     50                     51
                      A                      A                      A
 Frequencies --   1232.1154              1255.5265              1273.8459
 Red. masses --      1.7067                 1.6553                 2.8476
 Frc consts  --      1.5266                 1.5374                 2.7225
 IR Inten    --      1.8437                59.5152                99.7910

                     52                     53                     54
                      A                      A                      A
 Frequencies --   1288.0564              1300.3069              1329.9838
 Red. masses --      1.6484                 1.4983                 1.3960
 Frc consts  --      1.6113                 1.4925                 1.4549
 IR Inten    --     76.5173                 2.9977                 0.1504

                     55                     56                     57
                      A                      A                      A
 Frequencies --   1342.7508              1362.3764              1367.8101
 Red. masses --      2.0708                 1.9214                 1.6076
 Frc consts  --      2.1998                 2.1012                 1.7721
 IR Inten    --      3.0357                78.5400                 0.7200

                     58                     59                     60
                      A                      A                      A
 Frequencies --   1380.7623              1410.0848              1417.8909
 Red. masses --      2.2569                 1.6961                 1.2958
 Frc consts  --      2.5352                 1.9869                 1.5349
 IR Inten    --      3.0483                 9.2993                70.4902

                     61                     62                     63
                      A                      A                      A
 Frequencies --   1438.6547              1484.9743              1503.4678
 Red. masses --      1.6960                 3.5401                 1.7710
 Frc consts  --      2.0681                 4.5994                 2.3586
 IR Inten    --      0.6487                37.3034                38.6304

                     64                     65                     66
                      A                      A                      A
 Frequencies --   1510.3752              1522.6353              1533.4627
 Red. masses --      1.4011                 1.2323                 2.2653
 Frc consts  --      1.8832                 1.6833                 3.1385
 IR Inten    --      1.5024                 5.6773                38.8572

                     67                     68                     69
                      A                      A                      A
 Frequencies --   1535.0387              1547.5267              1594.0912
 Red. masses --      1.7198                 2.0013                 5.3079
 Frc consts  --      2.3876                 2.8238                 7.9470
 IR Inten    --     16.8590                60.6303                28.6145

                     70                     71                     72
                      A                      A                      A
 Frequencies --   1642.7143              1672.2241              3019.6763
 Red. masses --      6.3452                 6.3096                 1.0711
 Frc consts  --     10.0883                10.3953                 5.7547
 IR Inten    --     23.1138                16.9249                37.5555

                     73                     74                     75
                      A                      A                      A
 Frequencies --   3045.4677              3055.2500              3056.0614
 Red. masses --      1.0759                 1.0690                 1.0615
 Frc consts  --      5.8796                 5.8791                 5.8413
 IR Inten    --      5.2861                21.1491                31.2213

                     76                     77                     78
                      A                      A                      A
 Frequencies --   3091.0077              3103.0511              3147.3410
 Red. masses --      1.1003                 1.1043                 1.0956
 Frc consts  --      6.1938                 6.2647                 6.3940
 IR Inten    --     20.9933                14.4103                19.5226

                     79                     80                     81
                      A                      A                      A
 Frequencies --   3172.3320              3189.3100              3206.0853
 Red. masses --      1.0875                 1.0877                 1.0933
 Frc consts  --      6.4484                 6.5186                 6.6210
 IR Inten    --      9.3095                10.8971                29.9205

                     82                     83                     84
                      A                      A                      A
 Frequencies --   3216.5547              3659.1381              3738.3814
 Red. masses --      1.0957                 1.0815                 1.0664
 Frc consts  --      6.6790                 8.5318                 8.7810
 IR Inten    --     15.5237                87.5937                22.2471

 - Thermochemistry -
 -------------------
 Temperature   298.150 Kelvin.  Pressure   1.00000 Atm.
 Atom     1 has atomic number  6 and mass  12.00000

 Molecular mass:   231.10078 amu.
 Principal axes and moments of inertia in atomic units:
                           1         2         3
     Eigenvalues --   960.972409499.08118**********
           X            0.99999   0.00470   0.00072
           Y           -0.00470   0.99996  -0.00791
           Z           -0.00076   0.00791   0.99997
 This molecule is an asymmetric top.
 Rotational symmetry number  1.
 Warning -- assumption of classical behavior for rotation
           may cause significant error
 Rotational temperatures (Kelvin)      0.09013     0.00912     0.00842
 Rotational constants (GHZ):           1.87804     0.18999     0.17546
 Zero-point vibrational energy     640180.4 (Joules/Mol)
                                  153.00679 (Kcal/Mol)
 Warning -- explicit consideration of  22 degrees of freedom as
           vibrations may cause significant error
 Vibrational temperatures:     30.96    55.10    90.58   109.16   183.50
          (Kelvin)            224.67   253.87   324.07   353.27   410.23
                              454.58   469.65   539.81   600.11   646.51
                              670.37   720.00   769.03   795.81   832.60
                              862.70   874.49   999.19  1036.93  1067.77
                             1080.42  1097.95  1103.88  1219.23  1243.31
                             1279.09  1309.14  1345.62  1359.78  1394.79
                             1421.95  1487.02  1523.61  1527.70  1548.95
                             1563.91  1574.33  1626.83  1650.19  1676.58
                             1709.14  1731.39  1742.84  1772.74  1806.42
                             1832.78  1853.23  1870.85  1913.55  1931.92
                             1960.16  1967.97  1986.61  2028.80  2040.03
                             2069.90  2136.55  2163.15  2173.09  2190.73
                             2206.31  2208.58  2226.55  2293.54  2363.50
                             2405.96  4344.64  4381.75  4395.82  4396.99
                             4447.27  4464.60  4528.32  4564.28  4588.71
                             4612.84  4627.90  5264.68  5378.70

 Zero-point correction=                           0.243832 (Hartree/Particle)
 Thermal correction to Energy=                    0.257856
 Thermal correction to Enthalpy=                  0.258800
 Thermal correction to Gibbs Free Energy=         0.201095
 Sum of electronic and zero-point Energies=           -779.602152
 Sum of electronic and thermal Energies=              -779.588128
 Sum of electronic and thermal Enthalpies=            -779.587184
 Sum of electronic and thermal Free Energies=         -779.644889

                     E (Thermal)             CV                S
                      KCal/Mol        Cal/Mol-Kelvin    Cal/Mol-Kelvin
 Total                  161.807             54.332            121.451
 Electronic               0.000              0.000              0.000
 Translational            0.889              2.981             42.215
 Rotational               0.889              2.981             32.907
 Vibrational            160.030             48.370             46.330
 Vibration     1          0.593              1.985              6.489
 Vibration     2          0.594              1.982              5.345
 Vibration     3          0.597              1.972              4.362
 Vibration     4          0.599              1.965              3.995
 Vibration     5          0.611              1.926              2.983
 Vibration     6          0.620              1.896              2.596
 Vibration     7          0.628              1.871              2.366
 Vibration     8          0.650              1.803              1.917
 Vibration     9          0.660              1.770              1.762
 Vibration    10          0.683              1.701              1.503
 Vibration    11          0.703              1.643              1.331
 Vibration    12          0.710              1.623              1.278
 Vibration    13          0.746              1.523              1.059
 Vibration    14          0.780              1.433              0.902
 Vibration    15          0.808              1.362              0.798
 Vibration    16          0.823              1.326              0.749
 Vibration    17          0.856              1.249              0.657
 Vibration    18          0.889              1.174              0.577
 Vibration    19          0.908              1.133              0.538
 Vibration    20          0.935              1.077              0.488
 Vibration    21          0.958              1.033              0.450
 Vibration    22          0.967              1.015              0.436

                           ! Non-Optimized Parameters !
 Normal termination of Gaussian 16 at Sun Dec 13 12:44:23 2020.

 ----------------------------------------------------------------------
 # B3LYP/6-311++G(d,p) empiricaldispersion=gd3bj scf=xqc pop=npa geom=c
 heck
 ----------------------------------------------------------------------

 --------------------------------------
 CID_79600889_JID_7922_Energie_neutraal
 --------------------------------------
 Structure from the checkpoint file:  "JID_7922.chk"
 Charge =  0 Multiplicity = 1

 SCF Done:  E(RB3LYP) =  -780.065774439     A.U. after   15 cycles
 Normal termination of Gaussian 16 at Sun Dec 13 12:48:54 2020.

 ----------------------------------------------------------------------
 # B3LYP/6-311++G(d,p) empiricaldispersion=gd3bj scf=xqc pop=npa geom=c
 heck
 ----------------------------------------------------------------------

 ------------------------------------
 CID_79600889_JID_7922_Energie_kation
 ------------------------------------
 Structure from the checkpoint file:  "JID_7922.chk"
 Charge =  1 Multiplicity = 2

 SCF Done:  E(UB3LYP) =  -779.778108883     A.U. after   26 cycles
 Normal termination of Gaussian 16 at Sun Dec 13 13:00:19 2020.
 Gaussian 16:  ES64L-G16RevA.03 25-Dec-2016

 ----------------------------------------------------------------------
 # B3LYP/6-311++G(d,p) empiricaldispersion=gd3bj scf=xqc pop=npa geom=c
 heck
 ----------------------------------------------------------------------

 -----------------------------------
 CID_79600889_JID_7922_Energie_anion
 -----------------------------------
 Structure from the checkpoint file:  "JID_7922.chk"
 Charge = -1 Multiplicity = 2

                         Standard orientation:
 ---------------------------------------------------------------------
 Center     Atomic      Atomic             Coordinates (Angstroms)
 Number     Number       Type             X           Y           Z
 ---------------------------------------------------------------------
      1          6           0       -0.927143   -1.033510    0.022165
      2          6           0       -0.021662    0.156465    0.352876
      3          6           0       -0.484867    1.364654   -0.472148
      4          8           0       -1.814587    1.750180   -0.133319
      5          6           0       -2.738308    0.740218   -0.050929
      6          6           0       -4.081016    1.131605   -0.018710
      7          6           0       -5.081927    0.171869    0.083182
      8          6           0       -4.748643   -1.183796    0.153963
      9          6           0       -3.408134   -1.559640    0.130790
     10          6           0       -2.380770   -0.614849    0.029241
     11          6           0        1.430134   -0.111859    0.108049
     12          7           0        1.884789   -1.222905   -0.461592
     13          7           0        3.225222   -1.001445   -0.489703
     14          6           0        3.521254    0.200587    0.052242
     15          7           0        2.405921    0.794138    0.444302
     16          6           0        4.925276    0.719984    0.132880
     17          8           0        5.871330   -0.343990    0.155618
     18          1           0       -0.645170   -1.432313   -0.960544
     19          1           0       -0.762265   -1.848064    0.736130
     20          1           0       -0.143596    0.431048    1.409019
     21          1           0        0.139598    2.237623   -0.276198
     22          1           0       -0.431860    1.121804   -1.543986
     23          1           0       -4.310742    2.190751   -0.076909
     24          1           0       -6.122852    0.482171    0.105365
     25          1           0       -5.525758   -1.938051    0.233558
     26          1           0       -3.139114   -2.611661    0.198750
     27          1           0        3.863427   -1.690989   -0.859957
     28          1           0        5.162136    1.307361   -0.760749
     29          1           0        5.011348    1.389634    0.997807
     30          1           0        5.814220   -0.767706    1.026661
 ---------------------------------------------------------------------

 SCF Done:  E(UB3LYP) =  -780.059346183     A.U. after   33 cycles
 SCF Done:  E(UB3LYP) =  -780.059346183     a.u. after    1 cycles

 The electronic state is 2-A.
 Alpha  occ. eigenvalues --  -19.06907 -19.02690 -14.29237 -14.24331 -14.20925
 Alpha  occ. eigenvalues --  -10.15138 -10.14678 -10.14231 -10.13482 -10.13240
 Alpha  occ. eigenvalues --  -10.10345 -10.10049 -10.09575 -10.09448 -10.09236
 Alpha  occ. eigenvalues --  -10.09153 -10.08969  -0.98751  -0.98170  -0.92903
 Alpha  occ. eigenvalues --   -0.80267  -0.77747  -0.75945  -0.71760  -0.67990
 Alpha  occ. eigenvalues --   -0.66323  -0.61834  -0.58906  -0.57712  -0.53109
 Alpha  occ. eigenvalues --   -0.52424  -0.50378  -0.47278  -0.45920  -0.44487
 Alpha  occ. eigenvalues --   -0.41658  -0.41019  -0.39986  -0.38029  -0.36708
 Alpha  occ. eigenvalues --   -0.36348  -0.36097  -0.35242  -0.34634  -0.33314
 Alpha  occ. eigenvalues --   -0.32124  -0.31440  -0.31083  -0.28641  -0.27024
 Alpha  occ. eigenvalues --   -0.26218  -0.25039  -0.24278  -0.24096  -0.23368
 Alpha  occ. eigenvalues --   -0.20106  -0.19527  -0.18961  -0.17046  -0.16600
 Alpha  occ. eigenvalues --   -0.14278   0.04023
 Alpha virt. eigenvalues --    0.05041   0.06154   0.06919   0.07397   0.07964
 Alpha virt. eigenvalues --    0.08112   0.08420   0.09203   0.09480   0.09743
 Alpha virt. eigenvalues --    0.09988   0.11353   0.11413   0.12311   0.12566

  Beta  occ. eigenvalues --  -19.06906 -19.02592 -14.29161 -14.24303 -14.20912
  Beta  occ. eigenvalues --  -10.15137 -10.14669 -10.14227 -10.13443 -10.13245
  Beta  occ. eigenvalues --  -10.10344 -10.10048 -10.09566 -10.09441 -10.09233
  Beta  occ. eigenvalues --  -10.09148 -10.08959  -0.98747  -0.98111  -0.92696
  Beta  occ. eigenvalues --   -0.80208  -0.77735  -0.75898  -0.71713  -0.67974
  Beta  occ. eigenvalues --   -0.66304  -0.61674  -0.58888  -0.57689  -0.53092
  Beta  occ. eigenvalues --   -0.52348  -0.50351  -0.47252  -0.45830  -0.44467
  Beta  occ. eigenvalues --   -0.41623  -0.40976  -0.39895  -0.37923  -0.36677
  Beta  occ. eigenvalues --   -0.36289  -0.36066  -0.35219  -0.34620  -0.33219
  Beta  occ. eigenvalues --   -0.32108  -0.31423  -0.31066  -0.28624  -0.27008
  Beta  occ. eigenvalues --   -0.26190  -0.24955  -0.24265  -0.24041  -0.23351
  Beta  occ. eigenvalues --   -0.19989  -0.19427  -0.18935  -0.17023  -0.16485
  Beta  occ. eigenvalues --   -0.14264
  Beta virt. eigenvalues --    0.05580   0.06164   0.06952   0.07099   0.07590
  Beta virt. eigenvalues --    0.08145   0.08658   0.08940   0.09445   0.09681
  Beta virt. eigenvalues --    0.09880   0.10370   0.11316   0.11608   0.12283

 Mulliken charges and spin densities:
               1          2
     1  C   -0.123482  -0.579935
     2  C    0.242983   0.082715
     3  C   -0.270671  -0.261235
     4  O   -0.116080   0.003578
     5  C   -0.849101  -0.102421
     6  C   -0.694605   0.411654
     7  C    0.368308  -0.658989
     8  C    0.447088  -0.801484
     9  C   -0.431483   0.531885
    10  C    0.931995   0.049736
    11  C   -0.186009  -0.418521
    12  N   -0.040860  -0.102017
    13  N    0.055263  -0.105990
    14  C   -0.926685   1.558101
    15  N   -0.126616   0.050251
    16  C    1.845658  -2.180595
    17  O   -0.237359  -0.007710
    18  H    0.203239   0.014449
    19  H    0.054178   0.118835
    20  H    0.128421   0.093984
    21  H    0.237942  -0.031363
    22  H    0.092192   0.078191
    23  H    0.119536   0.057321
    24  H   -0.234993   0.388767
    25  H   -0.303547   0.459744
    26  H    0.057986   0.106187
    27  H   -0.162289   0.521504
    28  H   -0.276392   0.471101
    29  H   -0.300746   0.477067
    30  H   -0.503872   0.775189
 Sum of Mulliken charges =  -1.00000   1.00000

 Dipole moment (field-independent basis, Debye):
    X=             -8.7411    Y=              2.4658    Z=             -2.1333  Tot=              9.3294
 Quadrupole moment (field-independent basis, Debye-Ang):
   XX=           -250.0473   YY=           -128.1348   ZZ=           -124.1566
   XY=              7.3320   XZ=             -9.2839   YZ=             -0.0286

 Summary of Natural Population Analysis:

                                       Natural Population
                Natural  -----------------------------------------------
    Atom  No    Charge         Core      Valence    Rydberg      Total
 -----------------------------------------------------------------------
      C    1   -0.19566      0.99960     2.18712    0.00894     3.19566
      C    2   -0.14016      0.99955     2.13041    0.01020     3.14016
      C    3   -0.00099      0.99955     1.99105    0.01040     3.00099
      O    4   -0.27720      0.99986     3.26886    0.00847     4.27720
      C    5    0.15686      0.99933     1.83129    0.01252     2.84314
      C    6   -0.12001      0.99952     2.11054    0.00995     3.12001
      C    7   -0.10036      0.99957     2.09065    0.01013     3.10036
      C    8   -0.13197      0.99960     2.11644    0.01593     3.13197
      C    9   -0.05050      0.99954     2.04595    0.00501     3.05050
      C   10   -0.06212      0.99950     2.04894    0.01368     3.06212
      C   11    0.17045      0.99962     1.80905    0.02088     2.82955
      N   12   -0.16281      0.99969     2.65134    0.01178     3.66281
      N   13   -0.17059      0.99964     2.65829    0.01267     3.67059
      C   14    0.18813      0.99961     1.79484    0.01742     2.81187
      N   15   -0.27159      0.99968     2.76288    0.00903     3.77159
      C   16   -0.02654      0.99956     2.01355    0.01342     3.02654
      O   17   -0.36719      0.99990     3.36015    0.00713     4.36719
      H   18    0.11227      0.00000     0.38612    0.00160     0.38773
      H   19    0.11038      0.00000     0.38830    0.00132     0.38962
      H   20    0.10944      0.00000     0.38887    0.00170     0.39056
      H   21    0.10204      0.00000     0.39672    0.00124     0.39796
      H   22    0.08218      0.00000     0.41663    0.00119     0.41782
      H   23    0.10532      0.00000     0.39353    0.00115     0.39468
      H   24    0.10091      0.00000     0.39809    0.00100     0.39909
      H   25    0.10098      0.00000     0.39768    0.00134     0.39902
      H   26    0.09497      0.00000     0.40334    0.00169     0.40503
      H   27    0.21228      0.00000     0.28325    0.00447     0.28772
      H   28    0.09743      0.00000     0.40091    0.00166     0.40257
      H   29    0.09346      0.00000     0.40481    0.00173     0.40654
      H   30    0.24130      0.00000     0.21773    0.04097     0.25870
 =======================================================================
   * Total *    0.00069     16.99334    43.74735    0.25862    60.99931

 Normal termination of Gaussian 16 at Sun Dec 13 13:15:24 2020.
