 Gaussian 16, Revision A.03,

 -----------------------------------------------------------
 # opt freq B3LYP/6-31G(d) empiricaldispersion=gd3bj scf=xqc
 -----------------------------------------------------------

 ------------------------------
 CID_69721083_JID_8195_neutraal
 ------------------------------
 Symbolic Z-matrix:
 Charge =  0 Multiplicity = 1

 SCF Done:  E(RB3LYP) =  -788.345309722     A.U. after   14 cycles
 SCF Done:  E(RB3LYP) =  -788.350190690     A.U. after   12 cycles
 SCF Done:  E(RB3LYP) =  -788.350645896     A.U. after   12 cycles
 SCF Done:  E(RB3LYP) =  -788.350671558     A.U. after   11 cycles
 SCF Done:  E(RB3LYP) =  -788.350773036     A.U. after   10 cycles
 SCF Done:  E(RB3LYP) =  -788.350786255     A.U. after   10 cycles
 SCF Done:  E(RB3LYP) =  -788.350787498     A.U. after    8 cycles
 SCF Done:  E(RB3LYP) =  -788.350788090     A.U. after    8 cycles
 SCF Done:  E(RB3LYP) =  -788.350788232     A.U. after    7 cycles
 SCF Done:  E(RB3LYP) =  -788.350788296     A.U. after    7 cycles
 Optimization completed.
    -- Stationary point found.
 Normal termination of Gaussian 16 at Fri Dec 11 19:24:47 2020.

 --------------------------------------------------------------------
 #N Geom=AllCheck Guess=TCheck SCRF=Check GenChk RB3LYP/6-31G(d) Freq
 --------------------------------------------------------------------

 Structure from the checkpoint file:  "JID_8195.chk"
 ------------------------------
 CID_69721083_JID_8195_neutraal
 ------------------------------
 Charge =  0 Multiplicity = 1

 SCF Done:  E(RB3LYP) =  -788.350788296     A.U. after    1 cycles

  Exact polarizability: 197.383  -8.127 144.155 -11.239 -19.253 128.845
 Approx polarizability: 278.162 -18.971 222.604 -22.358 -42.259 202.407

                      1                      2                      3
                      A                      A                      A
 Frequencies --     30.0634                60.2692                63.4779
 Red. masses --      4.1835                 5.6333                 3.6529
 Frc consts  --      0.0022                 0.0121                 0.0087
 IR Inten    --      0.2069                 0.2826                 0.0852

                      4                      5                      6
                      A                      A                      A
 Frequencies --     80.0980               100.1950               138.1581
 Red. masses --      4.5739                 4.2221                 3.3744
 Frc consts  --      0.0173                 0.0250                 0.0379
 IR Inten    --      0.1248                 0.1160                 0.3214

                      7                      8                      9
                      A                      A                      A
 Frequencies --    165.5481               189.1844               213.5664
 Red. masses --      3.6070                 2.8173                 3.0945
 Frc consts  --      0.0582                 0.0594                 0.0832
 IR Inten    --      0.6131                 0.7896                 0.4090

                     10                     11                     12
                      A                      A                      A
 Frequencies --    234.9097               264.3817               304.5840
 Red. masses --      3.8935                 2.9651                 4.6977
 Frc consts  --      0.1266                 0.1221                 0.2568
 IR Inten    --      0.2186                 1.6101                 4.4903

                     13                     14                     15
                      A                      A                      A
 Frequencies --    361.8267               370.8296               393.7946
 Red. masses --      2.0158                 3.6086                 2.1670
 Frc consts  --      0.1555                 0.2924                 0.1980
 IR Inten    --      0.1182                 7.1025                 2.0623

                     16                     17                     18
                      A                      A                      A
 Frequencies --    421.7658               431.6202               479.2592
 Red. masses --      3.0408                 3.5660                 3.6396
 Frc consts  --      0.3187                 0.3914                 0.4925
 IR Inten    --      0.2236                10.5065                 2.4472

                     19                     20                     21
                      A                      A                      A
 Frequencies --    539.2402               543.0777               570.6833
 Red. masses --      1.5824                 1.7916                 4.2610
 Frc consts  --      0.2711                 0.3113                 0.8176
 IR Inten    --     60.9438                31.0419                 9.1574

                     22                     23                     24
                      A                      A                      A
 Frequencies --    600.4777               629.0077               638.7756
 Red. masses --      2.9342                 3.0373                 6.1892
 Frc consts  --      0.6233                 0.7080                 1.4879
 IR Inten    --      4.1917                 8.4613                 0.0273

                     25                     26                     27
                      A                      A                      A
 Frequencies --    648.8501               664.8836               720.2129
 Red. masses --      3.6324                 3.0807                 1.7849
 Frc consts  --      0.9010                 0.8024                 0.5455
 IR Inten    --     10.4289                 6.5571                25.4658

                     28                     29                     30
                      A                      A                      A
 Frequencies --    735.1113               764.5585               780.0437
 Red. masses --      2.9741                 9.1759                 2.0768
 Frc consts  --      0.9469                 3.1603                 0.7445
 IR Inten    --     13.0180                32.8370                19.6047

                     31                     32                     33
                      A                      A                      A
 Frequencies --    783.1275               837.5221               846.4459
 Red. masses --      2.0246                 2.9334                 2.2574
 Frc consts  --      0.7316                 1.2123                 0.9529
 IR Inten    --      1.3960                 1.5396                 0.4322

                     34                     35                     36
                      A                      A                      A
 Frequencies --    864.9475               887.6855               909.5817
 Red. masses --      1.2453                 1.9148                 1.9802
 Frc consts  --      0.5489                 0.8890                 0.9653
 IR Inten    --      0.0119                 3.6818                 0.0761

                     37                     38                     39
                      A                      A                      A
 Frequencies --    928.9619               929.7242               949.3462
 Red. masses --      1.4796                 1.8644                 2.1404
 Frc consts  --      0.7523                 0.9495                 1.1366
 IR Inten    --      1.8143                 2.3952                 8.0705

                     40                     41                     42
                      A                      A                      A
 Frequencies --    959.6240               971.3031               986.7100
 Red. masses --      2.2639                 1.3436                 1.9520
 Frc consts  --      1.2283                 0.7468                 1.1197
 IR Inten    --      2.1844                 0.0108                 1.9266

                     43                     44                     45
                      A                      A                      A
 Frequencies --    995.0108              1022.7065              1024.0030
 Red. masses --      1.2435                 6.1652                 2.3682
 Frc consts  --      0.7253                 3.7993                 1.4631
 IR Inten    --      0.1875                 0.4804                 6.3080

                     46                     47                     48
                      A                      A                      A
 Frequencies --   1033.7684              1062.0187              1072.5688
 Red. masses --      1.5598                 2.2204                 2.6138
 Frc consts  --      0.9821                 1.4756                 1.7717
 IR Inten    --      0.5010                 2.3432                10.2311

                     49                     50                     51
                      A                      A                      A
 Frequencies --   1082.1228              1111.9920              1116.7414
 Red. masses --      2.0937                 1.8734                 1.8518
 Frc consts  --      1.4445                 1.3649                 1.3607
 IR Inten    --     17.2720                11.8236                33.0221

                     52                     53                     54
                      A                      A                      A
 Frequencies --   1136.9874              1154.5833              1164.7021
 Red. masses --      1.9706                 2.2542                 1.5586
 Frc consts  --      1.5009                 1.7705                 1.2457
 IR Inten    --     10.2595                16.0379                18.3848

                     55                     56                     57
                      A                      A                      A
 Frequencies --   1193.6279              1209.2898              1216.2695
 Red. masses --      1.0958                 2.0806                 1.1449
 Frc consts  --      0.9199                 1.7927                 0.9978
 IR Inten    --      0.0466                30.7255                 2.3460

                     58                     59                     60
                      A                      A                      A
 Frequencies --   1222.7327              1230.8667              1243.1664
 Red. masses --      1.4200                 1.6571                 2.7030
 Frc consts  --      1.2508                 1.4792                 2.4612
 IR Inten    --     80.0766                21.7310                 2.8141

                     61                     62                     63
                      A                      A                      A
 Frequencies --   1248.5387              1267.9685              1279.4416
 Red. masses --      1.5072                 1.5132                 1.5335
 Frc consts  --      1.3843                 1.4334                 1.4790
 IR Inten    --     12.9949                48.6015                42.3248

                     64                     65                     66
                      A                      A                      A
 Frequencies --   1298.7101              1320.0816              1339.1669
 Red. masses --      1.4687                 1.4588                 1.4909
 Frc consts  --      1.4595                 1.4978                 1.5753
 IR Inten    --      7.5282                14.6081                 0.4491

                     67                     68                     69
                      A                      A                      A
 Frequencies --   1344.3284              1358.5069              1364.8745
 Red. masses --      1.4250                 1.5144                 2.1037
 Frc consts  --      1.5173                 1.6467                 2.3090
 IR Inten    --      2.2488                 0.8087                 2.2417

                     70                     71                     72
                      A                      A                      A
 Frequencies --   1369.9440              1374.1065              1379.0265
 Red. masses --      1.6065                 1.3623                 1.4746
 Frc consts  --      1.7763                 1.5155                 1.6522
 IR Inten    --      3.9321                 6.5118                 8.3587

                     73                     74                     75
                      A                      A                      A
 Frequencies --   1386.6179              1402.7891              1480.6303
 Red. masses --      1.5709                 1.5010                 4.5104
 Frc consts  --      1.7795                 1.7403                 5.8259
 IR Inten    --     10.6711                 9.7342               193.1200

                     76                     77                     78
                      A                      A                      A
 Frequencies --   1503.8600              1517.7146              1522.8325
 Red. masses --      2.1990                 1.0904                 1.1002
 Frc consts  --      2.9302                 1.4799                 1.5032
 IR Inten    --     17.6668                 0.5012                 1.3297

                     79                     80                     81
                      A                      A                      A
 Frequencies --   1526.4065              1529.2076              1540.3542
 Red. masses --      1.1215                 1.0991                 1.1101
 Frc consts  --      1.5396                 1.5143                 1.5518
 IR Inten    --     10.0674                 6.1462                 9.4722

                     82                     83                     84
                      A                      A                      A
 Frequencies --   1548.7671              1555.4795              1645.3172
 Red. masses --      2.2085                 1.0899                 5.4593
 Frc consts  --      3.1212                 1.5537                 8.7074
 IR Inten    --      9.5058                 3.9055                 0.9799

                     85                     86                     87
                      A                      A                      A
 Frequencies --   1668.1885              1817.7804              3034.6685
 Red. masses --      5.6188                 8.4631                 1.0730
 Frc consts  --      9.2127                16.4763                 5.8219
 IR Inten    --      5.9322               600.5590                34.2319

                     88                     89                     90
                      A                      A                      A
 Frequencies --   3057.4053              3058.1020              3061.9122
 Red. masses --      1.0641                 1.0620                 1.0667
 Frc consts  --      5.8604                 5.8516                 5.8920
 IR Inten    --      3.2892                31.4371                48.7562

                     91                     92                     93
                      A                      A                      A
 Frequencies --   3062.4557              3077.2031              3093.2329
 Red. masses --      1.0656                 1.0664                 1.1010
 Frc consts  --      5.8881                 5.9496                 6.2065
 IR Inten    --     22.6000                17.3885                10.7495

                     94                     95                     96
                      A                      A                      A
 Frequencies --   3110.8210              3115.4714              3122.1337
 Red. masses --      1.1004                 1.0978                 1.0961
 Frc consts  --      6.2742                 6.2779                 6.2951
 IR Inten    --     39.8122                38.5542                11.3296

                     97                     98                     99
                      A                      A                      A
 Frequencies --   3122.8221              3128.3372              3148.5828
 Red. masses --      1.0898                 1.0959                 1.0984
 Frc consts  --      6.2617                 6.3188                 6.4159
 IR Inten    --     35.9519                16.5426                12.7203

                    100                    101                    102
                      A                      A                      A
 Frequencies --   3175.0451              3180.1680              3190.4657
 Red. masses --      1.0863                 1.0865                 1.0901
 Frc consts  --      6.4520                 6.4742                 6.5377
 IR Inten    --     10.3296                 2.1839                10.4100

                    103                    104                    105
                      A                      A                      A
 Frequencies --   3198.5888              3210.5087              3730.0053
 Red. masses --      1.0940                 1.0980                 1.0645
 Frc consts  --      6.5944                 6.6679                 8.7261
 IR Inten    --     38.2423                22.6398                88.2798

 - Thermochemistry -
 -------------------
 Temperature   298.150 Kelvin.  Pressure   1.00000 Atm.
 Atom     1 has atomic number  6 and mass  12.00000

 Molecular mass:   245.14158 amu.
 Principal axes and moments of inertia in atomic units:
                           1         2         3
     Eigenvalues --  2372.523656332.971596956.70169
           X            0.99991   0.01326   0.00081
           Y           -0.01323   0.99951  -0.02847
           Z           -0.00119   0.02846   0.99959
 This molecule is an asymmetric top.
 Rotational symmetry number  1.
 Warning -- assumption of classical behavior for rotation
           may cause significant error
 Rotational temperatures (Kelvin)      0.03651     0.01368     0.01245
 Rotational constants (GHZ):           0.76068     0.28498     0.25942
 Zero-point vibrational energy     841902.8 (Joules/Mol)
                                  201.21960 (Kcal/Mol)
 Warning -- explicit consideration of  22 degrees of freedom as
           vibrations may cause significant error
 Vibrational temperatures:     43.25    86.71    91.33   115.24   144.16
          (Kelvin)            198.78   238.19   272.19   307.27   337.98
                              380.39   438.23   520.59   533.54   566.58
                              606.83   621.01   689.55   775.85   781.37
                              821.09   863.95   905.00   919.06   933.55
                              956.62  1036.23  1057.66  1100.03  1122.31
                             1126.75  1205.01  1217.85  1244.47  1277.18
                             1308.69  1336.57  1337.67  1365.90  1380.68
                             1397.49  1419.66  1431.60  1471.45  1473.31
                             1487.36  1528.01  1543.19  1556.93  1599.91
                             1606.74  1635.87  1661.19  1675.75  1717.36
                             1739.90  1749.94  1759.24  1770.94  1788.64
                             1796.37  1824.32  1840.83  1868.55  1899.30
                             1926.76  1934.19  1954.59  1963.75  1971.04
                             1977.03  1984.11  1995.03  2018.30  2130.30
                             2163.72  2183.65  2191.02  2196.16  2200.19
                             2216.23  2228.33  2237.99  2367.24  2400.15
                             2615.38  4366.21  4398.92  4399.93  4405.41
                             4406.19  4427.41  4450.47  4475.78  4482.47
                             4492.05  4493.04  4500.98  4530.11  4568.18
                             4575.55  4590.37  4602.06  4619.21  5366.65

 Zero-point correction=                           0.320664 (Hartree/Particle)
 Thermal correction to Energy=                    0.336010
 Thermal correction to Enthalpy=                  0.336954
 Thermal correction to Gibbs Free Energy=         0.277462
 Sum of electronic and zero-point Energies=           -788.030124
 Sum of electronic and thermal Energies=              -788.014778
 Sum of electronic and thermal Enthalpies=            -788.013834
 Sum of electronic and thermal Free Energies=         -788.073326

                     E (Thermal)             CV                S
                      KCal/Mol        Cal/Mol-Kelvin    Cal/Mol-Kelvin
 Total                  210.850             61.610            125.212
 Electronic               0.000              0.000              0.000
 Translational            0.889              2.981             42.391
 Rotational               0.889              2.981             33.013
 Vibrational            209.072             55.648             49.808
 Vibration     1          0.594              1.984              5.825
 Vibration     2          0.597              1.973              4.448
 Vibration     3          0.597              1.972              4.346
 Vibration     4          0.600              1.963              3.888
 Vibration     5          0.604              1.949              3.451
 Vibration     6          0.614              1.915              2.829
 Vibration     7          0.624              1.885              2.485
 Vibration     8          0.633              1.855              2.236
 Vibration     9          0.644              1.820              2.013
 Vibration    10          0.655              1.787              1.841
 Vibration    11          0.671              1.738              1.633
 Vibration    12          0.695              1.665              1.392
 Vibration    13          0.736              1.551              1.114
 Vibration    14          0.743              1.532              1.076
 Vibration    15          0.761              1.483              0.986
 Vibration    16          0.784              1.423              0.886
 Vibration    17          0.793              1.401              0.853
 Vibration    18          0.836              1.296              0.712
 Vibration    19          0.894              1.163              0.567
 Vibration    20          0.898              1.155              0.559
 Vibration    21          0.927              1.095              0.503
 Vibration    22          0.959              1.031              0.449

                           ! Non-Optimized Parameters !
 Normal termination of Gaussian 16 at Fri Dec 11 19:43:35 2020.

 ----------------------------------------------------------------------
 # B3LYP/6-311++G(d,p) empiricaldispersion=gd3bj scf=xqc pop=npa geom=c
 heck
 ----------------------------------------------------------------------

 --------------------------------------
 CID_69721083_JID_8195_Energie_neutraal
 --------------------------------------
 Structure from the checkpoint file:  "JID_8195.chk"
 Charge =  0 Multiplicity = 1

 SCF Done:  E(RB3LYP) =  -788.570595317     A.U. after   16 cycles
 Normal termination of Gaussian 16 at Fri Dec 11 19:51:22 2020.

 ----------------------------------------------------------------------
 # B3LYP/6-311++G(d,p) empiricaldispersion=gd3bj scf=xqc pop=npa geom=c
 heck
 ----------------------------------------------------------------------

 ------------------------------------
 CID_69721083_JID_8195_Energie_kation
 ------------------------------------
 Structure from the checkpoint file:  "JID_8195.chk"
 Charge =  1 Multiplicity = 2

 SCF Done:  E(UB3LYP) =  -788.270039129     A.U. after   27 cycles
 Normal termination of Gaussian 16 at Fri Dec 11 20:09:36 2020.
 Gaussian 16:  ES64L-G16RevA.03 25-Dec-2016

 ----------------------------------------------------------------------
 # B3LYP/6-311++G(d,p) empiricaldispersion=gd3bj scf=xqc pop=npa geom=c
 heck
 ----------------------------------------------------------------------

 -----------------------------------
 CID_69721083_JID_8195_Energie_anion
 -----------------------------------
 Structure from the checkpoint file:  "JID_8195.chk"
 Charge = -1 Multiplicity = 2

                         Standard orientation:
 ---------------------------------------------------------------------
 Center     Atomic      Atomic             Coordinates (Angstroms)
 Number     Number       Type             X           Y           Z
 ---------------------------------------------------------------------
      1          6           0        1.184523    1.033173    2.203719
      2          6           0        0.764265    2.219226    1.311630
      3          6           0        0.445807    1.620124   -0.089110
      4          6           0        1.456533    1.977682   -1.185948
      5          6           0        2.628979    1.036057   -0.915490
      6          7           0        1.970869   -0.161504   -0.383528
      7          6           0        0.572861    0.073377    0.074977
      8          6           0        0.438042   -0.156401    1.590723
      9          6           0       -0.398933   -0.741462   -0.817008
     10          6           0       -1.865196   -0.534999   -0.525104
     11          6           0       -2.519619   -1.303285    0.447441
     12          6           0       -3.868055   -1.098591    0.737557
     13          6           0       -4.591871   -0.121570    0.052047
     14          6           0       -3.958306    0.641116   -0.929364
     15          6           0       -2.608827    0.431774   -1.214498
     16          6           0        2.693293   -1.303405   -0.295054
     17          8           0        3.862283   -1.421580   -0.630851
     18          8           0        1.979678   -2.358822    0.212199
     19          1           0        0.942245    1.189778    3.259635
     20          1           0        2.266253    0.867409    2.138295
     21          1           0       -0.136736    2.691133    1.718582
     22          1           0        1.534520    2.996622    1.259915
     23          1           0       -0.570102    1.887067   -0.385952
     24          1           0        1.750789    3.031103   -1.165920
     25          1           0        1.031155    1.768393   -2.174682
     26          1           0        3.323023    1.451692   -0.172219
     27          1           0        3.212311    0.782753   -1.803357
     28          1           0        0.816421   -1.132190    1.900707
     29          1           0       -0.623664   -0.104287    1.855903
     30          1           0       -0.189363   -0.472832   -1.859126
     31          1           0       -0.143957   -1.798596   -0.705351
     32          1           0       -1.963250   -2.072123    0.977574
     33          1           0       -4.355356   -1.706486    1.494977
     34          1           0       -5.643144    0.037431    0.274768
     35          1           0       -4.515567    1.395109   -1.478568
     36          1           0       -2.125624    1.018470   -1.992271
     37          1           0        2.617289   -3.093585    0.211900
 ---------------------------------------------------------------------

 SCF Done:  E(UB3LYP) =  -788.558517203     A.U. after   33 cycles
 SCF Done:  E(UB3LYP) =  -788.558517203     a.u. after    1 cycles

 The electronic state is 2-A.
 Alpha  occ. eigenvalues --  -19.07348 -19.00363 -14.25096 -10.22715 -10.13108
 Alpha  occ. eigenvalues --  -10.11416 -10.08884 -10.08513 -10.08238 -10.08183
 Alpha  occ. eigenvalues --  -10.08119 -10.08008 -10.07954 -10.07936 -10.07863
 Alpha  occ. eigenvalues --  -10.07653 -10.07616 -10.07117  -1.01701  -0.92052
 Alpha  occ. eigenvalues --   -0.86553  -0.76791  -0.74527  -0.69905  -0.68530
 Alpha  occ. eigenvalues --   -0.65395  -0.63799  -0.60998  -0.57664  -0.55823
 Alpha  occ. eigenvalues --   -0.51647  -0.51164  -0.49526  -0.47790  -0.46899
 Alpha  occ. eigenvalues --   -0.42575  -0.41473  -0.40797  -0.39686  -0.37742
 Alpha  occ. eigenvalues --   -0.37154  -0.36676  -0.35917  -0.35417  -0.35191
 Alpha  occ. eigenvalues --   -0.33037  -0.32898  -0.32244  -0.31052  -0.30168
 Alpha  occ. eigenvalues --   -0.29570  -0.28709  -0.27816  -0.26356  -0.25753
 Alpha  occ. eigenvalues --   -0.25232  -0.24712  -0.24605  -0.23637  -0.23123
 Alpha  occ. eigenvalues --   -0.22749  -0.22561  -0.19035  -0.16678  -0.16268
 Alpha  occ. eigenvalues --   -0.14870   0.04022
 Alpha virt. eigenvalues --    0.05982   0.06078   0.06724   0.07481   0.07680
 Alpha virt. eigenvalues --    0.07738   0.08008   0.08769   0.09125   0.09981
 Alpha virt. eigenvalues --    0.10256   0.10621   0.11280   0.11804   0.12342

  Beta  occ. eigenvalues --  -19.07323 -19.00355 -14.25094 -10.22713 -10.13107
  Beta  occ. eigenvalues --  -10.11405 -10.08871 -10.08508 -10.08229 -10.08158
  Beta  occ. eigenvalues --  -10.08102 -10.07984 -10.07938 -10.07918 -10.07852
  Beta  occ. eigenvalues --  -10.07638 -10.07606 -10.07109  -1.01668  -0.92023
  Beta  occ. eigenvalues --   -0.86541  -0.76754  -0.74508  -0.69874  -0.68495
  Beta  occ. eigenvalues --   -0.65353  -0.63766  -0.60971  -0.57628  -0.55775
  Beta  occ. eigenvalues --   -0.51607  -0.51128  -0.49480  -0.47750  -0.46855
  Beta  occ. eigenvalues --   -0.42527  -0.41451  -0.40755  -0.39664  -0.37713
  Beta  occ. eigenvalues --   -0.37124  -0.36637  -0.35881  -0.35396  -0.35164
  Beta  occ. eigenvalues --   -0.33008  -0.32863  -0.32219  -0.31023  -0.30144
  Beta  occ. eigenvalues --   -0.29544  -0.28681  -0.27777  -0.26328  -0.25726
  Beta  occ. eigenvalues --   -0.25201  -0.24683  -0.24567  -0.23611  -0.23101
  Beta  occ. eigenvalues --   -0.22726  -0.22538  -0.19006  -0.16640  -0.16222
  Beta  occ. eigenvalues --   -0.14821
  Beta virt. eigenvalues --    0.06035   0.06787   0.06910   0.07164   0.07742
  Beta virt. eigenvalues --    0.07809   0.08195   0.08506   0.09101   0.09557
  Beta virt. eigenvalues --    0.10119   0.10634   0.10911   0.11545   0.12017

 Mulliken charges and spin densities:
               1          2
     1  C   -0.226522  -0.177125
     2  C    0.204686  -0.876027
     3  C   -0.904905   0.913101
     4  C    0.351267  -0.897037
     5  C    0.381694  -0.617200
     6  N    0.207719   0.017653
     7  C   -0.911287   0.196810
     8  C   -0.270548  -0.251652
     9  C    3.596628  -3.787458
    10  C   -0.247200   1.403639
    11  C   -2.197383   1.885880
    12  C    0.417022  -0.746431
    13  C    0.903802  -1.259152
    14  C    0.684095  -1.056799
    15  C   -1.350515   1.220589
    16  C    0.546575  -0.177372
    17  O   -0.343772   0.017871
    18  O   -0.234318   0.032455
    19  H   -0.096862   0.285243
    20  H    0.123753   0.013896
    21  H   -0.039525   0.192560
    22  H   -0.116769   0.267830
    23  H    0.312233  -0.121271
    24  H   -0.439391   0.640859
    25  H   -0.016332   0.161035
    26  H    0.198885  -0.014058
    27  H    0.067623   0.134340
    28  H   -0.026942   0.220781
    29  H    0.378405  -0.230190
    30  H   -0.007681   0.199242
    31  H    0.159607   0.085567
    32  H   -0.226049   0.400377
    33  H   -0.419576   0.598689
    34  H   -0.311863   0.468182
    35  H   -0.594205   0.774318
    36  H   -0.535487   0.722414
    37  H   -0.016861   0.358440
 Sum of Mulliken charges =  -1.00000   1.00000

 Dipole moment (field-independent basis, Debye):
    X=              3.1466    Y=             -0.3000    Z=              1.6866  Tot=              3.5827
 Quadrupole moment (field-independent basis, Debye-Ang):
   XX=           -199.8614   YY=           -156.4389   ZZ=           -147.1444
   XY=              4.6617   XZ=              0.5310   YZ=              4.9500

 Summary of Natural Population Analysis:

                                       Natural Population
                Natural  -----------------------------------------------
    Atom  No    Charge         Core      Valence    Rydberg      Total
 -----------------------------------------------------------------------
      C    1   -0.19041      0.99964     2.18392    0.00686     3.19041
      C    2   -0.19063      0.99963     2.18302    0.00799     3.19063
      C    3   -0.11558      0.99955     2.10436    0.01168     3.11558
      C    4   -0.19204      0.99961     2.18374    0.00869     3.19204
      C    5   -0.07811      0.99962     2.06825    0.01024     3.07811
      N    6   -0.27382      0.99960     2.76208    0.01214     3.77382
      C    7    0.09530      0.99954     1.89046    0.01470     2.90470
      C    8   -0.20194      0.99956     2.19362    0.00876     3.20194
      C    9   -0.20663      0.99954     2.19567    0.01142     3.20663
      C   10   -0.01331      0.99950     2.00291    0.01090     3.01331
      C   11   -0.10038      0.99951     2.09151    0.00936     3.10038
      C   12   -0.10043      0.99956     2.09042    0.01045     3.10043
      C   13   -0.10166      0.99956     2.09236    0.00975     3.10166
      C   14   -0.09773      0.99956     2.08758    0.01059     3.09773
      C   15   -0.10078      0.99951     2.09135    0.00992     3.10078
      C   16    0.46242      0.99966     1.51317    0.02476     2.53758
      O   17   -0.34021      0.99987     3.33517    0.00517     4.34021
      O   18   -0.35517      0.99988     3.34906    0.00623     4.35517
      H   19    0.09976      0.00000     0.39939    0.00085     0.40024
      H   20    0.09437      0.00000     0.40403    0.00160     0.40563
      H   21    0.10086      0.00000     0.39805    0.00109     0.39914
      H   22    0.09887      0.00000     0.40007    0.00106     0.40113
      H   23    0.11213      0.00000     0.38573    0.00214     0.38787
      H   24    0.10496      0.00000     0.39396    0.00108     0.39504
      H   25    0.10157      0.00000     0.39686    0.00157     0.39843
      H   26    0.09207      0.00000     0.40689    0.00104     0.40793
      H   27    0.10638      0.00000     0.39272    0.00091     0.39362
      H   28    0.11161      0.00000     0.38702    0.00137     0.38839
      H   29    0.10528      0.00000     0.39317    0.00154     0.39472
      H   30    0.10517      0.00000     0.39305    0.00177     0.39483
      H   31    0.11565      0.00000     0.38256    0.00179     0.38435
      H   32    0.10211      0.00000     0.39638    0.00151     0.39789
      H   33    0.10092      0.00000     0.39804    0.00105     0.39908
      H   34    0.10127      0.00000     0.39749    0.00124     0.39873
      H   35    0.10239      0.00000     0.39616    0.00145     0.39761
      H   36    0.10191      0.00000     0.39618    0.00191     0.39809
      H   37    0.24384      0.00000     0.25172    0.00444     0.25616
 =======================================================================
   * Total *   -0.00000     17.99288    47.78811    0.21901    66.00000

 Normal termination of Gaussian 16 at Fri Dec 11 20:31:41 2020.
