 Gaussian 16, Revision A.03,

 -----------------------------------------------------------
 # opt freq B3LYP/6-31G(d) empiricaldispersion=gd3bj scf=xqc
 -----------------------------------------------------------

 -------------------------------
 CID_130846063_JID_1878_neutraal
 -------------------------------
 Symbolic Z-matrix:
 Charge =  0 Multiplicity = 1

 SCF Done:  E(RB3LYP) =  -820.980915752     A.U. after   14 cycles
 SCF Done:  E(RB3LYP) =  -820.987620685     A.U. after   12 cycles
 SCF Done:  E(RB3LYP) =  -820.989666722     A.U. after   13 cycles
 SCF Done:  E(RB3LYP) =  -820.990883047     A.U. after   12 cycles
 SCF Done:  E(RB3LYP) =  -820.991465358     A.U. after   13 cycles
 SCF Done:  E(RB3LYP) =  -820.991779498     A.U. after   11 cycles
 SCF Done:  E(RB3LYP) =  -820.991840762     A.U. after   11 cycles
 SCF Done:  E(RB3LYP) =  -820.991871910     A.U. after   11 cycles
 SCF Done:  E(RB3LYP) =  -820.991877086     A.U. after   10 cycles
 SCF Done:  E(RB3LYP) =  -820.991878414     A.U. after    8 cycles
 SCF Done:  E(RB3LYP) =  -820.991879425     A.U. after    7 cycles
 SCF Done:  E(RB3LYP) =  -820.991879571     A.U. after    7 cycles
 SCF Done:  E(RB3LYP) =  -820.991879652     A.U. after    7 cycles
 SCF Done:  E(RB3LYP) =  -820.991879735     A.U. after    7 cycles
 SCF Done:  E(RB3LYP) =  -820.991879794     A.U. after    7 cycles
 SCF Done:  E(RB3LYP) =  -820.991879815     A.U. after    6 cycles
 Optimization completed.
    -- Stationary point found.
 Normal termination of Gaussian 16 at Tue Dec  8 20:50:46 2020.

 --------------------------------------------------------------------
 #N Geom=AllCheck Guess=TCheck SCRF=Check GenChk RB3LYP/6-31G(d) Freq
 --------------------------------------------------------------------

 Structure from the checkpoint file:  "JID_1878.chk"
 -------------------------------
 CID_130846063_JID_1878_neutraal
 -------------------------------
 Charge =  0 Multiplicity = 1

 SCF Done:  E(RB3LYP) =  -820.991879815     A.U. after    1 cycles

  Exact polarizability: 145.545   0.932 106.783  -5.000  11.352  82.284
 Approx polarizability: 196.698  -3.891 171.937 -11.220  30.847 130.782

                      1                      2                      3
                      A                      A                      A
 Frequencies --     33.2249                75.7628                97.4175
 Red. masses --      3.8777                 3.3253                 2.6053
 Frc consts  --      0.0025                 0.0112                 0.0146
 IR Inten    --      0.0344                 0.7862                 1.2414

                      4                      5                      6
                      A                      A                      A
 Frequencies --    103.9737               142.6875               164.7524
 Red. masses --      1.1158                 3.7262                 1.7982
 Frc consts  --      0.0071                 0.0447                 0.0288
 IR Inten    --      0.2789                 0.7844                 2.9643

                      7                      8                      9
                      A                      A                      A
 Frequencies --    216.0252               246.6351               272.2720
 Red. masses --      1.7641                 2.2065                 1.8370
 Frc consts  --      0.0485                 0.0791                 0.0802
 IR Inten    --      0.1038                 3.6760                24.5835

                     10                     11                     12
                      A                      A                      A
 Frequencies --    285.1088               308.4325               335.1018
 Red. masses --      3.5772                 1.6833                 2.8593
 Frc consts  --      0.1713                 0.0943                 0.1892
 IR Inten    --      0.8120                29.9293                 2.7348

                     13                     14                     15
                      A                      A                      A
 Frequencies --    350.7647               428.1406               482.9623
 Red. masses --      3.0477                 3.6780                 4.3488
 Frc consts  --      0.2209                 0.3972                 0.5976
 IR Inten    --      2.5939                 3.3983                 3.6389

                     16                     17                     18
                      A                      A                      A
 Frequencies --    557.9803               584.7561               620.9244
 Red. masses --      5.2129                 3.0825                 3.5513
 Frc consts  --      0.9562                 0.6210                 0.8067
 IR Inten    --      4.0804                 9.9757                 8.9567

                     19                     20                     21
                      A                      A                      A
 Frequencies --    682.4269               743.2943               789.3822
 Red. masses --      4.9556                 2.3560                 1.3478
 Frc consts  --      1.3598                 0.7669                 0.4948
 IR Inten    --      3.3379                35.1026                 8.0542

                     22                     23                     24
                      A                      A                      A
 Frequencies --    806.5737               846.3361               855.1727
 Red. masses --      2.0963                 1.4863                 2.5993
 Frc consts  --      0.8035                 0.6272                 1.1200
 IR Inten    --     31.6826                32.3011                21.7773

                     25                     26                     27
                      A                      A                      A
 Frequencies --    885.7391               933.2301               958.4128
 Red. masses --      1.6986                 1.8422                 2.0311
 Frc consts  --      0.7852                 0.9453                 1.0992
 IR Inten    --     89.2693                49.0056                 8.2865

                     28                     29                     30
                      A                      A                      A
 Frequencies --    999.4027              1017.5695              1057.6638
 Red. masses --      2.1939                 1.6136                 1.5354
 Frc consts  --      1.2911                 0.9844                 1.0120
 IR Inten    --      5.8448                 0.6283                 4.9006

                     31                     32                     33
                      A                      A                      A
 Frequencies --   1071.7344              1096.1624              1127.0646
 Red. masses --      1.3965                 2.4100                 1.7008
 Frc consts  --      0.9451                 1.7061                 1.2729
 IR Inten    --      0.8123                 3.6951                 7.8989

                     34                     35                     36
                      A                      A                      A
 Frequencies --   1136.2647              1175.1756              1185.8722
 Red. masses --      2.0263                 1.7808                 1.5423
 Frc consts  --      1.5414                 1.4490                 1.2779
 IR Inten    --     24.6742                 2.5273                30.1056

                     37                     38                     39
                      A                      A                      A
 Frequencies --   1195.5040              1208.9972              1245.4319
 Red. masses --      1.3789                 2.1917                 1.6894
 Frc consts  --      1.1612                 1.8875                 1.5440
 IR Inten    --      4.4326                29.0396                 4.7516

                     40                     41                     42
                      A                      A                      A
 Frequencies --   1311.4206              1345.2912              1363.9302
 Red. masses --      1.3445                 1.4797                 1.4549
 Frc consts  --      1.3624                 1.5778                 1.5947
 IR Inten    --     17.7221                 8.1159                13.7129

                     43                     44                     45
                      A                      A                      A
 Frequencies --   1414.7990              1431.4455              1444.5987
 Red. masses --      2.3377                 1.4684                 1.2735
 Frc consts  --      2.7569                 1.7728                 1.5658
 IR Inten    --      8.9180                 9.3342                 0.6055

                     46                     47                     48
                      A                      A                      A
 Frequencies --   1483.2790              1508.4484              1514.3901
 Red. masses --      1.1731                 1.0428                 1.6630
 Frc consts  --      1.5207                 1.3980                 2.2471
 IR Inten    --      3.9729                 6.6911                18.4848

                     49                     50                     51
                      A                      A                      A
 Frequencies --   1517.1311              1524.6178              1538.0755
 Red. masses --      1.1373                 1.1347                 1.8355
 Frc consts  --      1.5424                 1.5541                 2.5584
 IR Inten    --     18.8708                 3.7057                 3.8314

                     52                     53                     54
                      A                      A                      A
 Frequencies --   1545.7202              1549.6653              1627.3235
 Red. masses --      1.1646                 1.0663                 5.9889
 Frc consts  --      1.6395                 1.5087                 9.3443
 IR Inten    --      7.2174                18.3544                 5.4658

                     55                     56                     57
                      A                      A                      A
 Frequencies --   1689.1207              2961.1178              2975.4169
 Red. masses --      1.0897                 1.0599                 1.0729
 Frc consts  --      1.8318                 5.4754                 5.5965
 IR Inten    --     32.4570                94.5323                72.7145

                     58                     59                     60
                      A                      A                      A
 Frequencies --   3028.3168              3043.7638              3071.6124
 Red. masses --      1.0841                 1.0363                 1.0737
 Frc consts  --      5.8574                 5.6569                 5.9684
 IR Inten    --     30.9718                40.3106                53.7758

                     61                     62                     63
                      A                      A                      A
 Frequencies --   3083.3201              3095.1136              3118.2277
 Red. masses --      1.0885                 1.1017                 1.1021
 Frc consts  --      6.0970                 6.2183                 6.3138
 IR Inten    --     50.8031                17.5214                34.9837

                     64                     65                     66
                      A                      A                      A
 Frequencies --   3126.0741              3202.3404              3293.6027
 Red. masses --      1.1009                 1.0918                 1.0931
 Frc consts  --      6.3387                 6.5969                 6.9863
 IR Inten    --     14.1238                10.4142                 2.2356

                     67                     68                     69
                      A                      A                      A
 Frequencies --   3473.1666              3475.7736              3564.0618
 Red. masses --      1.0730                 1.0500                 1.0925
 Frc consts  --      7.6259                 7.4741                 8.1762
 IR Inten    --      8.6093                 0.8881                 0.1438

 - Thermochemistry -
 -------------------
 Temperature   298.150 Kelvin.  Pressure   1.00000 Atm.
 Atom     1 has atomic number  6 and mass  12.00000

 Molecular mass:   170.08777 amu.
 Principal axes and moments of inertia in atomic units:
                           1         2         3
     Eigenvalues --  1009.485783307.703253806.18018
           X            0.99973   0.02319   0.00210
           Y           -0.02318   0.99971  -0.00685
           Z           -0.00226   0.00680   0.99997
 This molecule is an asymmetric top.
 Rotational symmetry number  1.
 Warning -- assumption of classical behavior for rotation
           may cause significant error
 Rotational temperatures (Kelvin)      0.08580     0.02619     0.02276
 Rotational constants (GHZ):           1.78778     0.54562     0.47416
 Zero-point vibrational energy     566105.8 (Joules/Mol)
                                  135.30253 (Kcal/Mol)
 Warning -- explicit consideration of  17 degrees of freedom as
           vibrations may cause significant error
 Vibrational temperatures:     47.80   109.01   140.16   149.60   205.30
          (Kelvin)            237.04   310.81   354.85   391.74   410.21
                              443.77   482.14   504.67   616.00   694.88
                              802.81   841.33   893.37   981.86  1069.43
                             1135.74  1160.48  1217.69  1230.40  1274.38
                             1342.71  1378.94  1437.92  1464.06  1521.74
                             1541.99  1577.13  1621.59  1634.83  1690.82
                             1706.21  1720.06  1739.48  1791.90  1886.84
                             1935.57  1962.39  2035.58  2059.53  2078.46
                             2134.11  2170.32  2178.87  2182.81  2193.59
                             2212.95  2223.95  2229.62  2341.36  2430.27
                             4260.39  4280.96  4357.07  4379.30  4419.37
                             4436.21  4453.18  4486.43  4497.72  4607.45
                             4738.76  4997.11  5000.86  5127.89

 Zero-point correction=                           0.215618 (Hartree/Particle)
 Thermal correction to Energy=                    0.227960
 Thermal correction to Enthalpy=                  0.228904
 Thermal correction to Gibbs Free Energy=         0.176534
 Sum of electronic and zero-point Energies=           -820.776262
 Sum of electronic and thermal Energies=              -820.763920
 Sum of electronic and thermal Enthalpies=            -820.762976
 Sum of electronic and thermal Free Energies=         -820.815346

                     E (Thermal)             CV                S
                      KCal/Mol        Cal/Mol-Kelvin    Cal/Mol-Kelvin
 Total                  143.047             45.273            110.221
 Electronic               0.000              0.000              0.000
 Translational            0.889              2.981             41.301
 Rotational               0.889              2.981             30.920
 Vibrational            141.269             39.312             38.000
 Vibration     1          0.594              1.983              5.627
 Vibration     2          0.599              1.965              3.998
 Vibration     3          0.603              1.951              3.505
 Vibration     4          0.605              1.946              3.378
 Vibration     5          0.616              1.911              2.768
 Vibration     6          0.623              1.886              2.495
 Vibration     7          0.645              1.817              1.992
 Vibration     8          0.661              1.768              1.755
 Vibration     9          0.675              1.724              1.582
 Vibration    10          0.683              1.701              1.503
 Vibration    11          0.698              1.658              1.371
 Vibration    12          0.716              1.605              1.235
 Vibration    13          0.728              1.574              1.163
 Vibration    14          0.790              1.409              0.865
 Vibration    15          0.839              1.288              0.702
 Vibration    16          0.914              1.122              0.528
 Vibration    17          0.942              1.064              0.477

 Optimization completed.
    -- Stationary point found.
 Normal termination of Gaussian 16 at Tue Dec  8 20:57:16 2020.

 ----------------------------------------------------------------------
 # B3LYP/6-311++G(d,p) empiricaldispersion=gd3bj scf=xqc pop=npa geom=c
 heck
 ----------------------------------------------------------------------

 ---------------------------------------
 CID_130846063_JID_1878_Energie_neutraal
 ---------------------------------------
 Structure from the checkpoint file:  "JID_1878.chk"
 Charge =  0 Multiplicity = 1

 SCF Done:  E(RB3LYP) =  -821.145858500     A.U. after   15 cycles
 Normal termination of Gaussian 16 at Tue Dec  8 21:01:08 2020.

 ----------------------------------------------------------------------
 # B3LYP/6-311++G(d,p) empiricaldispersion=gd3bj scf=xqc pop=npa geom=c
 heck
 ----------------------------------------------------------------------

 -------------------------------------
 CID_130846063_JID_1878_Energie_kation
 -------------------------------------
 Structure from the checkpoint file:  "JID_1878.chk"
 Charge =  1 Multiplicity = 2

 SCF Done:  E(UB3LYP) =  -820.857443316     A.U. after   29 cycles
 Normal termination of Gaussian 16 at Tue Dec  8 21:10:03 2020.
 Gaussian 16:  ES64L-G16RevA.03 25-Dec-2016

 ----------------------------------------------------------------------
 # B3LYP/6-311++G(d,p) empiricaldispersion=gd3bj scf=xqc pop=npa geom=c
 heck
 ----------------------------------------------------------------------

 ------------------------------------
 CID_130846063_JID_1878_Energie_anion
 ------------------------------------
 Structure from the checkpoint file:  "JID_1878.chk"
 Charge = -1 Multiplicity = 2

                         Standard orientation:
 ---------------------------------------------------------------------
 Center     Atomic      Atomic             Coordinates (Angstroms)
 Number     Number       Type             X           Y           Z
 ---------------------------------------------------------------------
      1          6           0        3.635152    1.000102    0.484548
      2          6           0        2.313471    0.326145    0.274899
      3          6           0        1.069397    0.765514    0.636704
      4          6           0        0.002653   -0.135476    0.292088
      5          6           0        0.469827   -1.254988   -0.336954
      6         16           0        2.199068   -1.231381   -0.514889
      7          6           0       -1.465058    0.125964    0.573614
      8          6           0       -1.866741    1.534780    0.075928
      9          7           0       -1.740655    1.578301   -1.382988
     10          7           0       -2.292155   -0.926788   -0.018290
     11          6           0       -3.614921   -1.048538    0.581338
     12          1           0        4.308620    0.396034    1.104504
     13          1           0        4.150574    1.195631   -0.463646
     14          1           0        3.485415    1.959623    0.989367
     15          1           0        0.918660    1.709964    1.150576
     16          1           0       -0.118550   -2.090860   -0.684079
     17          1           0       -1.620727    0.098971    1.661655
     18          1           0       -2.917171    1.714855    0.331049
     19          1           0       -1.274818    2.299310    0.607672
     20          1           0       -2.091548    2.462215   -1.743897
     21          1           0       -0.755326    1.523352   -1.637403
     22          1           0       -2.388830   -0.691208   -1.006532
     23          1           0       -4.217061   -0.121752    0.584964
     24          1           0       -4.182943   -1.811765    0.039616
     25          1           0       -3.514386   -1.383879    1.620335
 ---------------------------------------------------------------------

 SCF Done:  E(UB3LYP) =  -821.131861623     A.U. after   32 cycles

 The electronic state is 2-A.
 Alpha  occ. eigenvalues --  -88.76729 -14.19034 -14.18762 -10.10223 -10.10059
 Alpha  occ. eigenvalues --  -10.08591 -10.08447 -10.08399 -10.07626 -10.07361
 Alpha  occ. eigenvalues --  -10.06650  -7.85373  -5.81655  -5.81299  -5.80969
 Alpha  occ. eigenvalues --   -0.81468  -0.77352  -0.76800  -0.66924  -0.64491
 Alpha  occ. eigenvalues --   -0.60488  -0.57303  -0.55532  -0.49733  -0.44227
 Alpha  occ. eigenvalues --   -0.43449  -0.40832  -0.38025  -0.36662  -0.34921
 Alpha  occ. eigenvalues --   -0.33153  -0.32841  -0.32054  -0.31279  -0.29050
 Alpha  occ. eigenvalues --   -0.28635  -0.27894  -0.27460  -0.26031  -0.24913
 Alpha  occ. eigenvalues --   -0.24788  -0.22882  -0.14742  -0.14223  -0.12591
 Alpha  occ. eigenvalues --   -0.12342   0.04515
 Alpha virt. eigenvalues --    0.06483   0.07531   0.08032   0.08397   0.08892
 Alpha virt. eigenvalues --    0.09592   0.10254   0.10699   0.11062   0.11813
 Alpha virt. eigenvalues --    0.11932   0.12802   0.13109   0.13671   0.14476

  Beta  occ. eigenvalues --  -88.76724 -14.19030 -14.18724 -10.10212 -10.10055
  Beta  occ. eigenvalues --  -10.08564 -10.08414 -10.08377 -10.07585 -10.07362
  Beta  occ. eigenvalues --  -10.06633  -7.85367  -5.81651  -5.81295  -5.80959
  Beta  occ. eigenvalues --   -0.81447  -0.77329  -0.76741  -0.66885  -0.64449
  Beta  occ. eigenvalues --   -0.60444  -0.57235  -0.55468  -0.49676  -0.44190
  Beta  occ. eigenvalues --   -0.43400  -0.40784  -0.37974  -0.36611  -0.34879
  Beta  occ. eigenvalues --   -0.33117  -0.32788  -0.31998  -0.31243  -0.29017
  Beta  occ. eigenvalues --   -0.28598  -0.27853  -0.27418  -0.26000  -0.24884
  Beta  occ. eigenvalues --   -0.24740  -0.22857  -0.14704  -0.14184  -0.12550
  Beta  occ. eigenvalues --   -0.12278
  Beta virt. eigenvalues --    0.06832   0.07254   0.08116   0.08684   0.08757
  Beta virt. eigenvalues --    0.09133   0.10211   0.10706   0.11071   0.11540
  Beta virt. eigenvalues --    0.12127   0.12280   0.13063   0.13333   0.13691

 Mulliken charges and spin densities:
               1          2
     1  C    2.208993  -2.302765
     2  C    0.066185  -0.002379
     3  C   -2.331295   2.401400
     4  C    1.057641  -2.335040
     5  C   -0.104608   1.538909
     6  S   -0.316789  -0.471215
     7  C   -1.253315   0.570126
     8  C    2.046505  -2.580886
     9  N   -0.588975   0.161194
    10  N    0.047473  -0.023813
    11  C    0.559375  -0.869738
    12  H   -0.082590   0.234540
    13  H   -0.355434   0.519771
    14  H   -0.495018   0.665350
    15  H   -0.495389   0.677730
    16  H    0.047019   0.240818
    17  H   -0.038779   0.196990
    18  H   -0.293327   0.468048
    19  H   -0.520412   0.635195
    20  H   -0.201166   0.452523
    21  H    0.153057   0.097198
    22  H    0.273984  -0.032015
    23  H   -0.141158   0.259705
    24  H   -0.037865   0.154423
    25  H   -0.204114   0.343930
 Sum of Mulliken charges =  -1.00000   1.00000

 Dipole moment (field-independent basis, Debye):
    X=              0.8302    Y=             -6.0157    Z=             -0.6067  Tot=              6.1029
 Quadrupole moment (field-independent basis, Debye-Ang):
   XX=           -143.8634   YY=           -123.4247   ZZ=           -105.3354
   XY=             -1.6754   XZ=             -0.4865   YZ=              1.0527

 Summary of Natural Population Analysis:

                                       Natural Population
                Natural  -----------------------------------------------
    Atom  No    Charge         Core      Valence    Rydberg      Total
 -----------------------------------------------------------------------
      C    1   -0.29854      0.99961     2.29183    0.00710     3.29854
      C    2   -0.09251      0.99952     2.07982    0.01317     3.09251
      C    3   -0.13112      0.99941     2.11948    0.01223     3.13112
      C    4   -0.04562      0.99946     2.03245    0.01371     3.04562
      C    5   -0.18571      0.99944     2.17650    0.00977     3.18571
      S    6    0.18793      4.99941     2.79274    0.01993     7.81207
      C    7   -0.01747      0.99955     2.00292    0.01500     3.01747
      C    8   -0.09383      0.99962     2.08201    0.01220     3.09383
      N    9   -0.43278      0.99977     2.92162    0.01140     3.93278
      N   10   -0.34569      0.99975     2.83457    0.01138     3.84569
      C   11   -0.17457      0.99966     2.16827    0.00664     3.17457
      H   12    0.10290      0.00000     0.39602    0.00107     0.39710
      H   13    0.10691      0.00000     0.39143    0.00166     0.39309
      H   14    0.11132      0.00000     0.38683    0.00184     0.38868
      H   15    0.11044      0.00000     0.38786    0.00170     0.38956
      H   16    0.11726      0.00000     0.38142    0.00131     0.38274
      H   17    0.10060      0.00000     0.39798    0.00142     0.39940
      H   18    0.09366      0.00000     0.40418    0.00216     0.40634
      H   19    0.08469      0.00000     0.41225    0.00306     0.41531
      H   20    0.18114      0.00000     0.31607    0.00279     0.31886
      H   21    0.17842      0.00000     0.31951    0.00207     0.32158
      H   22    0.18164      0.00000     0.31480    0.00356     0.31836
      H   23    0.08012      0.00000     0.41794    0.00194     0.41988
      H   24    0.09168      0.00000     0.40741    0.00091     0.40832
      H   25    0.08912      0.00000     0.40950    0.00138     0.41088
 =======================================================================
   * Total *    0.00000     14.99517    30.84540    0.15942    46.00000

 Normal termination of Gaussian 16 at Tue Dec  8 21:19:25 2020.
