 Gaussian 16, Revision A.03,

 -----------------------------------------------------------
 # opt freq B3LYP/6-31G(d) empiricaldispersion=gd3bj scf=xqc
 -----------------------------------------------------------

 ------------------------------
 CID_24697461_JID_7344_neutraal
 ------------------------------
 Symbolic Z-matrix:
 Charge =  0 Multiplicity = 1

 SCF Done:  E(RB3LYP) =  -731.528982832     A.U. after   14 cycles
 SCF Done:  E(RB3LYP) =  -731.533566503     A.U. after   12 cycles
 SCF Done:  E(RB3LYP) =  -731.534153729     A.U. after   12 cycles
 SCF Done:  E(RB3LYP) =  -731.534394314     A.U. after   12 cycles
 SCF Done:  E(RB3LYP) =  -731.534516939     A.U. after   11 cycles
 SCF Done:  E(RB3LYP) =  -731.534629748     A.U. after   12 cycles
 SCF Done:  E(RB3LYP) =  -731.534807754     A.U. after   11 cycles
 SCF Done:  E(RB3LYP) =  -731.534982768     A.U. after   12 cycles
 SCF Done:  E(RB3LYP) =  -731.535027975     A.U. after   11 cycles
 SCF Done:  E(RB3LYP) =  -731.535050632     A.U. after   10 cycles
 SCF Done:  E(RB3LYP) =  -731.535051728     A.U. after    9 cycles
 SCF Done:  E(RB3LYP) =  -731.535052075     A.U. after    9 cycles
 SCF Done:  E(RB3LYP) =  -731.535052320     A.U. after    8 cycles
 SCF Done:  E(RB3LYP) =  -731.535052563     A.U. after    7 cycles
 SCF Done:  E(RB3LYP) =  -731.535052704     A.U. after    7 cycles
 Optimization completed.
    -- Stationary point found.
 Normal termination of Gaussian 16 at Mon Dec 14 13:19:54 2020.

 --------------------------------------------------------------------
 #N Geom=AllCheck Guess=TCheck SCRF=Check GenChk RB3LYP/6-31G(d) Freq
 --------------------------------------------------------------------

 Structure from the checkpoint file:  "JID_7344.chk"
 ------------------------------
 CID_24697461_JID_7344_neutraal
 ------------------------------
 Charge =  0 Multiplicity = 1

 SCF Done:  E(RB3LYP) =  -731.535052704     A.U. after    1 cycles

  Exact polarizability: 225.121  18.006 122.407   8.713  -6.558 141.411
 Approx polarizability: 290.311  33.639 178.864  12.224 -16.497 235.754

                      1                      2                      3
                      A                      A                      A
 Frequencies --     16.7288                25.5246                50.5985
 Red. masses --      5.0147                 3.5215                 4.1256
 Frc consts  --      0.0008                 0.0014                 0.0062
 IR Inten    --      0.7587                 0.4481                 1.9590

                      4                      5                      6
                      A                      A                      A
 Frequencies --     55.8837                65.4202                91.8932
 Red. masses --      3.4989                 4.3410                 3.5610
 Frc consts  --      0.0064                 0.0109                 0.0177
 IR Inten    --      0.0847                 1.0670                 1.0734

                      7                      8                      9
                      A                      A                      A
 Frequencies --    119.2359               160.5517               211.5596
 Red. masses --      4.3670                 3.6158                 3.1260
 Frc consts  --      0.0366                 0.0549                 0.0824
 IR Inten    --      1.1035                 2.0907                 9.1937

                     10                     11                     12
                      A                      A                      A
 Frequencies --    223.3476               237.1831               260.1714
 Red. masses --      1.4474                 2.6928                 1.9350
 Frc consts  --      0.0425                 0.0893                 0.0772
 IR Inten    --      1.7980                 0.1997                 0.5280

                     13                     14                     15
                      A                      A                      A
 Frequencies --    265.8914               282.6258               318.2184
 Red. masses --      2.2217                 1.2261                 2.2902
 Frc consts  --      0.0925                 0.0577                 0.1366
 IR Inten    --      0.7498                 0.1109                 0.7303

                     16                     17                     18
                      A                      A                      A
 Frequencies --    335.1435               354.1292               365.6873
 Red. masses --      1.0476                 2.4688                 2.4836
 Frc consts  --      0.0693                 0.1824                 0.1957
 IR Inten    --      0.0002                 2.9017                 0.5403

                     19                     20                     21
                      A                      A                      A
 Frequencies --    395.8609               424.4849               430.5921
 Red. masses --      1.2058                 3.1361                 2.8153
 Frc consts  --      0.1113                 0.3329                 0.3075
 IR Inten    --    105.8850                 0.0801                 4.2515

                     22                     23                     24
                      A                      A                      A
 Frequencies --    441.0471               445.3626               464.9735
 Red. masses --      2.9574                 3.4356                 2.2653
 Frc consts  --      0.3389                 0.4015                 0.2886
 IR Inten    --      1.2880                 1.5459                 7.4134

                     25                     26                     27
                      A                      A                      A
 Frequencies --    488.7241               526.3854               554.5155
 Red. masses --      2.8032                 2.7367                 2.7832
 Frc consts  --      0.3945                 0.4468                 0.5042
 IR Inten    --      8.1749                14.7801                34.6977

                     28                     29                     30
                      A                      A                      A
 Frequencies --    564.1517               582.3115               656.3049
 Red. masses --      2.2711                 1.4150                 6.6571
 Frc consts  --      0.4259                 0.2827                 1.6895
 IR Inten    --      8.3588               209.0952                 0.7181

                     31                     32                     33
                      A                      A                      A
 Frequencies --    687.1676               718.0909               741.8022
 Red. masses --      3.9726                 3.3599                 4.2195
 Frc consts  --      1.1052                 1.0208                 1.3680
 IR Inten    --      2.2363                48.0709                 2.1041

                     34                     35                     36
                      A                      A                      A
 Frequencies --    778.5573               824.3495               834.4819
 Red. masses --      2.0286                 1.3001                 3.2650
 Frc consts  --      0.7245                 0.5205                 1.3396
 IR Inten    --     17.1568                 3.4543                12.3865

                     37                     38                     39
                      A                      A                      A
 Frequencies --    846.4214               860.0278               867.8372
 Red. masses --      1.6393                 1.9200                 2.8949
 Frc consts  --      0.6920                 0.8367                 1.2846
 IR Inten    --     35.4930                 9.6137                 4.6889

                     40                     41                     42
                      A                      A                      A
 Frequencies --    889.9617               918.9767               938.1703
 Red. masses --      1.3524                 2.2419                 1.7355
 Frc consts  --      0.6311                 1.1155                 0.9000
 IR Inten    --     36.8140                 2.5237                 0.5566

                     43                     44                     45
                      A                      A                      A
 Frequencies --    950.3428               952.4892               958.4248
 Red. masses --      1.3358                 1.6989                 1.2960
 Frc consts  --      0.7108                 0.9081                 0.7014
 IR Inten    --      0.4094                 1.2127                 0.0128

                     46                     47                     48
                      A                      A                      A
 Frequencies --    974.7924               985.1378              1035.9393
 Red. masses --      1.1979                 2.1898                 2.7984
 Frc consts  --      0.6706                 1.2522                 1.7694
 IR Inten    --      0.1186                18.1851                 5.6220

                     49                     50                     51
                      A                      A                      A
 Frequencies --   1056.9641              1064.5589              1073.0792
 Red. masses --      1.4094                 1.3897                 1.8317
 Frc consts  --      0.9277                 0.9279                 1.2427
 IR Inten    --      0.4671                 0.0042                15.1153

                     52                     53                     54
                      A                      A                      A
 Frequencies --   1081.9350              1115.5134              1145.0035
 Red. masses --      2.1967                 2.2801                 1.9223
 Frc consts  --      1.5150                 1.6716                 1.4849
 IR Inten    --     75.2869                 6.1951                 1.9049

                     55                     56                     57
                      A                      A                      A
 Frequencies --   1150.1523              1159.1553              1184.7187
 Red. masses --      2.0384                 1.4778                 1.3769
 Frc consts  --      1.5887                 1.1699                 1.1386
 IR Inten    --     18.4286                 6.6085                76.7982

                     58                     59                     60
                      A                      A                      A
 Frequencies --   1215.0458              1222.6463              1243.8905
 Red. masses --      1.2484                 1.1830                 2.7045
 Frc consts  --      1.0859                 1.0419                 2.4655
 IR Inten    --      9.4039                56.5097                 3.7728

                     61                     62                     63
                      A                      A                      A
 Frequencies --   1246.7661              1254.2567              1299.2824
 Red. masses --      2.4951                 1.2050                 4.2682
 Frc consts  --      2.2851                 1.1169                 4.2453
 IR Inten    --      0.1030                 2.9669               356.1780

                     64                     65                     66
                      A                      A                      A
 Frequencies --   1308.1985              1319.5721              1352.3095
 Red. masses --      2.9741                 1.1787                 4.3765
 Frc consts  --      2.9988                 1.2092                 4.7155
 IR Inten    --     20.1839                 6.5381                28.9455

                     67                     68                     69
                      A                      A                      A
 Frequencies --   1355.5605              1366.6963              1393.6853
 Red. masses --      1.4995                 1.3444                 1.4901
 Frc consts  --      1.6235                 1.4795                 1.7053
 IR Inten    --      7.3150                 6.4543                19.3613

                     70                     71                     72
                      A                      A                      A
 Frequencies --   1426.2725              1426.7345              1445.1462
 Red. masses --      1.2517                 1.2221                 1.4125
 Frc consts  --      1.5003                 1.4657                 1.7381
 IR Inten    --      7.1114                 4.7120                29.3929

                     73                     74                     75
                      A                      A                      A
 Frequencies --   1458.5672              1465.9534              1468.3369
 Red. masses --      1.2212                 2.7742                 2.1491
 Frc consts  --      1.5307                 3.5126                 2.7300
 IR Inten    --      3.4550                 5.5672                44.1101

                     76                     77                     78
                      A                      A                      A
 Frequencies --   1507.5788              1512.4948              1516.4723
 Red. masses --      1.0933                 1.0498                 1.0457
 Frc consts  --      1.4640                 1.4149                 1.4168
 IR Inten    --      5.0201                 0.0127                 0.1371

                     79                     80                     81
                      A                      A                      A
 Frequencies --   1520.4369              1525.1868              1533.5478
 Red. masses --      1.0561                 1.1190                 1.0708
 Frc consts  --      1.4384                 1.5337                 1.4837
 IR Inten    --      3.4627                10.1157                13.3565

                     82                     83                     84
                      A                      A                      A
 Frequencies --   1538.2275              1543.6190              1550.6594
 Red. masses --      1.0507                 1.1429                 1.0626
 Frc consts  --      1.4647                 1.6044                 1.5054
 IR Inten    --      4.8253                77.9441                 8.2440

                     85                     86                     87
                      A                      A                      A
 Frequencies --   1571.2027              1634.7060              1657.2138
 Red. masses --      2.1236                 6.5465                 1.2985
 Frc consts  --      3.0887                10.3072                 2.1012
 IR Inten    --    104.4379                 5.2753                45.6548

                     88                     89                     90
                      A                      A                      A
 Frequencies --   1677.5612              1734.2352              3025.5483
 Red. masses --      5.7181                 4.8083                 1.0594
 Frc consts  --      9.4810                 8.5204                 5.7137
 IR Inten    --     59.1167               215.8367                23.1819

                     91                     92                     93
                      A                      A                      A
 Frequencies --   3043.2311              3043.9905              3049.7622
 Red. masses --      1.0354                 1.0349                 1.0625
 Frc consts  --      5.6499                 5.6497                 5.8225
 IR Inten    --     27.3063                26.4429                38.6367

                     94                     95                     96
                      A                      A                      A
 Frequencies --   3051.8068              3067.0015              3074.5925
 Red. masses --      1.0364                 1.0674                 1.1042
 Frc consts  --      5.6869                 5.9157                 6.1498
 IR Inten    --     27.6313                32.9378                15.0017

                     97                     98                     99
                      A                      A                      A
 Frequencies --   3098.1945              3109.1679              3110.3716
 Red. masses --      1.1013                 1.1016                 1.1021
 Frc consts  --      6.2286                 6.2742                 6.2817
 IR Inten    --     37.7194                 5.3130                 7.1485

                    100                    101                    102
                      A                      A                      A
 Frequencies --   3116.7907              3118.4732              3122.9151
 Red. masses --      1.1029                 1.1013                 1.1022
 Frc consts  --      6.3125                 6.3103                 6.3336
 IR Inten    --     21.9672               103.8285                25.3764

                    103                    104                    105
                      A                      A                      A
 Frequencies --   3125.1281              3131.2478              3190.6445
 Red. masses --      1.1017                 1.0982                 1.0879
 Frc consts  --      6.3392                 6.3439                 6.5251
 IR Inten    --     41.2890                17.8083                20.7722

                    106                    107                    108
                      A                      A                      A
 Frequencies --   3204.3118              3225.4542              3228.6338
 Red. masses --      1.0883                 1.0919                 1.0916
 Frc consts  --      6.5837                 6.6932                 6.7044
 IR Inten    --      7.4094                17.8898                 7.8668

                    109                    110                    111
                      A                      A                      A
 Frequencies --   3481.0803              3560.6777              3675.0796
 Red. masses --      1.0750                 1.0467                 1.1002
 Frc consts  --      7.6750                 7.8187                 8.7551
 IR Inten    --      0.9755                15.4896                13.7095

 - Thermochemistry -
 -------------------
 Temperature   298.150 Kelvin.  Pressure   1.00000 Atm.
 Atom     1 has atomic number  6 and mass  12.00000

 Molecular mass:   234.17321 amu.
 Principal axes and moments of inertia in atomic units:
                           1         2         3
     Eigenvalues --  1505.83322********************
           X            0.99996   0.00836   0.00226
           Y           -0.00832   0.99979  -0.01850
           Z           -0.00241   0.01848   0.99983
 This molecule is an asymmetric top.
 Rotational symmetry number  1.
 Warning -- assumption of classical behavior for rotation
           may cause significant error
 Rotational temperatures (Kelvin)      0.05752     0.00823     0.00803
 Rotational constants (GHZ):           1.19850     0.17156     0.16734
 Zero-point vibrational energy     905302.3 (Joules/Mol)
                                  216.37244 (Kcal/Mol)
 Warning -- explicit consideration of  29 degrees of freedom as
           vibrations may cause significant error
 Vibrational temperatures:     24.07    36.72    72.80    80.40    94.13
          (Kelvin)            132.21   171.55   231.00   304.39   321.35
                              341.25   374.33   382.56   406.64   457.85
                              482.20   509.51   526.14   569.56   610.74
                              619.53   634.57   640.78   668.99   703.17
                              757.35   797.82   811.69   837.82   944.28
                              988.68  1033.17  1067.29  1120.17  1186.06
                             1200.63  1217.81  1237.39  1248.62  1280.46
                             1322.20  1349.82  1367.33  1370.42  1378.96
                             1402.51  1417.39  1490.49  1520.74  1531.66
                             1543.92  1556.66  1604.97  1647.40  1654.81
                             1667.77  1704.55  1748.18  1759.12  1789.68
                             1793.82  1804.60  1869.38  1882.21  1898.57
                             1945.67  1950.35  1966.37  2005.20  2052.09
                             2052.75  2079.24  2098.55  2109.18  2112.61
                             2169.07  2176.14  2181.87  2187.57  2194.40
                             2206.43  2213.17  2220.92  2231.05  2260.61
                             2351.98  2384.36  2413.64  2495.18  4353.09
                             4378.53  4379.62  4387.93  4390.87  4412.73
                             4423.65  4457.61  4473.40  4475.13  4484.37
                             4486.79  4493.18  4496.36  4505.17  4590.63
                             4610.29  4640.71  4645.28  5008.50  5123.02
                             5287.62

 Zero-point correction=                           0.344811 (Hartree/Particle)
 Thermal correction to Energy=                    0.362753
 Thermal correction to Enthalpy=                  0.363698
 Thermal correction to Gibbs Free Energy=         0.297382
 Sum of electronic and zero-point Energies=           -731.190241
 Sum of electronic and thermal Energies=              -731.172299
 Sum of electronic and thermal Enthalpies=            -731.171355
 Sum of electronic and thermal Free Energies=         -731.237670

                     E (Thermal)             CV                S
                      KCal/Mol        Cal/Mol-Kelvin    Cal/Mol-Kelvin
 Total                  227.631             69.119            139.572
 Electronic               0.000              0.000              0.000
 Translational            0.889              2.981             42.254
 Rotational               0.889              2.981             33.501
 Vibrational            225.854             63.158             63.816
 Vibration     1          0.593              1.986              6.989
 Vibration     2          0.593              1.985              6.150
 Vibration     3          0.595              1.977              4.794
 Vibration     4          0.596              1.975              4.598
 Vibration     5          0.597              1.971              4.287
 Vibration     6          0.602              1.955              3.619
 Vibration     7          0.609              1.933              3.113
 Vibration     8          0.622              1.891              2.543
 Vibration     9          0.643              1.823              2.030
 Vibration    10          0.649              1.806              1.932
 Vibration    11          0.656              1.784              1.824
 Vibration    12          0.668              1.746              1.661
 Vibration    13          0.672              1.736              1.623
 Vibration    14          0.682              1.706              1.518
 Vibration    15          0.705              1.639              1.319
 Vibration    16          0.716              1.605              1.235
 Vibration    17          0.730              1.567              1.148
 Vibration    18          0.739              1.543              1.098
 Vibration    19          0.763              1.479              0.978
 Vibration    20          0.786              1.417              0.877
 Vibration    21          0.792              1.404              0.857
 Vibration    22          0.801              1.381              0.823
 Vibration    23          0.805              1.371              0.810
 Vibration    24          0.822              1.328              0.752
 Vibration    25          0.845              1.275              0.687
 Vibration    26          0.881              1.192              0.595
 Vibration    27          0.910              1.130              0.535
 Vibration    28          0.920              1.109              0.516
 Vibration    29          0.939              1.070              0.481

                           ! Non-Optimized Parameters !
 Normal termination of Gaussian 16 at Mon Dec 14 13:32:50 2020.

 ----------------------------------------------------------------------
 # B3LYP/6-311++G(d,p) empiricaldispersion=gd3bj scf=xqc pop=npa geom=c
 heck
 ----------------------------------------------------------------------

 --------------------------------------
 CID_24697461_JID_7344_Energie_neutraal
 --------------------------------------
 Structure from the checkpoint file:  "JID_7344.chk"
 Charge =  0 Multiplicity = 1

 SCF Done:  E(RB3LYP) =  -731.746305943     A.U. after   14 cycles
 Normal termination of Gaussian 16 at Mon Dec 14 13:39:43 2020.

 ----------------------------------------------------------------------
 # B3LYP/6-311++G(d,p) empiricaldispersion=gd3bj scf=xqc pop=npa geom=c
 heck
 ----------------------------------------------------------------------

 ------------------------------------
 CID_24697461_JID_7344_Energie_kation
 ------------------------------------
 Structure from the checkpoint file:  "JID_7344.chk"
 Charge =  1 Multiplicity = 2

 SCF Done:  E(UB3LYP) =  -731.463765265     A.U. after   26 cycles
 Normal termination of Gaussian 16 at Mon Dec 14 13:58:03 2020.
 Gaussian 16:  ES64L-G16RevA.03 25-Dec-2016

 ----------------------------------------------------------------------
 # B3LYP/6-311++G(d,p) empiricaldispersion=gd3bj scf=xqc pop=npa geom=c
 heck
 ----------------------------------------------------------------------

 -----------------------------------
 CID_24697461_JID_7344_Energie_anion
 -----------------------------------
 Structure from the checkpoint file:  "JID_7344.chk"
 Charge = -1 Multiplicity = 2

                         Standard orientation:
 ---------------------------------------------------------------------
 Center     Atomic      Atomic             Coordinates (Angstroms)
 Number     Number       Type             X           Y           Z
 ---------------------------------------------------------------------
      1          6           0        4.755463    0.233956    1.329679
      2          6           0        4.052392    0.333245   -0.034026
      3          6           0        4.177556    1.788074   -0.536105
      4          6           0        4.774785   -0.611870   -1.018419
      5          6           0        2.569338   -0.051886    0.048578
      6          6           0        1.945366   -0.445225    1.241288
      7          6           0        0.596963   -0.785242    1.284001
      8          6           0       -0.177750   -0.742385    0.121978
      9          6           0        0.417910   -0.355794   -1.082373
     10          6           0        1.770985   -0.018531   -1.101576
     11          8           0       -1.493261   -1.092140    0.261892
     12          6           0       -2.338583   -1.018570   -0.883286
     13          6           0       -3.749597   -1.366349   -0.429549
     14          6           0       -4.266006   -0.451688    0.700633
     15          6           0       -4.272710    1.011515    0.294016
     16          7           0       -3.290111    1.828566    0.403609
     17          7           0       -5.467023    1.453616   -0.250912
     18          1           0        5.808333    0.517194    1.223333
     19          1           0        4.724560   -0.786084    1.728469
     20          1           0        4.303968    0.905483    2.068270
     21          1           0        5.232383    2.080213   -0.605824
     22          1           0        3.729122    1.913644   -1.526820
     23          1           0        3.674338    2.479619    0.148446
     24          1           0        4.703060   -1.651938   -0.681578
     25          1           0        4.343675   -0.555353   -2.023118
     26          1           0        5.836615   -0.347967   -1.094003
     27          1           0        2.512071   -0.489760    2.164168
     28          1           0        0.124711   -1.087313    2.213618
     29          1           0       -0.155145   -0.310713   -2.000785
     30          1           0        2.206821    0.280314   -2.050594
     31          1           0       -2.306659   -0.005199   -1.301957
     32          1           0       -1.994934   -1.725488   -1.651288
     33          1           0       -4.410286   -1.306534   -1.304468
     34          1           0       -3.770537   -2.405212   -0.081116
     35          1           0       -5.273470   -0.767938    0.995264
     36          1           0       -3.617291   -0.571438    1.571829
     37          1           0       -2.511714    1.369760    0.879766
     38          1           0       -6.052873    0.770110   -0.710299
     39          1           0       -5.397399    2.340963   -0.734361
 ---------------------------------------------------------------------

 SCF Done:  E(UB3LYP) =  -731.737082949     A.U. after   33 cycles
 SCF Done:  E(UB3LYP) =  -731.737082949     a.u. after    1 cycles

 The electronic state is 2-A.
 Alpha  occ. eigenvalues --  -19.06479 -14.22287 -14.17568 -10.14724 -10.14637
 Alpha  occ. eigenvalues --  -10.13436 -10.10852 -10.09052 -10.08909 -10.08893
 Alpha  occ. eigenvalues --  -10.08743 -10.08730 -10.08626 -10.08518 -10.07826
 Alpha  occ. eigenvalues --  -10.07688 -10.07663  -0.98114  -0.84919  -0.77819
 Alpha  occ. eigenvalues --   -0.75230  -0.73563  -0.70607  -0.66651  -0.65006
 Alpha  occ. eigenvalues --   -0.61285  -0.60592  -0.60480  -0.54372  -0.52644
 Alpha  occ. eigenvalues --   -0.50564  -0.48129  -0.46791  -0.45496  -0.42923
 Alpha  occ. eigenvalues --   -0.40463  -0.39721  -0.39438  -0.36988  -0.36290
 Alpha  occ. eigenvalues --   -0.36053  -0.35083  -0.34507  -0.34213  -0.33600
 Alpha  occ. eigenvalues --   -0.32694  -0.31683  -0.31026  -0.30252  -0.29594
 Alpha  occ. eigenvalues --   -0.28683  -0.28454  -0.27422  -0.26279  -0.25796
 Alpha  occ. eigenvalues --   -0.25375  -0.24658  -0.24258  -0.23329  -0.22662
 Alpha  occ. eigenvalues --   -0.17195  -0.16696  -0.14854  -0.13537   0.03734
 Alpha virt. eigenvalues --    0.04843   0.06647   0.06812   0.07005   0.07497
 Alpha virt. eigenvalues --    0.07734   0.07887   0.08325   0.08988   0.09273
 Alpha virt. eigenvalues --    0.09591   0.10058   0.10332   0.11063   0.11210

  Beta  occ. eigenvalues --  -19.06472 -14.22231 -14.17560 -10.14724 -10.14636
  Beta  occ. eigenvalues --  -10.13423 -10.10850 -10.09051 -10.08903 -10.08884
  Beta  occ. eigenvalues --  -10.08737 -10.08694 -10.08609 -10.08514 -10.07806
  Beta  occ. eigenvalues --  -10.07671 -10.07643  -0.98105  -0.84873  -0.77810
  Beta  occ. eigenvalues --   -0.75169  -0.73550  -0.70570  -0.66636  -0.64987
  Beta  occ. eigenvalues --   -0.61253  -0.60557  -0.60444  -0.54326  -0.52621
  Beta  occ. eigenvalues --   -0.50518  -0.48051  -0.46765  -0.45464  -0.42873
  Beta  occ. eigenvalues --   -0.40434  -0.39698  -0.39420  -0.36964  -0.36260
  Beta  occ. eigenvalues --   -0.36028  -0.35056  -0.34474  -0.34189  -0.33579
  Beta  occ. eigenvalues --   -0.32669  -0.31658  -0.30988  -0.30220  -0.29567
  Beta  occ. eigenvalues --   -0.28662  -0.28431  -0.27399  -0.26234  -0.25770
  Beta  occ. eigenvalues --   -0.25350  -0.24639  -0.24228  -0.23306  -0.22645
  Beta  occ. eigenvalues --   -0.17183  -0.16679  -0.14815  -0.13529
  Beta virt. eigenvalues --    0.05368   0.06423   0.06887   0.06938   0.07513
  Beta virt. eigenvalues --    0.07847   0.07955   0.08239   0.08375   0.09391
  Beta virt. eigenvalues --    0.09408   0.09873   0.10165   0.10701   0.11317

 Mulliken charges and spin densities:
               1          2
     1  C   -0.104577  -0.374274
     2  C   -0.114360   0.585800
     3  C   -0.064430  -0.592133
     4  C    0.086646  -0.744439
     5  C    0.725243  -0.107903
     6  C   -0.835852   0.532221
     7  C   -0.416382   0.063739
     8  C   -0.136897  -0.493978
     9  C    0.884155  -0.536550
    10  C    0.065819  -0.330248
    11  O   -0.047969   0.010043
    12  C   -0.014565  -0.183375
    13  C    0.044227  -0.467521
    14  C    0.252841  -0.644599
    15  C    0.098720  -0.285389
    16  N   -0.278409  -0.079114
    17  N   -0.328556   0.121049
    18  H   -0.152930   0.321726
    19  H   -0.036747   0.166463
    20  H    0.023906   0.106148
    21  H   -0.011427   0.156295
    22  H   -0.045370   0.188390
    23  H    0.082325   0.061518
    24  H    0.058900   0.084645
    25  H   -0.095884   0.237846
    26  H   -0.110628   0.255980
    27  H    0.092634   0.062416
    28  H    0.020455   0.150847
    29  H   -0.133234   0.329029
    30  H    0.114632   0.040849
    31  H    0.187819  -0.019867
    32  H   -0.245337   0.406480
    33  H   -0.464197   0.643213
    34  H   -0.058695   0.233053
    35  H   -0.255864   0.449937
    36  H    0.226599  -0.069835
    37  H    0.241930  -0.044331
    38  H   -0.268249   0.521005
    39  H    0.013706   0.244866
 Sum of Mulliken charges =  -1.00000   1.00000

 Dipole moment (field-independent basis, Debye):
    X=              5.7887    Y=             -0.9088    Z=              2.5138  Tot=              6.3761
 Quadrupole moment (field-independent basis, Debye-Ang):
   XX=           -250.3173   YY=           -144.5001   ZZ=           -136.0569
   XY=              0.1906   XZ=             -8.1980   YZ=             -4.0937

 Summary of Natural Population Analysis:

                                       Natural Population
                Natural  -----------------------------------------------
    Atom  No    Charge         Core      Valence    Rydberg      Total
 -----------------------------------------------------------------------
      C    1   -0.28754      0.99964     2.28016    0.00774     3.28754
      C    2   -0.05242      0.99956     2.04152    0.01134     3.05242
      C    3   -0.27883      0.99963     2.27352    0.00569     3.27883
      C    4   -0.28049      0.99963     2.27374    0.00712     3.28049
      C    5   -0.02533      0.99948     2.01411    0.01175     3.02533
      C    6   -0.09615      0.99952     2.08876    0.00788     3.09615
      C    7   -0.11834      0.99953     2.10977    0.00904     3.11834
      C    8    0.15498      0.99939     1.83180    0.01382     2.84502
      C    9   -0.12170      0.99952     2.11700    0.00518     3.12170
      C   10   -0.09519      0.99954     2.08445    0.01119     3.09519
      O   11   -0.28259      0.99985     3.27260    0.01014     4.28259
      C   12   -0.01710      0.99956     2.00419    0.01335     3.01710
      C   13   -0.19297      0.99961     2.18308    0.01028     3.19297
      C   14   -0.22457      0.99957     2.21523    0.00976     3.22457
      C   15    0.22391      0.99966     1.75712    0.01931     2.77609
      N   16   -0.36992      0.99970     2.86248    0.00774     3.86992
      N   17   -0.40158      0.99970     2.89119    0.01069     3.90158
      H   18    0.10194      0.00000     0.39723    0.00083     0.39806
      H   19    0.10084      0.00000     0.39826    0.00091     0.39916
      H   20    0.10054      0.00000     0.39857    0.00088     0.39946
      H   21    0.09795      0.00000     0.40113    0.00092     0.40205
      H   22    0.10012      0.00000     0.39891    0.00097     0.39988
      H   23    0.10129      0.00000     0.39788    0.00083     0.39871
      H   24    0.10119      0.00000     0.39800    0.00081     0.39881
      H   25    0.10002      0.00000     0.39898    0.00100     0.39998
      H   26    0.09826      0.00000     0.40083    0.00091     0.40174
      H   27    0.10238      0.00000     0.39663    0.00100     0.39762
      H   28    0.10498      0.00000     0.39399    0.00103     0.39502
      H   29    0.10485      0.00000     0.39364    0.00151     0.39515
      H   30    0.09967      0.00000     0.39874    0.00159     0.40033
      H   31    0.09152      0.00000     0.40659    0.00189     0.40848
      H   32    0.08789      0.00000     0.41062    0.00150     0.41211
      H   33    0.10568      0.00000     0.39090    0.00342     0.39432
      H   34    0.10148      0.00000     0.39721    0.00131     0.39852
      H   35    0.10768      0.00000     0.39097    0.00135     0.39232
      H   36    0.10849      0.00000     0.39013    0.00138     0.39151
      H   37    0.16607      0.00000     0.33146    0.00246     0.33393
      H   38    0.19281      0.00000     0.30090    0.00629     0.30719
      H   39    0.19021      0.00000     0.30784    0.00195     0.30979
 =======================================================================
   * Total *    0.00003     16.99310    46.80013    0.20675    63.99997

 Normal termination of Gaussian 16 at Mon Dec 14 14:20:51 2020.
