 Gaussian 16, Revision A.03,

 -----------------------------------------------------------
 # opt freq B3LYP/6-31G(d) empiricaldispersion=gd3bj scf=xqc
 -----------------------------------------------------------

 --------------------------------
 CID_132308364_JID_10466_neutraal
 --------------------------------
 Symbolic Z-matrix:
 Charge =  0 Multiplicity = 1

 SCF Done:  E(RB3LYP) =  -882.958130565     A.U. after   15 cycles
 SCF Done:  E(RB3LYP) =  -882.941801166     A.U. after   13 cycles
 SCF Done:  E(RB3LYP) =  -882.965330663     A.U. after   13 cycles
 SCF Done:  E(RB3LYP) =  -882.965359385     A.U. after   13 cycles
 SCF Done:  E(RB3LYP) =  -882.966782602     A.U. after   13 cycles
 SCF Done:  E(RB3LYP) =  -882.967337577     A.U. after   12 cycles
 SCF Done:  E(RB3LYP) =  -882.967842912     A.U. after   12 cycles
 SCF Done:  E(RB3LYP) =  -882.968373659     A.U. after   13 cycles
 SCF Done:  E(RB3LYP) =  -882.968701601     A.U. after   12 cycles
 SCF Done:  E(RB3LYP) =  -882.968996161     A.U. after   12 cycles
 SCF Done:  E(RB3LYP) =  -882.969516503     A.U. after   10 cycles
 SCF Done:  E(RB3LYP) =  -882.969529230     A.U. after   10 cycles
 SCF Done:  E(RB3LYP) =  -882.969530157     A.U. after    8 cycles
 SCF Done:  E(RB3LYP) =  -882.969530441     A.U. after    9 cycles
 SCF Done:  E(RB3LYP) =  -882.969530538     A.U. after    8 cycles
 Optimization completed.
    -- Stationary point found.
 Normal termination of Gaussian 16 at Mon Dec 14 18:04:33 2020.

 --------------------------------------------------------------------
 #N Geom=AllCheck Guess=TCheck SCRF=Check GenChk RB3LYP/6-31G(d) Freq
 --------------------------------------------------------------------

 Structure from the checkpoint file:  "JID_10466.chk"
 --------------------------------
 CID_132308364_JID_10466_neutraal
 --------------------------------
 Charge =  0 Multiplicity = 1

 SCF Done:  E(RB3LYP) =  -882.969530538     A.U. after    1 cycles

  Exact polarizability: 221.405   6.969 164.993 -14.714  17.219 147.611
 Approx polarizability: 309.415   9.098 265.801 -35.236  50.278 245.865

                      1                      2                      3
                      A                      A                      A
 Frequencies --     26.2269                33.6402                52.7647
 Red. masses --      3.6723                 4.1396                 4.2847
 Frc consts  --      0.0015                 0.0028                 0.0070
 IR Inten    --      0.6406                 0.6866                 0.5128

                      4                      5                      6
                      A                      A                      A
 Frequencies --     76.1037                83.0960                94.4307
 Red. masses --      4.8680                 3.5024                 3.5677
 Frc consts  --      0.0166                 0.0142                 0.0187
 IR Inten    --      0.8936                 1.4639                 0.7895

                      7                      8                      9
                      A                      A                      A
 Frequencies --    105.0708               126.5338               180.0757
 Red. masses --      4.9986                 2.7259                 2.0508
 Frc consts  --      0.0325                 0.0257                 0.0392
 IR Inten    --      1.8537                 2.9778                 0.8239

                     10                     11                     12
                      A                      A                      A
 Frequencies --    197.6629               211.1178               224.8304
 Red. masses --      1.9567                 1.1953                 2.0897
 Frc consts  --      0.0450                 0.0314                 0.0622
 IR Inten    --      0.4725                 0.4045                 0.2172

                     13                     14                     15
                      A                      A                      A
 Frequencies --    243.6728               249.2880               259.9465
 Red. masses --      3.1922                 2.3395                 1.2232
 Frc consts  --      0.1117                 0.0857                 0.0487
 IR Inten    --      1.2327                 0.0830                 0.3451

                     16                     17                     18
                      A                      A                      A
 Frequencies --    273.7808               306.0935               317.5881
 Red. masses --      2.8991                 2.8862                 2.5831
 Frc consts  --      0.1280                 0.1593                 0.1535
 IR Inten    --      1.3252                 0.8104                 1.4717

                     19                     20                     21
                      A                      A                      A
 Frequencies --    352.4638               388.8841               397.6341
 Red. masses --      3.5761                 2.5446                 2.8084
 Frc consts  --      0.2618                 0.2267                 0.2616
 IR Inten    --      3.8625                 0.3062                 0.8274

                     22                     23                     24
                      A                      A                      A
 Frequencies --    403.4689               411.2806               418.3284
 Red. masses --      2.9565                 3.5934                 3.1260
 Frc consts  --      0.2836                 0.3581                 0.3223
 IR Inten    --      3.2667                 5.1017                 1.5060

                     25                     26                     27
                      A                      A                      A
 Frequencies --    462.6256               492.6968               503.1806
 Red. masses --      3.6788                 4.3079                 3.9325
 Frc consts  --      0.4639                 0.6161                 0.5866
 IR Inten    --      8.2322                 1.6621                 0.3327

                     28                     29                     30
                      A                      A                      A
 Frequencies --    533.9521               559.4441               584.5291
 Red. masses --      4.4339                 3.5141                 4.0272
 Frc consts  --      0.7448                 0.6480                 0.8107
 IR Inten    --      7.4189                 1.5353                13.2482

                     31                     32                     33
                      A                      A                      A
 Frequencies --    604.1219               653.2111               677.9747
 Red. masses --      4.1672                 3.8232                 2.4969
 Frc consts  --      0.8961                 0.9611                 0.6762
 IR Inten    --      1.7740                13.1690                17.3472

                     34                     35                     36
                      A                      A                      A
 Frequencies --    687.3913               724.6178               734.1063
 Red. masses --      1.7642                 3.4649                 3.3421
 Frc consts  --      0.4911                 1.0719                 1.0612
 IR Inten    --     31.3444                20.9059                 7.7632

                     37                     38                     39
                      A                      A                      A
 Frequencies --    763.8110               803.0174               819.0797
 Red. masses --      2.3362                 2.3784                 2.9197
 Frc consts  --      0.8030                 0.9036                 1.1541
 IR Inten    --     24.4955                14.6044                 3.5800

                     40                     41                     42
                      A                      A                      A
 Frequencies --    854.2195               869.5172               892.1190
 Red. masses --      2.0803                 3.0007                 2.3160
 Frc consts  --      0.8944                 1.3367                 1.0860
 IR Inten    --     61.2774                 3.1480                 2.9880

                     43                     44                     45
                      A                      A                      A
 Frequencies --    906.8152               914.0591               926.8666
 Red. masses --      1.7528                 2.4986                 1.2846
 Frc consts  --      0.8492                 1.2300                 0.6502
 IR Inten    --     20.9966                16.0727                 0.6583

                     46                     47                     48
                      A                      A                      A
 Frequencies --    939.4465               941.0973               960.5711
 Red. masses --      2.4989                 1.4000                 1.2118
 Frc consts  --      1.2994                 0.7305                 0.6588
 IR Inten    --      4.4701                 0.1723                 0.1878

                     49                     50                     51
                      A                      A                      A
 Frequencies --    962.4560               971.6593               987.1622
 Red. masses --      1.4452                 1.9149                 2.0822
 Frc consts  --      0.7887                 1.0652                 1.1955
 IR Inten    --      2.5049                 6.9420                 8.8713

                     52                     53                     54
                      A                      A                      A
 Frequencies --   1002.5637              1017.0426              1032.1443
 Red. masses --      1.3552                 2.4468                 1.8020
 Frc consts  --      0.8025                 1.4912                 1.1311
 IR Inten    --      1.6757                23.1446                12.7319

                     55                     56                     57
                      A                      A                      A
 Frequencies --   1041.0503              1045.9147              1086.4502
 Red. masses --      1.8909                 4.1902                 2.0938
 Frc consts  --      1.2075                 2.7007                 1.4562
 IR Inten    --      0.3569                16.7753                 2.0548

                     58                     59                     60
                      A                      A                      A
 Frequencies --   1123.0359              1159.1707              1163.9719
 Red. masses --      2.5269                 1.9909                 2.1965
 Frc consts  --      1.8777                 1.5761                 1.7534
 IR Inten    --      9.9794                11.6050                 6.6997

                     61                     62                     63
                      A                      A                      A
 Frequencies --   1164.9321              1179.7088              1181.9680
 Red. masses --      1.6615                 1.8882                 1.8502
 Frc consts  --      1.3284                 1.5483                 1.5229
 IR Inten    --     12.1752                72.2155                28.6299

                     64                     65                     66
                      A                      A                      A
 Frequencies --   1203.4040              1210.2513              1235.5774
 Red. masses --      1.9299                 1.9689                 1.0851
 Frc consts  --      1.6466                 1.6991                 0.9760
 IR Inten    --     91.6835                10.1898                 5.4654

                     67                     68                     69
                      A                      A                      A
 Frequencies --   1255.6097              1275.5654              1286.2286
 Red. masses --      1.5144                 2.4132                 1.7712
 Frc consts  --      1.4067                 2.3133                 1.7264
 IR Inten    --      5.5875                56.2980                88.6480

                     70                     71                     72
                      A                      A                      A
 Frequencies --   1317.2372              1322.0986              1361.8893
 Red. masses --      2.0857                 1.8359                 1.6442
 Frc consts  --      2.1322                 1.8907                 1.7968
 IR Inten    --     35.3518                50.5144                69.1181

                     73                     74                     75
                      A                      A                      A
 Frequencies --   1368.9389              1381.2764              1392.1846
 Red. masses --      1.4628                 2.7762                 1.3225
 Frc consts  --      1.6151                 3.1208                 1.5103
 IR Inten    --     53.4578               243.8920                 8.5862

                     76                     77                     78
                      A                      A                      A
 Frequencies --   1394.1662              1402.6031              1431.1495
 Red. masses --      1.5279                 1.5822                 1.3138
 Frc consts  --      1.7498                 1.8339                 1.5854
 IR Inten    --     15.8950                17.9145                 0.8080

                     79                     80                     81
                      A                      A                      A
 Frequencies --   1432.7768              1433.2473              1443.2179
 Red. masses --      1.3066                 1.4627                 1.2905
 Frc consts  --      1.5804                 1.7703                 1.5837
 IR Inten    --     12.5203                 2.1284                 9.5430

                     82                     83                     84
                      A                      A                      A
 Frequencies --   1450.1134              1475.8520              1495.8574
 Red. masses --      1.2518                 3.0914                 1.3495
 Frc consts  --      1.5509                 3.9672                 1.7791
 IR Inten    --     20.7711                79.4433                36.5384

                     85                     86                     87
                      A                      A                      A
 Frequencies --   1502.1214              1503.8315              1513.1465
 Red. masses --      1.3128                 1.7307                 1.0931
 Frc consts  --      1.7453                 2.3061                 1.4746
 IR Inten    --     12.8557                53.9195                 2.7448

                     88                     89                     90
                      A                      A                      A
 Frequencies --   1517.6394              1521.1502              1524.9160
 Red. masses --      1.0496                 1.0563                 1.0632
 Frc consts  --      1.4243                 1.4401                 1.4567
 IR Inten    --      0.5887                 0.4658                 1.7547

                     91                     92                     93
                      A                      A                      A
 Frequencies --   1529.4311              1530.9550              1537.8242
 Red. masses --      1.0870                 1.0877                 1.1492
 Frc consts  --      1.4980                 1.5021                 1.6012
 IR Inten    --     13.2466                 8.9506                 2.3685

                     94                     95                     96
                      A                      A                      A
 Frequencies --   1540.1001              1620.9675              1649.4140
 Red. masses --      1.0719                 5.8767                 5.7877
 Frc consts  --      1.4980                 9.0978                 9.2772
 IR Inten    --     16.6958                 8.0560                78.4458

                     97                     98                     99
                      A                      A                      A
 Frequencies --   1741.5444              1754.5921              3016.2003
 Red. masses --      6.2529                 7.0973                 1.0671
 Frc consts  --     11.1738                12.8735                 5.7199
 IR Inten    --      1.7895               244.1838                32.4745

                    100                    101                    102
                      A                      A                      A
 Frequencies --   3023.1811              3049.0435              3064.4294
 Red. masses --      1.0759                 1.0387                 1.0375
 Frc consts  --      5.7936                 5.6895                 5.7403
 IR Inten    --     26.3593                22.3987                16.0456

                    103                    104                    105
                      A                      A                      A
 Frequencies --   3065.4748              3066.1840              3068.4109
 Red. masses --      1.0692                 1.0934                 1.0415
 Frc consts  --      5.9199                 6.0567                 5.7772
 IR Inten    --     33.3940                27.9643                 8.0497

                    106                    107                    108
                      A                      A                      A
 Frequencies --   3078.0093              3108.7170              3115.6086
 Red. masses --      1.0828                 1.0851                 1.0988
 Frc consts  --      6.0444                 6.1787                 6.2842
 IR Inten    --     27.2192                 6.5457                28.9806

                    109                    110                    111
                      A                      A                      A
 Frequencies --   3125.0823              3130.0210              3133.6927
 Red. masses --      1.0953                 1.1015                 1.1014
 Frc consts  --      6.3025                 6.3584                 6.3724
 IR Inten    --     14.5903                13.3078                32.5047

                    112                    113                    114
                      A                      A                      A
 Frequencies --   3137.4198              3152.8470              3156.7271
 Red. masses --      1.1031                 1.1008                 1.1003
 Frc consts  --      6.3976                 6.4473                 6.4602
 IR Inten    --     34.2011                 8.3092                54.2563

                    115                    116                    117
                      A                      A                      A
 Frequencies --   3160.8340              3183.5072              3184.8047
 Red. masses --      1.0852                 1.0900                 1.0966
 Frc consts  --      6.3882                 6.5089                 6.5536
 IR Inten    --      3.0365                19.4809                29.7557

                    118                    119                    120
                      A                      A                      A
 Frequencies --   3203.8635              3280.3625              3503.5263
 Red. masses --      1.0911                 1.0899                 1.0730
 Frc consts  --      6.5988                 6.9099                 7.7598
 IR Inten    --      8.4782                 3.2051                 4.3601

 - Thermochemistry -
 -------------------
 Temperature   298.150 Kelvin.  Pressure   1.00000 Atm.
 Atom     1 has atomic number  6 and mass  12.00000

 Molecular mass:   274.16813 amu.
 Principal axes and moments of inertia in atomic units:
                           1         2         3
     Eigenvalues --  3050.260527637.856098220.79083
           X            0.99974   0.02088   0.00876
           Y           -0.02092   0.99977   0.00470
           Z           -0.00866  -0.00489   0.99995
 This molecule is an asymmetric top.
 Rotational symmetry number  1.
 Warning -- assumption of classical behavior for rotation
           may cause significant error
 Rotational temperatures (Kelvin)      0.02840     0.01134     0.01054
 Rotational constants (GHZ):           0.59167     0.23629     0.21953
 Zero-point vibrational energy     950591.6 (Joules/Mol)
                                  227.19685 (Kcal/Mol)
 Warning -- explicit consideration of  31 degrees of freedom as
           vibrations may cause significant error
 Vibrational temperatures:     37.73    48.40    75.92   109.50   119.56
          (Kelvin)            135.86   151.17   182.05   259.09   284.39
                              303.75   323.48   350.59   358.67   374.00
                              393.91   440.40   456.94   507.12   559.52
                              572.11   580.50   591.74   601.88   665.62
                              708.88   723.96   768.24   804.92   841.01
                              869.20   939.83   975.45   989.00  1042.56
                             1056.22  1098.95  1155.36  1178.47  1229.03
                             1251.04  1283.56  1304.70  1315.13  1333.55
                             1351.65  1354.03  1382.05  1384.76  1398.00
                             1420.31  1442.47  1463.30  1485.03  1497.84
                             1504.84  1563.16  1615.80  1667.79  1674.70
                             1676.08  1697.34  1700.59  1731.43  1741.28
                             1777.72  1806.54  1835.25  1850.60  1895.21
                             1902.21  1959.45  1969.60  1987.35  2003.04
                             2005.89  2018.03  2059.10  2061.45  2062.12
                             2076.47  2086.39  2123.42  2152.21  2161.22
                             2163.68  2177.08  2183.54  2188.60  2194.01
                             2200.51  2202.70  2212.59  2215.86  2332.21
                             2373.14  2505.69  2524.47  4339.64  4349.68
                             4386.89  4409.03  4410.53  4411.55  4414.76
                             4428.57  4472.75  4482.67  4496.30  4503.40
                             4508.68  4514.05  4536.24  4541.83  4547.74
                             4580.36  4582.22  4609.64  4719.71  5040.79

 Zero-point correction=                           0.362061 (Hartree/Particle)
 Thermal correction to Energy=                    0.381394
 Thermal correction to Enthalpy=                  0.382338
 Thermal correction to Gibbs Free Energy=         0.314166
 Sum of electronic and zero-point Energies=           -882.607469
 Sum of electronic and thermal Energies=              -882.588137
 Sum of electronic and thermal Enthalpies=            -882.587193
 Sum of electronic and thermal Free Energies=         -882.655364

                     E (Thermal)             CV                S
                      KCal/Mol        Cal/Mol-Kelvin    Cal/Mol-Kelvin
 Total                  239.328             75.082            143.479
 Electronic               0.000              0.000              0.000
 Translational            0.889              2.981             42.724
 Rotational               0.889              2.981             33.615
 Vibrational            237.551             69.120             67.140
 Vibration     1          0.593              1.985              6.096
 Vibration     2          0.594              1.983              5.602
 Vibration     3          0.596              1.977              4.711
 Vibration     4          0.599              1.965              3.989
 Vibration     5          0.600              1.961              3.816
 Vibration     6          0.603              1.953              3.566
 Vibration     7          0.605              1.945              3.358
 Vibration     8          0.611              1.927              2.998
 Vibration     9          0.629              1.867              2.328
 Vibration    10          0.637              1.843              2.155
 Vibration    11          0.643              1.824              2.034
 Vibration    12          0.649              1.803              1.920
 Vibration    13          0.659              1.773              1.776
 Vibration    14          0.662              1.764              1.736
 Vibration    15          0.668              1.746              1.662
 Vibration    16          0.676              1.722              1.572
 Vibration    17          0.696              1.662              1.383
 Vibration    18          0.704              1.640              1.322
 Vibration    19          0.729              1.570              1.155
 Vibration    20          0.757              1.494              1.004
 Vibration    21          0.764              1.475              0.971
 Vibration    22          0.769              1.463              0.950
 Vibration    23          0.775              1.446              0.922
 Vibration    24          0.781              1.430              0.898
 Vibration    25          0.820              1.333              0.759
 Vibration    26          0.848              1.266              0.677
 Vibration    27          0.858              1.243              0.650
 Vibration    28          0.889              1.175              0.578
 Vibration    29          0.915              1.119              0.525
 Vibration    30          0.941              1.065              0.477
 Vibration    31          0.963              1.023              0.443

                           ! Non-Optimized Parameters !
 Normal termination of Gaussian 16 at Mon Dec 14 18:31:31 2020.

 ----------------------------------------------------------------------
 # B3LYP/6-311++G(d,p) empiricaldispersion=gd3bj scf=xqc pop=npa geom=c
 heck
 ----------------------------------------------------------------------

 ----------------------------------------
 CID_132308364_JID_10466_Energie_neutraal
 ----------------------------------------
 Structure from the checkpoint file:  "JID_10466.chk"
 Charge =  0 Multiplicity = 1

 SCF Done:  E(RB3LYP) =  -883.211952414     A.U. after   16 cycles
 Normal termination of Gaussian 16 at Mon Dec 14 18:44:40 2020.

 ----------------------------------------------------------------------
 # B3LYP/6-311++G(d,p) empiricaldispersion=gd3bj scf=xqc pop=npa geom=c
 heck
 ----------------------------------------------------------------------

 --------------------------------------
 CID_132308364_JID_10466_Energie_kation
 --------------------------------------
 Structure from the checkpoint file:  "JID_10466.chk"
 Charge =  1 Multiplicity = 2

 SCF Done:  E(UB3LYP) =  -882.912774345     A.U. after   29 cycles
 Normal termination of Gaussian 16 at Mon Dec 14 19:16:40 2020.
 Gaussian 16:  ES64L-G16RevA.03 25-Dec-2016

 ----------------------------------------------------------------------
 # B3LYP/6-311++G(d,p) empiricaldispersion=gd3bj scf=xqc pop=npa geom=c
 heck
 ----------------------------------------------------------------------

 -------------------------------------
 CID_132308364_JID_10466_Energie_anion
 -------------------------------------
 Structure from the checkpoint file:  "JID_10466.chk"
 Charge = -1 Multiplicity = 2

                         Standard orientation:
 ---------------------------------------------------------------------
 Center     Atomic      Atomic             Coordinates (Angstroms)
 Number     Number       Type             X           Y           Z
 ---------------------------------------------------------------------
      1          6           0        3.191513    1.956615   -0.792434
      2          6           0        3.986042    0.807638   -0.169828
      3          6           0        4.203361    0.926247    1.338772
      4          8           0        3.480329   -0.489994   -0.556277
      5          6           0        2.232947   -0.926418   -0.247617
      6          6           0        1.896046   -2.183288   -0.793705
      7          7           0        0.732844   -2.796076   -0.593292
      8          6           0       -0.189442   -2.160918    0.144942
      9          6           0        0.027843   -0.900031    0.697683
     10          6           0        1.273858   -0.287049    0.533776
     11          6           0       -0.985186   -0.219351    1.553011
     12          8           0       -0.644853    0.326221    2.598757
     13          7           0       -2.327913   -0.353399    1.223464
     14          6           0       -3.043719    0.082043   -0.013069
     15          6           0       -2.460759   -0.418428   -1.351182
     16          6           0       -1.197804    0.294836   -1.890343
     17          6           0       -0.930668    1.632193   -1.261589
     18          6           0       -1.775596    2.239895   -0.425345
     19          6           0       -3.095585    1.629885   -0.035167
     20          6           0       -4.462029   -0.487598    0.140220
     21          1           0        2.209758    2.096576   -0.334366
     22          1           0        3.050881    1.777981   -1.863136
     23          1           0        3.752424    2.889615   -0.671109
     24          1           0        4.972271    0.795398   -0.644577
     25          1           0        3.271691    1.010746    1.902874
     26          1           0        4.749640    0.052798    1.707190
     27          1           0        4.802536    1.819344    1.547667
     28          1           0        2.633739   -2.691391   -1.411505
     29          1           0       -1.128848   -2.679408    0.311649
     30          1           0        1.435764    0.667792    1.010215
     31          1           0       -2.845454    0.001355    2.025858
     32          1           0       -2.293012   -1.497040   -1.299338
     33          1           0       -3.269050   -0.271427   -2.076290
     34          1           0       -1.307105    0.429044   -2.976353
     35          1           0       -0.313842   -0.337624   -1.772090
     36          1           0        0.009909    2.113247   -1.524602
     37          1           0       -1.523158    3.211077   -0.005720
     38          1           0       -3.878846    1.947234   -0.740144
     39          1           0       -3.412284    1.993985    0.950216
     40          1           0       -4.435282   -1.581666    0.152085
     41          1           0       -4.922507   -0.148515    1.076309
     42          1           0       -5.102492   -0.160222   -0.684625
 ---------------------------------------------------------------------

 SCF Done:  E(UB3LYP) =  -883.211276140     A.U. after   33 cycles
 SCF Done:  E(UB3LYP) =  -883.211276140     a.u. after    1 cycles

 The electronic state is 2-A.
 Alpha  occ. eigenvalues --  -19.03868 -18.95656 -14.20351 -14.17392 -10.13866
 Alpha  occ. eigenvalues --  -10.13265 -10.12221 -10.11221 -10.07477 -10.07150
 Alpha  occ. eigenvalues --  -10.07015 -10.06932 -10.06858 -10.06816 -10.06746
 Alpha  occ. eigenvalues --  -10.06632 -10.06471 -10.05906 -10.04439 -10.04361
 Alpha  occ. eigenvalues --   -0.95416  -0.90820  -0.80902  -0.80423  -0.72232
 Alpha  occ. eigenvalues --   -0.70097  -0.67661  -0.66319  -0.64592  -0.62689
 Alpha  occ. eigenvalues --   -0.60448  -0.58678  -0.53715  -0.53117  -0.52583
 Alpha  occ. eigenvalues --   -0.49138  -0.47990  -0.44346  -0.41864  -0.40117
 Alpha  occ. eigenvalues --   -0.39780  -0.38665  -0.37806  -0.36054  -0.35394
 Alpha  occ. eigenvalues --   -0.35184  -0.34942  -0.34576  -0.32895  -0.32091
 Alpha  occ. eigenvalues --   -0.31705  -0.30711  -0.29834  -0.29776  -0.29145
 Alpha  occ. eigenvalues --   -0.28623  -0.28457  -0.27774  -0.27624  -0.27004
 Alpha  occ. eigenvalues --   -0.26285  -0.25612  -0.25300  -0.23958  -0.22334
 Alpha  occ. eigenvalues --   -0.22232  -0.21613  -0.21280  -0.16028  -0.15564
 Alpha  occ. eigenvalues --   -0.14205  -0.13179  -0.11708  -0.11089   0.04279
 Alpha virt. eigenvalues --    0.05931   0.06234   0.07632   0.08221   0.08686
 Alpha virt. eigenvalues --    0.09064   0.09330   0.10025   0.10239   0.10690
 Alpha virt. eigenvalues --    0.10958   0.11128   0.11471   0.11980   0.12026

  Beta  occ. eigenvalues --  -19.03885 -18.95447 -14.20337 -14.17297 -10.13861
  Beta  occ. eigenvalues --  -10.13108 -10.12208 -10.11300 -10.07469 -10.07141
  Beta  occ. eigenvalues --  -10.07000 -10.06912 -10.06849 -10.06821 -10.06738
  Beta  occ. eigenvalues --  -10.06630 -10.06464 -10.05623 -10.04293 -10.04145
  Beta  occ. eigenvalues --   -0.95445  -0.90451  -0.80641  -0.80278  -0.72185
  Beta  occ. eigenvalues --   -0.70064  -0.67343  -0.66190  -0.64556  -0.62435
  Beta  occ. eigenvalues --   -0.60423  -0.58640  -0.53599  -0.52855  -0.52315
  Beta  occ. eigenvalues --   -0.48999  -0.47849  -0.44249  -0.41791  -0.40050
  Beta  occ. eigenvalues --   -0.39704  -0.38592  -0.37648  -0.35979  -0.35268
  Beta  occ. eigenvalues --   -0.35141  -0.34853  -0.34480  -0.32792  -0.32053
  Beta  occ. eigenvalues --   -0.31610  -0.30649  -0.29733  -0.29664  -0.29050
  Beta  occ. eigenvalues --   -0.28443  -0.28339  -0.27726  -0.27567  -0.26606
  Beta  occ. eigenvalues --   -0.26095  -0.25374  -0.25043  -0.23764  -0.22284
  Beta  occ. eigenvalues --   -0.22039  -0.21564  -0.21105  -0.15558  -0.15051
  Beta  occ. eigenvalues --   -0.13751  -0.12887  -0.11377  -0.10284
  Beta virt. eigenvalues --    0.06153   0.06458   0.07791   0.08275   0.08741
  Beta virt. eigenvalues --    0.08989   0.09106   0.09473   0.10106   0.10300
  Beta virt. eigenvalues --    0.10689   0.11080   0.11176   0.11550   0.11930

 Mulliken charges and spin densities:
               1          2
     1  C   -0.108945  -0.384919
     2  C   -0.382914   0.305037
     3  C   -0.065285  -0.415276
     4  O   -0.051088   0.005717
     5  C   -0.980605  -0.108691
     6  C   -0.310650   0.117867
     7  N    0.002060   0.034344
     8  C   -0.441370  -0.326509
     9  C    0.756675   0.163470
    10  C    0.996299   0.206816
    11  C   -0.816968   0.251603
    12  O   -0.290880   0.074262
    13  N   -0.053161   0.050520
    14  C   -0.473419   0.639762
    15  C    0.106735  -0.401409
    16  C   -0.651883   0.193983
    17  C    0.446229  -0.334755
    18  C   -0.422393   0.273083
    19  C   -0.310041  -0.566187
    20  C    0.357335  -0.714709
    21  H    0.090947   0.060174
    22  H    0.080355   0.085858
    23  H   -0.030218   0.167147
    24  H   -0.088312   0.256968
    25  H    0.082104   0.073843
    26  H    0.165819  -0.011835
    27  H   -0.084791   0.223862
    28  H    0.124692   0.011848
    29  H    0.142937   0.028052
    30  H    0.367942  -0.128482
    31  H    0.192225   0.092544
    32  H    0.203117  -0.006395
    33  H   -0.032147   0.197587
    34  H   -0.066354   0.254818
    35  H    0.219623  -0.066056
    36  H    0.085950   0.063259
    37  H    0.054710   0.101622
    38  H   -0.025209   0.181077
    39  H    0.191212  -0.047482
    40  H    0.095350   0.071262
    41  H   -0.034883   0.149974
    42  H   -0.040801   0.176345
 Sum of Mulliken charges =  -1.00000   1.00000

 Dipole moment (field-independent basis, Debye):
    X=             -1.1427    Y=              2.7391    Z=             -1.1664  Tot=              3.1889
 Quadrupole moment (field-independent basis, Debye-Ang):
   XX=           -168.9484   YY=           -156.4464   ZZ=           -156.8371
   XY=              1.5573   XZ=              0.0560   YZ=             -1.2822

 Summary of Natural Population Analysis:

                                       Natural Population
                Natural  -----------------------------------------------
    Atom  No    Charge         Core      Valence    Rydberg      Total
 -----------------------------------------------------------------------
      C    1   -0.30052      0.99964     2.29553    0.00535     3.30052
      C    2    0.06574      0.99956     1.92086    0.01384     2.93426
      C    3   -0.30012      0.99964     2.29496    0.00552     3.30012
      O    4   -0.28625      0.99985     3.27640    0.00999     4.28625
      C    5    0.12184      0.99937     1.86474    0.01405     2.87816
      C    6    0.06008      0.99957     1.92676    0.01359     2.93992
      N    7   -0.22877      0.99971     2.71738    0.01167     3.72877
      C    8    0.01280      0.99954     1.97405    0.01361     2.98720
      C    9   -0.05731      0.99945     2.04670    0.01116     3.05731
      C   10   -0.07542      0.99948     2.06822    0.00773     3.07542
      C   11    0.36233      0.99961     1.61576    0.02229     2.63767
      O   12   -0.30267      0.99988     3.29755    0.00524     4.30267
      N   13   -0.33799      0.99966     2.82675    0.01158     3.83799
      C   14    0.07097      0.99955     1.91654    0.01294     2.92903
      C   15   -0.19492      0.99957     2.18565    0.00970     3.19492
      C   16   -0.21488      0.99960     2.20604    0.00924     3.21488
      C   17   -0.07965      0.99953     2.07078    0.00934     3.07965
      C   18   -0.10254      0.99952     2.09302    0.00999     3.10254
      C   19   -0.21270      0.99957     2.20311    0.01002     3.21270
      C   20   -0.28147      0.99962     2.27564    0.00621     3.28147
      H   21    0.10426      0.00000     0.39469    0.00105     0.39574
      H   22    0.10428      0.00000     0.39480    0.00092     0.39572
      H   23    0.09924      0.00000     0.39995    0.00081     0.40076
      H   24    0.08789      0.00000     0.41079    0.00132     0.41211
      H   25    0.10609      0.00000     0.39310    0.00081     0.39391
      H   26    0.10371      0.00000     0.39558    0.00072     0.39629
      H   27    0.09901      0.00000     0.40015    0.00085     0.40099
      H   28    0.08282      0.00000     0.41544    0.00174     0.41718
      H   29    0.08939      0.00000     0.40873    0.00188     0.41061
      H   30    0.10323      0.00000     0.39492    0.00185     0.39677
      H   31    0.18116      0.00000     0.31605    0.00279     0.31884
      H   32    0.11077      0.00000     0.38813    0.00109     0.38923
      H   33    0.09771      0.00000     0.40115    0.00114     0.40229
      H   34    0.10090      0.00000     0.39804    0.00106     0.39910
      H   35    0.11627      0.00000     0.38191    0.00182     0.38373
      H   36    0.09728      0.00000     0.40170    0.00102     0.40272
      H   37    0.09573      0.00000     0.40342    0.00085     0.40427
      H   38    0.10154      0.00000     0.39746    0.00100     0.39846
      H   39    0.10085      0.00000     0.39811    0.00104     0.39915
      H   40    0.10456      0.00000     0.39443    0.00101     0.39544
      H   41    0.09673      0.00000     0.40230    0.00097     0.40327
      H   42    0.09802      0.00000     0.40105    0.00093     0.40198
 =======================================================================
   * Total *   -0.00000     19.99193    53.76833    0.23974    74.00000

 Normal termination of Gaussian 16 at Mon Dec 14 19:52:20 2020.
