 Gaussian 16, Revision A.03,

 -----------------------------------------------------------
 # opt freq B3LYP/6-31G(d) empiricaldispersion=gd3bj scf=xqc
 -----------------------------------------------------------

 ------------------------------
 CID_79648974_JID_5509_neutraal
 ------------------------------
 Symbolic Z-matrix:
 Charge =  0 Multiplicity = 1

 SCF Done:  E(RB3LYP) =  -728.315385915     A.U. after   14 cycles
 SCF Done:  E(RB3LYP) =  -728.319387347     A.U. after   12 cycles
 SCF Done:  E(RB3LYP) =  -728.319873871     A.U. after   12 cycles
 SCF Done:  E(RB3LYP) =  -728.320569507     A.U. after   12 cycles
 SCF Done:  E(RB3LYP) =  -728.320674280     A.U. after   12 cycles
 SCF Done:  E(RB3LYP) =  -728.321320276     A.U. after   12 cycles
 SCF Done:  E(RB3LYP) =  -728.321412593     A.U. after   11 cycles
 SCF Done:  E(RB3LYP) =  -728.321499152     A.U. after   11 cycles
 SCF Done:  E(RB3LYP) =  -728.321561430     A.U. after   12 cycles
 SCF Done:  E(RB3LYP) =  -728.321619298     A.U. after   12 cycles
 SCF Done:  E(RB3LYP) =  -728.324432482     A.U. after   10 cycles
 SCF Done:  E(RB3LYP) =  -728.324432879     A.U. after    8 cycles
 SCF Done:  E(RB3LYP) =  -728.324433039     A.U. after    8 cycles
 SCF Done:  E(RB3LYP) =  -728.324433099     A.U. after    8 cycles
 SCF Done:  E(RB3LYP) =  -728.324433104     A.U. after    7 cycles
 Optimization completed.
    -- Stationary point found.
 Normal termination of Gaussian 16 at Thu Dec 10 16:56:39 2020.

 --------------------------------------------------------------------
 #N Geom=AllCheck Guess=TCheck SCRF=Check GenChk RB3LYP/6-31G(d) Freq
 --------------------------------------------------------------------

 Structure from the checkpoint file:  "JID_5509.chk"
 ------------------------------
 CID_79648974_JID_5509_neutraal
 ------------------------------
 Charge =  0 Multiplicity = 1

 SCF Done:  E(RB3LYP) =  -728.324433104     A.U. after    1 cycles

  Exact polarizability: 144.409  -1.771 129.227   0.009   0.045 100.846
 Approx polarizability: 173.030  -4.351 190.058   0.124   1.301 153.068

                      1                      2                      3
                      A                      A                      A
 Frequencies --     17.8626                38.8159                43.3691
 Red. masses --      3.6440                 4.7061                 4.0910
 Frc consts  --      0.0007                 0.0042                 0.0045
 IR Inten    --      7.8224                 2.2828                 1.6053

                      4                      5                      6
                      A                      A                      A
 Frequencies --     58.8901                73.2721                83.1025
 Red. masses --      2.4874                 3.4943                 2.8665
 Frc consts  --      0.0051                 0.0111                 0.0117
 IR Inten    --      0.4533                 0.0876                 0.1502

                      7                      8                      9
                      A                      A                      A
 Frequencies --    121.5365               153.6402               163.8491
 Red. masses --      3.3053                 1.4045                 2.6465
 Frc consts  --      0.0288                 0.0195                 0.0419
 IR Inten    --     13.4582               154.0515                31.2847

                     10                     11                     12
                      A                      A                      A
 Frequencies --    191.7329               218.7800               236.7794
 Red. masses --      2.7399                 2.0821                 1.4414
 Frc consts  --      0.0593                 0.0587                 0.0476
 IR Inten    --      6.0209                 3.9304                33.5486

                     13                     14                     15
                      A                      A                      A
 Frequencies --    256.2404               283.4435               312.2032
 Red. masses --      1.3562                 2.7807                 1.7710
 Frc consts  --      0.0525                 0.1316                 0.1017
 IR Inten    --      6.7844                 9.1509                 3.7347

                     16                     17                     18
                      A                      A                      A
 Frequencies --    330.0686               369.6501               376.8573
 Red. masses --      3.2990                 3.2023                 2.7941
 Frc consts  --      0.2118                 0.2578                 0.2338
 IR Inten    --      8.9920                 8.3661                 5.8910

                     19                     20                     21
                      A                      A                      A
 Frequencies --    401.2235               423.6563               441.9507
 Red. masses --      3.8749                 2.3003                 3.0926
 Frc consts  --      0.3675                 0.2433                 0.3559
 IR Inten    --      3.5273                 2.5238                 2.2067

                     22                     23                     24
                      A                      A                      A
 Frequencies --    473.4263               498.3668               552.7411
 Red. masses --      2.2577                 2.7762                 2.3247
 Frc consts  --      0.2981                 0.4063                 0.4185
 IR Inten    --      2.6968                 8.8957                 4.2491

                     25                     26                     27
                      A                      A                      A
 Frequencies --    571.5299               586.4897               657.4735
 Red. masses --      1.4055                 2.4932                 3.3719
 Frc consts  --      0.2705                 0.5053                 0.8588
 IR Inten    --     15.1264                 2.7053                10.2029

                     28                     29                     30
                      A                      A                      A
 Frequencies --    754.6367               787.0022               803.6920
 Red. masses --      4.6082                 4.1212                 1.3192
 Frc consts  --      1.5462                 1.5039                 0.5020
 IR Inten    --      4.1189                 7.7502                 1.8336

                     31                     32                     33
                      A                      A                      A
 Frequencies --    806.2357               842.1690               875.0636
 Red. masses --      1.2890                 1.9335                 2.9773
 Frc consts  --      0.4937                 0.8080                 1.3432
 IR Inten    --      5.7603                 5.5262                 1.9670

                     34                     35                     36
                      A                      A                      A
 Frequencies --    904.0248               919.6480               940.4210
 Red. masses --      2.4266                 1.9184                 1.9279
 Frc consts  --      1.1685                 0.9559                 1.0046
 IR Inten    --      6.8548                18.6171                74.9248

                     37                     38                     39
                      A                      A                      A
 Frequencies --    951.7466              1004.3362              1019.7122
 Red. masses --      2.2458                 2.8834                 2.0941
 Frc consts  --      1.1986                 1.7136                 1.2829
 IR Inten    --      9.9225                 5.7253                22.0424

                     40                     41                     42
                      A                      A                      A
 Frequencies --   1030.2824              1049.6572              1057.6003
 Red. masses --      1.7445                 1.9864                 2.8896
 Frc consts  --      1.0910                 1.2895                 1.9043
 IR Inten    --     21.3480                 8.5877                51.7635

                     43                     44                     45
                      A                      A                      A
 Frequencies --   1063.6116              1091.3468              1108.3412
 Red. masses --      2.0055                 1.8041                 2.1829
 Frc consts  --      1.3367                 1.2660                 1.5799
 IR Inten    --      9.6797                 5.3946                17.1396

                     46                     47                     48
                      A                      A                      A
 Frequencies --   1126.9755              1134.5175              1152.5157
 Red. masses --      2.0845                 2.0079                 2.2264
 Frc consts  --      1.5598                 1.5227                 1.7424
 IR Inten    --      1.8045                30.3112                52.1634

                     49                     50                     51
                      A                      A                      A
 Frequencies --   1160.8965              1170.9988              1219.0663
 Red. masses --      3.6200                 4.5949                 1.7861
 Frc consts  --      2.8744                 3.7122                 1.5639
 IR Inten    --    121.8914               177.7188                24.6792

                     52                     53                     54
                      A                      A                      A
 Frequencies --   1229.3040              1259.4574              1274.8905
 Red. masses --      1.5137                 1.6123                 1.1417
 Frc consts  --      1.3478                 1.5069                 1.0933
 IR Inten    --      1.1295                21.7504                 6.3192

                     55                     56                     57
                      A                      A                      A
 Frequencies --   1295.6186              1297.6634              1311.9981
 Red. masses --      1.3751                 1.3722                 1.4433
 Frc consts  --      1.3600                 1.3614                 1.4638
 IR Inten    --      7.5405                 7.4232                12.9733

                     58                     59                     60
                      A                      A                      A
 Frequencies --   1330.9359              1349.8120              1353.4201
 Red. masses --      1.1298                 1.2360                 1.4672
 Frc consts  --      1.1792                 1.3268                 1.5835
 IR Inten    --      7.2273                25.5617                11.3807

                     61                     62                     63
                      A                      A                      A
 Frequencies --   1358.2935              1372.3657              1380.9457
 Red. masses --      1.6166                 2.8813                 1.4526
 Frc consts  --      1.7573                 3.1973                 1.6321
 IR Inten    --     22.2919                50.2763                10.3697

                     64                     65                     66
                      A                      A                      A
 Frequencies --   1404.3390              1420.2910              1436.5032
 Red. masses --      1.2291                 1.2542                 1.3262
 Frc consts  --      1.4282                 1.4906                 1.6124
 IR Inten    --     29.0230                18.6655                 9.7419

                     67                     68                     69
                      A                      A                      A
 Frequencies --   1447.7227              1448.4675              1512.3059
 Red. masses --      1.2913                 1.4133                 1.0803
 Frc consts  --      1.5946                 1.7470                 1.4557
 IR Inten    --     19.4067                 4.1637                 1.0546

                     70                     71                     72
                      A                      A                      A
 Frequencies --   1515.2463              1516.8717              1520.9170
 Red. masses --      1.1004                 1.0878                 1.0477
 Frc consts  --      1.4886                 1.4747                 1.4279
 IR Inten    --      2.3375                 2.3840                 4.5445

                     73                     74                     75
                      A                      A                      A
 Frequencies --   1523.5397              1536.5788              1540.2153
 Red. masses --      1.0667                 1.0710                 1.0991
 Frc consts  --      1.4589                 1.4899                 1.5362
 IR Inten    --      2.6387                 1.7206                 2.5807

                     76                     77                     78
                      A                      A                      A
 Frequencies --   1545.9438              1642.0507              1709.8963
 Red. masses --      1.0829                 1.2511                 1.0923
 Frc consts  --      1.5249                 1.9875                 1.8816
 IR Inten    --     10.3656               120.5951                18.8441

                     79                     80                     81
                      A                      A                      A
 Frequencies --   1789.9925              2981.8208              2999.8546
 Red. masses --      8.8180                 1.0651                 1.0710
 Frc consts  --     16.6464                 5.5794                 5.6788
 IR Inten    --    282.4174                43.5868               104.5792

                     82                     83                     84
                      A                      A                      A
 Frequencies --   3019.6281              3043.1008              3052.6851
 Red. masses --      1.0687                 1.0830                 1.0464
 Frc consts  --      5.7415                 5.9091                 5.7453
 IR Inten    --     26.0599                28.9050                32.6943

                     85                     86                     87
                      A                      A                      A
 Frequencies --   3057.1002              3062.7033              3075.2716
 Red. masses --      1.0684                 1.0609                 1.0631
 Frc consts  --      5.8831                 5.8631                 5.9239
 IR Inten    --     28.6999                26.6519                36.7443

                     88                     89                     90
                      A                      A                      A
 Frequencies --   3090.4691              3101.3757              3108.3105
 Red. masses --      1.0945                 1.0965                 1.1018
 Frc consts  --      6.1591                 6.2142                 6.2718
 IR Inten    --     15.8287                44.6042                17.0736

                     91                     92                     93
                      A                      A                      A
 Frequencies --   3114.6181              3117.5615              3131.9760
 Red. masses --      1.1020                 1.1004                 1.1042
 Frc consts  --      6.2988                 6.3015                 6.3815
 IR Inten    --     13.7281                53.9347                21.1265

                     94                     95                     96
                      A                      A                      A
 Frequencies --   3139.1615              3154.2949              3453.0353
 Red. masses --      1.0953                 1.0879                 1.0511
 Frc consts  --      6.3596                 6.3773                 7.3841
 IR Inten    --     12.7846                23.6861                 1.0159

                     97                     98                     99
                      A                      A                      A
 Frequencies --   3527.8870              3597.5804              3724.6070
 Red. masses --      1.0894                 1.0453                 1.1043
 Frc consts  --      7.9885                 7.9707                 9.0258
 IR Inten    --      1.5937                27.1163                29.7822

 - Thermochemistry -
 -------------------
 Temperature   298.150 Kelvin.  Pressure   1.00000 Atm.
 Atom     1 has atomic number  6 and mass  12.00000

 Molecular mass:   216.14739 amu.
 Principal axes and moments of inertia in atomic units:
                           1         2         3
     Eigenvalues --  1675.047315646.595526540.79730
           X            0.99980   0.01904  -0.00607
           Y           -0.01915   0.99964  -0.01857
           Z            0.00571   0.01869   0.99981
 This molecule is an asymmetric top.
 Rotational symmetry number  1.
 Warning -- assumption of classical behavior for rotation
           may cause significant error
 Rotational temperatures (Kelvin)      0.05171     0.01534     0.01324
 Rotational constants (GHZ):           1.07743     0.31962     0.27592
 Zero-point vibrational energy     812205.0 (Joules/Mol)
                                  194.12166 (Kcal/Mol)
 Warning -- explicit consideration of  26 degrees of freedom as
           vibrations may cause significant error
 Vibrational temperatures:     25.70    55.85    62.40    84.73   105.42
          (Kelvin)            119.57   174.86   221.05   235.74   275.86
                              314.78   340.67   368.67   407.81   449.19
                              474.90   531.84   542.21   577.27   609.55
                              635.87   681.15   717.04   795.27   822.30
                              843.83   945.96  1085.75  1132.32  1156.33
                             1159.99  1211.69  1259.02  1300.69  1323.17
                             1353.06  1369.35  1445.02  1467.14  1482.35
                             1510.22  1521.65  1530.30  1570.20  1594.66
                             1621.47  1632.32  1658.21  1670.27  1684.81
                             1753.96  1768.69  1812.08  1834.28  1864.11
                             1867.05  1887.67  1914.92  1942.08  1947.27
                             1954.28  1974.53  1986.87  2020.53  2043.48
                             2066.81  2082.95  2084.02  2175.87  2180.10
                             2182.44  2188.26  2192.03  2210.79  2216.03
                             2224.27  2362.54  2460.16  2575.40  4290.17
                             4316.12  4344.57  4378.34  4392.13  4398.49
                             4406.55  4424.63  4446.50  4462.19  4472.17
                             4481.24  4485.48  4506.21  4516.55  4538.33
                             4968.15  5075.84  5176.12  5358.88

 Zero-point correction=                           0.309353 (Hartree/Particle)
 Thermal correction to Energy=                    0.326319
 Thermal correction to Enthalpy=                  0.327263
 Thermal correction to Gibbs Free Energy=         0.262964
 Sum of electronic and zero-point Energies=           -728.015081
 Sum of electronic and thermal Energies=              -727.998114
 Sum of electronic and thermal Enthalpies=            -727.997170
 Sum of electronic and thermal Free Energies=         -728.061469

                     E (Thermal)             CV                S
                      KCal/Mol        Cal/Mol-Kelvin    Cal/Mol-Kelvin
 Total                  204.768             62.244            135.329
 Electronic               0.000              0.000              0.000
 Translational            0.889              2.981             42.016
 Rotational               0.889              2.981             32.492
 Vibrational            202.991             56.282             60.821
 Vibration     1          0.593              1.986              6.859
 Vibration     2          0.594              1.981              5.319
 Vibration     3          0.595              1.980              5.099
 Vibration     4          0.596              1.974              4.494
 Vibration     5          0.599              1.967              4.063
 Vibration     6          0.600              1.961              3.816
 Vibration     7          0.609              1.931              3.076
 Vibration     8          0.619              1.899              2.627
 Vibration     9          0.623              1.887              2.505
 Vibration    10          0.634              1.851              2.211
 Vibration    11          0.647              1.812              1.969
 Vibration    12          0.656              1.784              1.827
 Vibration    13          0.666              1.752              1.687
 Vibration    14          0.682              1.704              1.513
 Vibration    15          0.701              1.650              1.351
 Vibration    16          0.713              1.615              1.260
 Vibration    17          0.742              1.535              1.081
 Vibration    18          0.747              1.519              1.052
 Vibration    19          0.767              1.467              0.958
 Vibration    20          0.786              1.419              0.880
 Vibration    21          0.802              1.379              0.820
 Vibration    22          0.830              1.309              0.728
 Vibration    23          0.854              1.254              0.662
 Vibration    24          0.908              1.134              0.539
 Vibration    25          0.928              1.093              0.501
 Vibration    26          0.944              1.061              0.473

 Optimization completed.
    -- Stationary point found.
 Normal termination of Gaussian 16 at Thu Dec 10 17:08:30 2020.

 ----------------------------------------------------------------------
 # B3LYP/6-311++G(d,p) empiricaldispersion=gd3bj scf=xqc pop=npa geom=c
 heck
 ----------------------------------------------------------------------

 --------------------------------------
 CID_79648974_JID_5509_Energie_neutraal
 --------------------------------------
 Structure from the checkpoint file:  "JID_5509.chk"
 Charge =  0 Multiplicity = 1

 SCF Done:  E(RB3LYP) =  -728.551222588     A.U. after   15 cycles
 Normal termination of Gaussian 16 at Thu Dec 10 17:15:26 2020.

 ----------------------------------------------------------------------
 # B3LYP/6-311++G(d,p) empiricaldispersion=gd3bj scf=xqc pop=npa geom=c
 heck
 ----------------------------------------------------------------------

 ------------------------------------
 CID_79648974_JID_5509_Energie_kation
 ------------------------------------
 Structure from the checkpoint file:  "JID_5509.chk"
 Charge =  1 Multiplicity = 2

 SCF Done:  E(UB3LYP) =  -728.244607307     A.U. after   24 cycles
 Normal termination of Gaussian 16 at Thu Dec 10 17:27:52 2020.
 Gaussian 16:  ES64L-G16RevA.03 25-Dec-2016

 ----------------------------------------------------------------------
 # B3LYP/6-311++G(d,p) empiricaldispersion=gd3bj scf=xqc pop=npa geom=c
 heck
 ----------------------------------------------------------------------

 -----------------------------------
 CID_79648974_JID_5509_Energie_anion
 -----------------------------------
 Structure from the checkpoint file:  "JID_5509.chk"
 Charge = -1 Multiplicity = 2

                         Standard orientation:
 ---------------------------------------------------------------------
 Center     Atomic      Atomic             Coordinates (Angstroms)
 Number     Number       Type             X           Y           Z
 ---------------------------------------------------------------------
      1          6           0        2.692743    2.311549   -0.544990
      2          6           0        3.558593    1.465758    0.386726
      3          8           0        3.019402    0.170987    0.627251
      4          6           0        3.254742   -0.770366   -0.408381
      5          6           0        2.337321   -1.971205   -0.206468
      6          8           0        1.025717   -1.813033   -0.724214
      7          6           0        0.288583   -0.717964   -0.191686
      8          6           0       -0.066475   -0.839301    1.304975
      9          6           0       -1.446645   -0.150603    1.461444
     10          6           0       -1.858543    0.318904    0.030650
     11          6           0       -1.067125   -0.630614   -0.888277
     12          6           0       -3.389919    0.281584   -0.157454
     13          8           0       -4.049402    1.310660   -0.238160
     14          7           0       -3.973505   -0.952256   -0.211647
     15          7           0       -1.345778    1.680263   -0.166671
     16          1           0        2.638297    1.879447   -1.550337
     17          1           0        3.115840    3.318571   -0.640369
     18          1           0        1.672426    2.394664   -0.155840
     19          1           0        4.585160    1.379936   -0.004795
     20          1           0        3.621413    1.939312    1.372050
     21          1           0        3.063805   -0.340630   -1.402386
     22          1           0        4.307788   -1.098833   -0.380553
     23          1           0        2.750964   -2.831977   -0.742094
     24          1           0        2.316715   -2.214008    0.866761
     25          1           0        0.829358    0.213422   -0.356338
     26          1           0        0.705334   -0.391995    1.934147
     27          1           0       -0.133923   -1.903620    1.560432
     28          1           0       -1.414296    0.713691    2.130601
     29          1           0       -2.189828   -0.843746    1.869117
     30          1           0       -1.510797   -1.632729   -0.919201
     31          1           0       -1.003839   -0.265843   -1.918786
     32          1           0       -3.457603   -1.803310   -0.054037
     33          1           0       -4.982519   -0.997223   -0.226528
     34          1           0       -1.516112    1.945021   -1.137840
     35          1           0       -1.948596    2.308441    0.365976
 ---------------------------------------------------------------------

 SCF Done:  E(UB3LYP) =  -728.540075971     A.U. after   33 cycles
 SCF Done:  E(UB3LYP) =  -728.540075971     a.u. after    1 cycles

 The electronic state is 2-A.
 Alpha  occ. eigenvalues --  -19.03461 -19.02735 -18.99478 -14.23165 -14.19855
 Alpha  occ. eigenvalues --  -10.17500 -10.12854 -10.12726 -10.12538 -10.12017
 Alpha  occ. eigenvalues --  -10.11444 -10.07537 -10.07322 -10.07022 -10.06424
 Alpha  occ. eigenvalues --   -0.95214  -0.94434  -0.93491  -0.81064  -0.80253
 Alpha  occ. eigenvalues --   -0.71763  -0.68175  -0.64247  -0.61946  -0.60527
 Alpha  occ. eigenvalues --   -0.54685  -0.51776  -0.51099  -0.47212  -0.46370
 Alpha  occ. eigenvalues --   -0.44671  -0.42301  -0.40704  -0.40193  -0.38644
 Alpha  occ. eigenvalues --   -0.38105  -0.37817  -0.36188  -0.34270  -0.33379
 Alpha  occ. eigenvalues --   -0.32553  -0.32437  -0.31175  -0.30737  -0.28944
 Alpha  occ. eigenvalues --   -0.28447  -0.28333  -0.27651  -0.25822  -0.25221
 Alpha  occ. eigenvalues --   -0.24168  -0.24076  -0.22707  -0.21138  -0.17950
 Alpha  occ. eigenvalues --   -0.17741  -0.17020  -0.16097  -0.15032   0.04067
 Alpha virt. eigenvalues --    0.05442   0.06643   0.07672   0.07949   0.08883
 Alpha virt. eigenvalues --    0.09226   0.09741   0.10025   0.10235   0.10531
 Alpha virt. eigenvalues --    0.11054   0.11585   0.11876   0.12951   0.13275

  Beta  occ. eigenvalues --  -19.03456 -19.02730 -18.99471 -14.23086 -14.19843
  Beta  occ. eigenvalues --  -10.17493 -10.12836 -10.12708 -10.12529 -10.12014
  Beta  occ. eigenvalues --  -10.11443 -10.07520 -10.07302 -10.07005 -10.06415
  Beta  occ. eigenvalues --   -0.95203  -0.94414  -0.93481  -0.81015  -0.80180
  Beta  occ. eigenvalues --   -0.71741  -0.68149  -0.64219  -0.61910  -0.60495
  Beta  occ. eigenvalues --   -0.54647  -0.51700  -0.51041  -0.47174  -0.46282
  Beta  occ. eigenvalues --   -0.44621  -0.42272  -0.40674  -0.40155  -0.38618
  Beta  occ. eigenvalues --   -0.38081  -0.37789  -0.36165  -0.34243  -0.33355
  Beta  occ. eigenvalues --   -0.32523  -0.32408  -0.31147  -0.30712  -0.28914
  Beta  occ. eigenvalues --   -0.28422  -0.28311  -0.27623  -0.25802  -0.25196
  Beta  occ. eigenvalues --   -0.24142  -0.24053  -0.22677  -0.21119  -0.17930
  Beta  occ. eigenvalues --   -0.17679  -0.16999  -0.16075  -0.15013
  Beta virt. eigenvalues --    0.06098   0.07073   0.07140   0.07857   0.08501
  Beta virt. eigenvalues --    0.09284   0.09762   0.09976   0.10097   0.10578
  Beta virt. eigenvalues --    0.10693   0.11569   0.11936   0.12063   0.13053

 Mulliken charges and spin densities:
               1          2
     1  C   -0.100863  -0.394603
     2  C    0.028206  -0.233400
     3  O   -0.103634   0.024140
     4  C    0.084650  -0.318124
     5  C    0.054189  -0.315698
     6  O   -0.001898   0.008823
     7  C   -0.517981   0.603690
     8  C   -0.340424   0.214097
     9  C    0.802801  -1.478286
    10  C   -0.167769   0.342550
    11  C    0.036561  -1.178311
    12  C   -0.109032   0.149705
    13  O   -0.353618   0.007800
    14  N   -0.212325  -0.164844
    15  N   -0.164683  -0.069649
    16  H   -0.042545   0.171097
    17  H   -0.361721   0.499446
    18  H    0.235325  -0.021422
    19  H   -0.202112   0.317506
    20  H   -0.035404   0.184353
    21  H    0.107781   0.036649
    22  H   -0.391575   0.542652
    23  H   -0.190798   0.359405
    24  H    0.120799   0.032695
    25  H    1.108146  -0.695188
    26  H    0.115821   0.041956
    27  H   -0.060541   0.233951
    28  H    0.079166   0.072802
    29  H   -0.146084   0.333487
    30  H   -0.113561   0.271974
    31  H    0.043128   0.141767
    32  H   -0.275076   0.542202
    33  H   -0.288417   0.608919
    34  H    0.145571   0.085319
    35  H    0.217917   0.042541
 Sum of Mulliken charges =  -1.00000   1.00000

 Dipole moment (field-independent basis, Debye):
    X=              3.3191    Y=              1.9472    Z=              0.4698  Tot=              3.8767
 Quadrupole moment (field-independent basis, Debye-Ang):
   XX=           -193.7994   YY=           -139.7093   ZZ=           -118.7574
   XY=            -12.0057   XZ=              2.7315   YZ=              1.0061

 Summary of Natural Population Analysis:

                                       Natural Population
                Natural  -----------------------------------------------
    Atom  No    Charge         Core      Valence    Rydberg      Total
 -----------------------------------------------------------------------
      C    1   -0.30577      0.99966     2.30106    0.00504     3.30577
      C    2   -0.00764      0.99960     1.99631    0.01174     3.00764
      O    3   -0.30668      0.99988     3.29696    0.00984     4.30668
      C    4   -0.02670      0.99958     2.01521    0.01191     3.02670
      C    5   -0.01737      0.99956     2.00481    0.01300     3.01737
      O    6   -0.30081      0.99988     3.29192    0.00901     4.30081
      C    7    0.05784      0.99949     1.92697    0.01570     2.94216
      C    8   -0.20665      0.99961     2.19885    0.00819     3.20665
      C    9   -0.18515      0.99960     2.17628    0.00927     3.18515
      C   10    0.01868      0.99953     1.96714    0.01465     2.98132
      C   11   -0.19154      0.99957     2.18082    0.01114     3.19154
      C   12    0.33691      0.99961     1.63868    0.02479     2.66309
      O   13   -0.32992      0.99988     3.32386    0.00618     4.32992
      N   14   -0.39987      0.99970     2.89104    0.00912     3.89987
      N   15   -0.42009      0.99976     2.91112    0.00921     3.92009
      H   16    0.09665      0.00000     0.40225    0.00111     0.40335
      H   17    0.09976      0.00000     0.39915    0.00109     0.40024
      H   18    0.10991      0.00000     0.38888    0.00121     0.39009
      H   19    0.07741      0.00000     0.42082    0.00177     0.42259
      H   20    0.08742      0.00000     0.41152    0.00106     0.41258
      H   21    0.08464      0.00000     0.41382    0.00155     0.41536
      H   22    0.08372      0.00000     0.41463    0.00165     0.41628
      H   23    0.09120      0.00000     0.40776    0.00104     0.40880
      H   24    0.08376      0.00000     0.41477    0.00146     0.41624
      H   25    0.09501      0.00000     0.40140    0.00359     0.40499
      H   26    0.10714      0.00000     0.39151    0.00135     0.39286
      H   27    0.10082      0.00000     0.39786    0.00132     0.39918
      H   28    0.10144      0.00000     0.39748    0.00108     0.39856
      H   29    0.10351      0.00000     0.39501    0.00149     0.39649
      H   30    0.10508      0.00000     0.39270    0.00222     0.39492
      H   31    0.10295      0.00000     0.39599    0.00106     0.39705
      H   32    0.20045      0.00000     0.28891    0.01063     0.29955
      H   33    0.19809      0.00000     0.29775    0.00416     0.30191
      H   34    0.17441      0.00000     0.32402    0.00157     0.32559
      H   35    0.18140      0.00000     0.31692    0.00168     0.31860
 =======================================================================
   * Total *   -0.00000     14.99493    43.79418    0.21089    59.00000

 Normal termination of Gaussian 16 at Thu Dec 10 17:44:16 2020.
