 Gaussian 16, Revision A.03,

 -----------------------------------------------------------
 # opt freq B3LYP/6-31G(d) empiricaldispersion=gd3bj scf=xqc
 -----------------------------------------------------------

 -------------------------------
 CID_115359038_JID_4224_neutraal
 -------------------------------
 Symbolic Z-matrix:
 Charge =  0 Multiplicity = 1

 SCF Done:  E(RB3LYP) =  -603.564480832     A.U. after   12 cycles
 SCF Done:  E(RB3LYP) =  -603.567388777     A.U. after   10 cycles
 SCF Done:  E(RB3LYP) =  -603.567462166     A.U. after   10 cycles
 SCF Done:  E(RB3LYP) =  -603.567926663     A.U. after   11 cycles
 SCF Done:  E(RB3LYP) =  -603.568248569     A.U. after   10 cycles
 SCF Done:  E(RB3LYP) =  -603.568363108     A.U. after   10 cycles
 SCF Done:  E(RB3LYP) =  -603.568389518     A.U. after    9 cycles
 SCF Done:  E(RB3LYP) =  -603.568395010     A.U. after    8 cycles
 SCF Done:  E(RB3LYP) =  -603.568397332     A.U. after    8 cycles
 SCF Done:  E(RB3LYP) =  -603.568398502     A.U. after    7 cycles
 SCF Done:  E(RB3LYP) =  -603.568399162     A.U. after    7 cycles
 SCF Done:  E(RB3LYP) =  -603.568399309     A.U. after    6 cycles
 SCF Done:  E(RB3LYP) =  -603.568399322     A.U. after    6 cycles
 Optimization completed.
    -- Stationary point found.
 Normal termination of Gaussian 16 at Thu Dec 10 09:22:39 2020.

 --------------------------------------------------------------------
 #N Geom=AllCheck Guess=TCheck SCRF=Check GenChk RB3LYP/6-31G(d) Freq
 --------------------------------------------------------------------

 Structure from the checkpoint file:  "JID_4224.chk"
 -------------------------------
 CID_115359038_JID_4224_neutraal
 -------------------------------
 Charge =  0 Multiplicity = 1

 SCF Done:  E(RB3LYP) =  -603.568399322     A.U. after    1 cycles

  Exact polarizability: 164.189  -0.324 124.890  -0.972  -1.322 125.411
 Approx polarizability: 192.726   0.374 179.782  -0.650   0.360 186.514

                      1                      2                      3
                      A                      A                      A
 Frequencies --     26.3131                28.1923                46.3477
 Red. masses --      3.7106                 3.5449                 2.8338
 Frc consts  --      0.0015                 0.0017                 0.0036
 IR Inten    --      0.1585                 0.3518                 0.3381

                      4                      5                      6
                      A                      A                      A
 Frequencies --     62.4771                76.1309               105.8195
 Red. masses --      3.2732                 3.1072                 3.3229
 Frc consts  --      0.0075                 0.0106                 0.0219
 IR Inten    --      0.5045                 0.7237                 0.1330

                      7                      8                      9
                      A                      A                      A
 Frequencies --    140.6255               156.6082               197.8749
 Red. masses --      2.5660                 2.1111                 2.8012
 Frc consts  --      0.0299                 0.0305                 0.0646
 IR Inten    --      0.9774                 1.6304                 1.0418

                     10                     11                     12
                      A                      A                      A
 Frequencies --    206.1004               224.9503               228.5749
 Red. masses --      2.4163                 1.0790                 1.4808
 Frc consts  --      0.0605                 0.0322                 0.0456
 IR Inten    --      3.6024                 1.0213                 0.3644

                     13                     14                     15
                      A                      A                      A
 Frequencies --    250.3165               279.9778               283.0779
 Red. masses --      1.1897                 1.8684                 2.3615
 Frc consts  --      0.0439                 0.0863                 0.1115
 IR Inten    --     15.6497                 3.2719                 5.1305

                     16                     17                     18
                      A                      A                      A
 Frequencies --    296.1648               302.6920               321.6354
 Red. masses --      2.0103                 1.4551                 1.7164
 Frc consts  --      0.1039                 0.0786                 0.1046
 IR Inten    --      1.5088                32.9390                66.2362

                     19                     20                     21
                      A                      A                      A
 Frequencies --    340.2661               353.6395               371.6750
 Red. masses --      2.0986                 1.7905                 2.2254
 Frc consts  --      0.1432                 0.1319                 0.1811
 IR Inten    --      4.4164                 3.0540                 3.1185

                     22                     23                     24
                      A                      A                      A
 Frequencies --    390.8781               431.6361               472.1903
 Red. masses --      1.9694                 1.8871                 1.9813
 Frc consts  --      0.1773                 0.2071                 0.2603
 IR Inten    --      1.7629                 5.6111                 4.2510

                     25                     26                     27
                      A                      A                      A
 Frequencies --    524.8630               535.5613               593.5925
 Red. masses --      3.1642                 2.4644                 2.4513
 Frc consts  --      0.5136                 0.4165                 0.5089
 IR Inten    --      3.4659                 2.8683                 2.0314

                     28                     29                     30
                      A                      A                      A
 Frequencies --    655.8881               717.5981               746.2723
 Red. masses --      1.5686                 1.2387                 1.5468
 Frc consts  --      0.3976                 0.3758                 0.5075
 IR Inten    --     82.5116                13.1415                 0.1267

                     31                     32                     33
                      A                      A                      A
 Frequencies --    770.8433               811.2771               826.4552
 Red. masses --      2.7914                 1.6418                 2.1722
 Frc consts  --      0.9773                 0.6367                 0.8742
 IR Inten    --     14.7543                 0.9468                 0.4101

                     34                     35                     36
                      A                      A                      A
 Frequencies --    871.3537               892.0210               900.3611
 Red. masses --      1.7304                 2.1615                 1.7977
 Frc consts  --      0.7741                 1.0134                 0.8586
 IR Inten    --      3.8113                10.4878                 3.3601

                     37                     38                     39
                      A                      A                      A
 Frequencies --    913.7926               931.2943               958.0211
 Red. masses --      1.9071                 1.5620                 1.4477
 Frc consts  --      0.9383                 0.7982                 0.7828
 IR Inten    --      0.5849                 4.3590                 1.6025

                     40                     41                     42
                      A                      A                      A
 Frequencies --    963.5826               993.3217               999.8808
 Red. masses --      1.5285                 1.6965                 1.7785
 Frc consts  --      0.8362                 0.9863                 1.0476
 IR Inten    --      0.9808                 4.6503                 4.5813

                     43                     44                     45
                      A                      A                      A
 Frequencies --   1012.8761              1041.1314              1058.8213
 Red. masses --      1.5209                 1.4398                 1.4183
 Frc consts  --      0.9193                 0.9195                 0.9368
 IR Inten    --     15.0179                11.2112                 1.7863

                     46                     47                     48
                      A                      A                      A
 Frequencies --   1074.2960              1076.8784              1091.0722
 Red. masses --      1.8065                 1.7324                 3.9710
 Frc consts  --      1.2284                 1.1837                 2.7852
 IR Inten    --      5.5956                 7.2809                51.4265

                     49                     50                     51
                      A                      A                      A
 Frequencies --   1117.4229              1144.0529              1155.9938
 Red. masses --      2.3035                 1.6660                 2.0476
 Frc consts  --      1.6947                 1.2848                 1.6122
 IR Inten    --      0.5570                 6.2975                 3.0574

                     52                     53                     54
                      A                      A                      A
 Frequencies --   1170.4105              1178.9127              1205.9314
 Red. masses --      1.9525                 2.4235                 1.4258
 Frc consts  --      1.5759                 1.9845                 1.2217
 IR Inten    --     47.3168                33.0337                 2.6454

                     55                     56                     57
                      A                      A                      A
 Frequencies --   1227.8678              1240.0227              1265.3485
 Red. masses --      1.3761                 1.8796                 2.1828
 Frc consts  --      1.2224                 1.7029                 2.0591
 IR Inten    --      0.5839                 3.0948                 3.9787

                     58                     59                     60
                      A                      A                      A
 Frequencies --   1276.2796              1290.0238              1301.7265
 Red. masses --      1.4123                 1.5930                 1.4554
 Frc consts  --      1.3554                 1.5620                 1.4530
 IR Inten    --      5.4291                 4.4854                 1.0497

                     61                     62                     63
                      A                      A                      A
 Frequencies --   1321.6804              1345.1278              1366.7502
 Red. masses --      1.2004                 1.1283                 1.1925
 Frc consts  --      1.2355                 1.2028                 1.3125
 IR Inten    --      2.0889                 0.8623                 5.7549

                     64                     65                     66
                      A                      A                      A
 Frequencies --   1377.7848              1387.0401              1391.8400
 Red. masses --      1.3501                 1.4694                 1.3058
 Frc consts  --      1.5100                 1.6656                 1.4904
 IR Inten    --     17.9402                 4.7832                 4.8988

                     67                     68                     69
                      A                      A                      A
 Frequencies --   1402.1290              1411.7149              1417.6141
 Red. masses --      1.3485                 1.2970                 1.4030
 Frc consts  --      1.5620                 1.5229                 1.6612
 IR Inten    --      0.7601                 3.5047                 0.1411

                     70                     71                     72
                      A                      A                      A
 Frequencies --   1422.6137              1426.3929              1432.6641
 Red. masses --      1.3911                 1.2751                 1.2476
 Frc consts  --      1.6587                 1.5286                 1.5087
 IR Inten    --      1.7417                 9.1455                14.1806

                     73                     74                     75
                      A                      A                      A
 Frequencies --   1437.0190              1443.4488              1456.4809
 Red. masses --      1.3339                 1.2729                 1.2535
 Frc consts  --      1.6230                 1.5626                 1.5667
 IR Inten    --      8.5675                 5.2872                23.1819

                     76                     77                     78
                      A                      A                      A
 Frequencies --   1503.4007              1507.3560              1511.8081
 Red. masses --      1.1019                 1.0911                 1.1283
 Frc consts  --      1.4673                 1.4607                 1.5193
 IR Inten    --      2.8031                 1.0709                25.3936

                     79                     80                     81
                      A                      A                      A
 Frequencies --   1516.3441              1519.7517              1521.4252
 Red. masses --      1.0737                 1.0746                 1.0573
 Frc consts  --      1.4546                 1.4624                 1.4419
 IR Inten    --      2.1785                 7.0931                 4.0464

                     82                     83                     84
                      A                      A                      A
 Frequencies --   1524.6429              1527.6337              1529.6959
 Red. masses --      1.0894                 1.0923                 1.0747
 Frc consts  --      1.4920                 1.5018                 1.4816
 IR Inten    --      5.7475                 1.8779                 3.3257

                     85                     86                     87
                      A                      A                      A
 Frequencies --   1534.7746              1536.1540              1539.9666
 Red. masses --      1.0661                 1.0588                 1.0733
 Frc consts  --      1.4795                 1.4721                 1.4997
 IR Inten    --      7.8028                 4.9289                14.4437

                     88                     89                     90
                      A                      A                      A
 Frequencies --   1546.3987              1548.3024              1555.3545
 Red. masses --      1.0825                 1.0768                 1.0884
 Frc consts  --      1.5252                 1.5209                 1.5513
 IR Inten    --      3.8271                14.9222                15.1557

                     91                     92                     93
                      A                      A                      A
 Frequencies --   2989.1313              3001.2450              3007.3656
 Red. masses --      1.0731                 1.0696                 1.0713
 Frc consts  --      5.6492                 5.6765                 5.7089
 IR Inten    --     68.9793                84.7604                25.1914

                     94                     95                     96
                      A                      A                      A
 Frequencies --   3026.0326              3031.7212              3034.3653
 Red. masses --      1.0652                 1.0639                 1.0360
 Frc consts  --      5.7470                 5.7615                 5.6204
 IR Inten    --      5.6208                37.5460                43.8470

                     97                     98                     99
                      A                      A                      A
 Frequencies --   3035.4391              3040.0677              3040.4084
 Red. masses --      1.0608                 1.0368                 1.0623
 Frc consts  --      5.7587                 5.6458                 5.7855
 IR Inten    --     45.1193                16.7397                 9.2634

                    100                    101                    102
                      A                      A                      A
 Frequencies --   3043.5354              3045.3879              3057.9159
 Red. masses --      1.0500                 1.0559                 1.0966
 Frc consts  --      5.7307                 5.7695                 6.0416
 IR Inten    --     10.7676                12.1083                 6.4299

                    103                    104                    105
                      A                      A                      A
 Frequencies --   3063.9336              3067.1426              3073.4566
 Red. masses --      1.0954                 1.0911                 1.0961
 Frc consts  --      6.0589                 6.0478                 6.1005
 IR Inten    --     37.9402                42.9285                80.7340

                    106                    107                    108
                      A                      A                      A
 Frequencies --   3078.7196              3087.7906              3093.3371
 Red. masses --      1.1004                 1.1031                 1.0963
 Frc consts  --      6.1454                 6.1967                 6.1808
 IR Inten    --    128.4677                45.9385                 2.1879

                    109                    110                    111
                      A                      A                      A
 Frequencies --   3097.9004              3099.8672              3107.6623
 Red. masses --      1.0969                 1.0997                 1.1021
 Frc consts  --      6.2021                 6.2261                 6.2711
 IR Inten    --     44.9883                44.7094                 0.7511

                    112                    113                    114
                      A                      A                      A
 Frequencies --   3108.5985              3112.3326              3115.8773
 Red. masses --      1.1015                 1.1007                 1.1018
 Frc consts  --      6.2713                 6.2817                 6.3024
 IR Inten    --     49.0747                58.3981                55.6552

                    115                    116                    117
                      A                      A                      A
 Frequencies --   3116.4687              3538.3612              3753.0511
 Red. masses --      1.0908                 1.0728                 1.0659
 Frc consts  --      6.2422                 7.9134                 8.8457
 IR Inten    --     46.6944                 0.6576                10.9313

 - Thermochemistry -
 -------------------
 Temperature   298.150 Kelvin.  Pressure   1.00000 Atm.
 Atom     1 has atomic number  6 and mass  12.00000

 Molecular mass:   201.20926 amu.
 Principal axes and moments of inertia in atomic units:
                           1         2         3
     Eigenvalues --  1522.853436577.554826815.57819
           X            0.99999  -0.00194  -0.00273
           Y            0.00176   0.99799  -0.06328
           Z            0.00284   0.06328   0.99799
 This molecule is an asymmetric top.
 Rotational symmetry number  1.
 Warning -- assumption of classical behavior for rotation
           may cause significant error
 Rotational temperatures (Kelvin)      0.05688     0.01317     0.01271
 Rotational constants (GHZ):           1.18510     0.27438     0.26480
 Zero-point vibrational energy    1010603.1 (Joules/Mol)
                                  241.53993 (Kcal/Mol)
 Warning -- explicit consideration of  27 degrees of freedom as
           vibrations may cause significant error
 Vibrational temperatures:     37.86    40.56    66.68    89.89   109.54
          (Kelvin)            152.25   202.33   225.32   284.70   296.53
                              323.65   328.87   360.15   402.83   407.29
                              426.12   435.51   462.76   489.57   508.81
                              534.76   562.39   621.03   679.38   755.16
                              770.55   854.05   943.68  1032.46  1073.72
                             1109.07  1167.25  1189.08  1253.68  1283.42
                             1295.42  1314.74  1339.92  1378.38  1386.38
                             1429.17  1438.61  1457.30  1497.96  1523.41
                             1545.67  1549.39  1569.81  1607.72  1646.04
                             1663.22  1683.96  1696.19  1735.07  1766.63
                             1784.12  1820.55  1836.28  1856.06  1872.89
                             1901.60  1935.34  1966.45  1982.33  1995.64
                             2002.55  2017.35  2031.14  2039.63  2046.82
                             2052.26  2061.28  2067.55  2076.80  2095.55
                             2163.06  2168.75  2175.15  2181.68  2186.58
                             2188.99  2193.62  2197.92  2200.89  2208.20
                             2210.18  2215.67  2224.92  2227.66  2237.81
                             4300.69  4318.12  4326.93  4353.79  4361.97
                             4365.77  4367.32  4373.98  4374.47  4378.97
                             4381.63  4399.66  4408.32  4412.93  4422.02
                             4429.59  4442.64  4450.62  4457.19  4460.02
                             4471.23  4472.58  4477.95  4483.05  4483.90
                             5090.91  5399.80

 Zero-point correction=                           0.384918 (Hartree/Particle)
 Thermal correction to Energy=                    0.402755
 Thermal correction to Enthalpy=                  0.403699
 Thermal correction to Gibbs Free Energy=         0.338566
 Sum of electronic and zero-point Energies=           -603.183481
 Sum of electronic and thermal Energies=              -603.165645
 Sum of electronic and thermal Enthalpies=            -603.164700
 Sum of electronic and thermal Free Energies=         -603.229834

                     E (Thermal)             CV                S
                      KCal/Mol        Cal/Mol-Kelvin    Cal/Mol-Kelvin
 Total                  252.732             66.730            137.084
 Electronic               0.000              0.000              0.000
 Translational            0.889              2.981             41.802
 Rotational               0.889              2.981             32.590
 Vibrational            250.955             60.769             62.692
 Vibration     1          0.593              1.985              6.090
 Vibration     2          0.593              1.984              5.953
 Vibration     3          0.595              1.979              4.967
 Vibration     4          0.597              1.972              4.377
 Vibration     5          0.599              1.965              3.988
 Vibration     6          0.605              1.945              3.344
 Vibration     7          0.615              1.913              2.795
 Vibration     8          0.620              1.895              2.590
 Vibration     9          0.637              1.843              2.153
 Vibration    10          0.641              1.831              2.078
 Vibration    11          0.650              1.803              1.919
 Vibration    12          0.651              1.797              1.890
 Vibration    13          0.663              1.762              1.728
 Vibration    14          0.680              1.711              1.534
 Vibration    15          0.682              1.705              1.515
 Vibration    16          0.690              1.681              1.438
 Vibration    17          0.694              1.669              1.402
 Vibration    18          0.707              1.632              1.302
 Vibration    19          0.720              1.595              1.211
 Vibration    20          0.730              1.568              1.150
 Vibration    21          0.743              1.530              1.073
 Vibration    22          0.759              1.490              0.997
 Vibration    23          0.793              1.401              0.853
 Vibration    24          0.829              1.312              0.731
 Vibration    25          0.880              1.195              0.599
 Vibration    26          0.891              1.171              0.575
 Vibration    27          0.951              1.045              0.461

 Optimization completed.
    -- Stationary point found.
 Normal termination of Gaussian 16 at Thu Dec 10 09:34:40 2020.

 ----------------------------------------------------------------------
 # B3LYP/6-311++G(d,p) empiricaldispersion=gd3bj scf=xqc pop=npa geom=c
 heck
 ----------------------------------------------------------------------

 ---------------------------------------
 CID_115359038_JID_4224_Energie_neutraal
 ---------------------------------------
 Structure from the checkpoint file:  "JID_4224.chk"
 Charge =  0 Multiplicity = 1

 SCF Done:  E(RB3LYP) =  -603.753850625     A.U. after   13 cycles
 Normal termination of Gaussian 16 at Thu Dec 10 09:40:59 2020.

 ----------------------------------------------------------------------
 # B3LYP/6-311++G(d,p) empiricaldispersion=gd3bj scf=xqc pop=npa geom=c
 heck
 ----------------------------------------------------------------------

 -------------------------------------
 CID_115359038_JID_4224_Energie_kation
 -------------------------------------
 Structure from the checkpoint file:  "JID_4224.chk"
 Charge =  1 Multiplicity = 2

 SCF Done:  E(UB3LYP) =  -603.463554406     A.U. after   18 cycles
 Normal termination of Gaussian 16 at Thu Dec 10 09:53:08 2020.
 Gaussian 16:  ES64L-G16RevA.03 25-Dec-2016

 ----------------------------------------------------------------------
 # B3LYP/6-311++G(d,p) empiricaldispersion=gd3bj scf=xqc pop=npa geom=c
 heck
 ----------------------------------------------------------------------

 ------------------------------------
 CID_115359038_JID_4224_Energie_anion
 ------------------------------------
 Structure from the checkpoint file:  "JID_4224.chk"
 Charge = -1 Multiplicity = 2

                         Standard orientation:
 ---------------------------------------------------------------------
 Center     Atomic      Atomic             Coordinates (Angstroms)
 Number     Number       Type             X           Y           Z
 ---------------------------------------------------------------------
      1          6           0        5.154239   -0.685533    0.680515
      2          6           0        4.234814   -0.627756   -0.542986
      3          6           0        2.790210   -1.065877   -0.258631
      4          6           0        2.056624   -0.235784    0.806810
      5          6           0        1.984869    1.272908    0.521404
      6          6           0        1.330057    1.658338   -0.816210
      7          6           0       -0.065178    1.068121   -1.038646
      8          7           0       -0.994174    1.515564   -0.003785
      9          6           0       -2.394389    1.145695   -0.151048
     10          6           0       -2.873976   -0.216253    0.425389
     11          6           0       -2.635127   -0.271694    1.942041
     12          6           0       -4.381987   -0.338178    0.147249
     13          6           0       -2.130921   -1.402699   -0.214626
     14          8           0       -2.166530   -1.417781   -1.636816
     15          1           0        4.837782    0.017639    1.458965
     16          1           0        6.186854   -0.436208    0.411908
     17          1           0        5.156966   -1.689416    1.123353
     18          1           0        4.239577    0.390135   -0.954526
     19          1           0        4.643803   -1.272462   -1.331936
     20          1           0        2.220554   -1.039056   -1.196100
     21          1           0        2.795158   -2.116999    0.062434
     22          1           0        1.039465   -0.636317    0.916830
     23          1           0        2.537869   -0.383429    1.782147
     24          1           0        1.444866    1.761384    1.343907
     25          1           0        2.996203    1.698311    0.548875
     26          1           0        1.263555    2.751697   -0.871530
     27          1           0        1.971915    1.334885   -1.645823
     28          1           0       -0.453651    1.424103   -2.000471
     29          1           0        0.010907   -0.026104   -1.137393
     30          1           0       -0.648779    1.283713    0.922239
     31          1           0       -3.008715    1.923851    0.327262
     32          1           0       -2.628846    1.172635   -1.220411
     33          1           0       -3.150675    0.552045    2.449413
     34          1           0       -3.005941   -1.211742    2.367857
     35          1           0       -1.568020   -0.203494    2.186672
     36          1           0       -4.597859   -0.298021   -0.928206
     37          1           0       -4.783836   -1.279454    0.542143
     38          1           0       -4.936104    0.483475    0.614831
     39          1           0       -1.070807   -1.362516    0.049720
     40          1           0       -2.531141   -2.344151    0.197215
     41          1           0       -3.085050   -1.568939   -1.905912
 ---------------------------------------------------------------------

 SCF Done:  E(UB3LYP) =  -603.740798930     A.U. after   27 cycles

 The electronic state is 2-A.
 Alpha  occ. eigenvalues --  -19.02475 -14.19628 -10.11381 -10.09032 -10.08988
 Alpha  occ. eigenvalues --  -10.08408 -10.07560 -10.07300 -10.07142 -10.07108
 Alpha  occ. eigenvalues --  -10.07097 -10.06814 -10.06566 -10.06220  -0.92598
 Alpha  occ. eigenvalues --   -0.80723  -0.72360  -0.71286  -0.67825  -0.63183
 Alpha  occ. eigenvalues --   -0.59709  -0.59030  -0.57964  -0.56050  -0.53364
 Alpha  occ. eigenvalues --   -0.49025  -0.45702  -0.44947  -0.41983  -0.39236
 Alpha  occ. eigenvalues --   -0.38886  -0.37490  -0.36776  -0.36028  -0.34963
 Alpha  occ. eigenvalues --   -0.33920  -0.32932  -0.31980  -0.31338  -0.30532
 Alpha  occ. eigenvalues --   -0.29085  -0.28729  -0.28624  -0.28008  -0.27595
 Alpha  occ. eigenvalues --   -0.27444  -0.25517  -0.25356  -0.25066  -0.24262
 Alpha  occ. eigenvalues --   -0.23493  -0.22509  -0.22425  -0.21992  -0.21906
 Alpha  occ. eigenvalues --   -0.17782  -0.12141   0.04147
 Alpha virt. eigenvalues --    0.05485   0.06783   0.07413   0.07802   0.08023
 Alpha virt. eigenvalues --    0.08367   0.09346   0.09640   0.09957   0.10448
 Alpha virt. eigenvalues --    0.10761   0.10885   0.11414   0.11693   0.12585

  Beta  occ. eigenvalues --  -19.02447 -14.19620 -10.11361 -10.09027 -10.08976
  Beta  occ. eigenvalues --  -10.08406 -10.07550 -10.07291 -10.07133 -10.07095
  Beta  occ. eigenvalues --  -10.07093 -10.06783 -10.06538 -10.06170  -0.92539
  Beta  occ. eigenvalues --   -0.80711  -0.72338  -0.71260  -0.67803  -0.63155
  Beta  occ. eigenvalues --   -0.59638  -0.58991  -0.57896  -0.56005  -0.53320
  Beta  occ. eigenvalues --   -0.48991  -0.45638  -0.44911  -0.41938  -0.39207
  Beta  occ. eigenvalues --   -0.38856  -0.37455  -0.36740  -0.35989  -0.34931
  Beta  occ. eigenvalues --   -0.33893  -0.32904  -0.31955  -0.31307  -0.30501
  Beta  occ. eigenvalues --   -0.29054  -0.28692  -0.28590  -0.27975  -0.27565
  Beta  occ. eigenvalues --   -0.27417  -0.25491  -0.25331  -0.25040  -0.24240
  Beta  occ. eigenvalues --   -0.23459  -0.22478  -0.22409  -0.21968  -0.21884
  Beta  occ. eigenvalues --   -0.17751  -0.12127
  Beta virt. eigenvalues --    0.06011   0.06650   0.07290   0.07591   0.08140
  Beta virt. eigenvalues --    0.08521   0.08912   0.09672   0.09932   0.10177
  Beta virt. eigenvalues --    0.10699   0.11035   0.11207   0.11629   0.11866

 Mulliken charges and spin densities:
               1          2
     1  C    0.710673  -1.336017
     2  C   -0.790542   0.542954
     3  C    0.199417  -0.413166
     4  C    0.113917  -0.144249
     5  C   -0.139388  -0.178417
     6  C   -0.528242   0.023722
     7  C   -0.430367  -0.001270
     8  N    0.023430   0.077795
     9  C    0.496915  -1.202027
    10  C   -1.667191   2.343655
    11  C    0.554901  -1.105907
    12  C    0.889995  -1.289883
    13  C    0.544512  -1.224951
    14  O   -0.168604   0.000221
    15  H   -0.084263   0.220303
    16  H   -0.311000   0.447344
    17  H   -0.100204   0.236647
    18  H    0.086639   0.038718
    19  H   -0.059534   0.204858
    20  H   -0.008432   0.164686
    21  H   -0.049723   0.201375
    22  H    0.314692  -0.201493
    23  H   -0.182389   0.370794
    24  H    0.034747   0.133279
    25  H    0.037868   0.117253
    26  H    0.139718   0.024341
    27  H    0.072174   0.059865
    28  H    0.085127   0.064237
    29  H    0.349984  -0.272486
    30  H    0.235316  -0.038358
    31  H    0.091347   0.081041
    32  H    0.109267   0.046960
    33  H   -0.072555   0.229536
    34  H   -0.192708   0.348529
    35  H   -0.180855   0.285436
    36  H   -0.314287   0.441782
    37  H   -0.401326   0.560278
    38  H   -0.195070   0.337859
    39  H   -0.085458   0.251915
    40  H   -0.129556   0.292506
    41  H    0.001053   0.260337
 Sum of Mulliken charges =  -1.00000   1.00000

 Dipole moment (field-independent basis, Debye):
    X=              2.2846    Y=              2.9549    Z=             -1.4112  Tot=              3.9928
 Quadrupole moment (field-independent basis, Debye-Ang):
   XX=           -206.3904   YY=           -132.4957   ZZ=           -130.0756
   XY=             -2.9069   XZ=             -4.3079   YZ=             -1.3294

 Summary of Natural Population Analysis:

                                       Natural Population
                Natural  -----------------------------------------------
    Atom  No    Charge         Core      Valence    Rydberg      Total
 -----------------------------------------------------------------------
      C    1   -0.28820      0.99967     2.28355    0.00498     3.28820
      C    2   -0.19274      0.99964     2.18443    0.00867     3.19274
      C    3   -0.19205      0.99963     2.18359    0.00884     3.19205
      C    4   -0.19540      0.99962     2.18706    0.00872     3.19540
      C    5   -0.19509      0.99963     2.18683    0.00864     3.19509
      C    6   -0.19261      0.99962     2.18530    0.00768     3.19261
      C    7   -0.08505      0.99961     2.07617    0.00926     3.08505
      N    8   -0.34784      0.99974     2.83666    0.01144     3.84784
      C    9   -0.08234      0.99957     2.06919    0.01358     3.08234
      C   10   -0.06785      0.99957     2.05545    0.01283     3.06785
      C   11   -0.28792      0.99962     2.28075    0.00756     3.28792
      C   12   -0.29011      0.99962     2.28204    0.00844     3.29011
      C   13   -0.00794      0.99951     1.99471    0.01372     3.00794
      O   14   -0.37065      0.99990     3.36430    0.00645     4.37065
      H   15    0.09683      0.00000     0.40212    0.00105     0.40317
      H   16    0.09858      0.00000     0.40041    0.00101     0.40142
      H   17    0.09630      0.00000     0.40260    0.00110     0.40370
      H   18    0.09241      0.00000     0.40651    0.00109     0.40759
      H   19    0.09507      0.00000     0.40401    0.00092     0.40493
      H   20    0.09693      0.00000     0.40174    0.00133     0.40307
      H   21    0.09664      0.00000     0.40242    0.00093     0.40336
      H   22    0.09609      0.00000     0.40212    0.00180     0.40391
      H   23    0.09829      0.00000     0.40062    0.00109     0.40171
      H   24    0.09630      0.00000     0.40261    0.00109     0.40370
      H   25    0.09715      0.00000     0.40178    0.00107     0.40285
      H   26    0.09798      0.00000     0.40084    0.00119     0.40202
      H   27    0.09480      0.00000     0.40416    0.00104     0.40520
      H   28    0.09238      0.00000     0.40652    0.00110     0.40762
      H   29    0.08330      0.00000     0.41459    0.00211     0.41670
      H   30    0.17258      0.00000     0.32371    0.00371     0.32742
      H   31    0.09045      0.00000     0.40838    0.00116     0.40955
      H   32    0.09901      0.00000     0.39966    0.00134     0.40099
      H   33    0.10165      0.00000     0.39735    0.00100     0.39835
      H   34    0.10368      0.00000     0.39522    0.00110     0.39632
      H   35    0.09700      0.00000     0.40148    0.00152     0.40300
      H   36    0.09856      0.00000     0.39965    0.00179     0.40144
      H   37    0.10339      0.00000     0.39494    0.00167     0.39661
      H   38    0.10272      0.00000     0.39602    0.00126     0.39728
      H   39    0.08717      0.00000     0.41086    0.00197     0.41283
      H   40    0.08038      0.00000     0.41818    0.00144     0.41962
      H   41    0.23017      0.00000     0.26600    0.00383     0.26983
 =======================================================================
   * Total *    0.00000     13.99495    42.83452    0.17053    57.00000

 Normal termination of Gaussian 16 at Thu Dec 10 10:11:40 2020.
