 Gaussian 16, Revision A.03,

 -----------------------------------------------------------
 # opt freq B3LYP/6-31G(d) empiricaldispersion=gd3bj scf=xqc
 -----------------------------------------------------------

 -------------------------------
 CID_110849507_JID_9949_neutraal
 -------------------------------
 Symbolic Z-matrix:
 Charge =  0 Multiplicity = 1

 SCF Done:  E(RB3LYP) =  -841.253052913     A.U. after   16 cycles
 SCF Done:  E(RB3LYP) =  -841.259605811     A.U. after   13 cycles
 SCF Done:  E(RB3LYP) =  -841.260067803     A.U. after   13 cycles
 SCF Done:  E(RB3LYP) =  -841.260148150     A.U. after   12 cycles
 SCF Done:  E(RB3LYP) =  -841.260328853     A.U. after   11 cycles
 SCF Done:  E(RB3LYP) =  -841.260404994     A.U. after   11 cycles
 SCF Done:  E(RB3LYP) =  -841.260446231     A.U. after   11 cycles
 SCF Done:  E(RB3LYP) =  -841.260459738     A.U. after   10 cycles
 SCF Done:  E(RB3LYP) =  -841.260467565     A.U. after   10 cycles
 SCF Done:  E(RB3LYP) =  -841.260468264     A.U. after    8 cycles
 SCF Done:  E(RB3LYP) =  -841.260469162     A.U. after    8 cycles
 SCF Done:  E(RB3LYP) =  -841.260470196     A.U. after    9 cycles
 SCF Done:  E(RB3LYP) =  -841.260470651     A.U. after    8 cycles
 SCF Done:  E(RB3LYP) =  -841.260470866     A.U. after    7 cycles
 SCF Done:  E(RB3LYP) =  -841.260470919     A.U. after    7 cycles
 Optimization completed.
    -- Stationary point found.
 Normal termination of Gaussian 16 at Sat Dec 12 10:13:18 2020.

 --------------------------------------------------------------------
 #N Geom=AllCheck Guess=TCheck SCRF=Check GenChk RB3LYP/6-31G(d) Freq
 --------------------------------------------------------------------

 Structure from the checkpoint file:  "JID_9949.chk"
 -------------------------------
 CID_110849507_JID_9949_neutraal
 -------------------------------
 Charge =  0 Multiplicity = 1

 SCF Done:  E(RB3LYP) =  -841.260470919     A.U. after    1 cycles

  Exact polarizability: 175.050 -28.210 170.522  19.478  19.779 156.751
 Approx polarizability: 239.560 -58.367 290.332  36.762  50.631 283.882

                      1                      2                      3
                      A                      A                      A
 Frequencies --     22.0300                27.6902                40.4917
 Red. masses --      5.0008                 4.2644                 3.9633
 Frc consts  --      0.0014                 0.0019                 0.0038
 IR Inten    --      0.5652                 0.1601                 2.1829

                      4                      5                      6
                      A                      A                      A
 Frequencies --     49.4510                73.6285                97.8872
 Red. masses --      3.3012                 6.6924                 4.5368
 Frc consts  --      0.0048                 0.0214                 0.0256
 IR Inten    --      0.6294                 1.7480                 1.4874

                      7                      8                      9
                      A                      A                      A
 Frequencies --    159.5492               173.3169               180.1090
 Red. masses --      6.5310                 3.9257                 4.7459
 Frc consts  --      0.0980                 0.0695                 0.0907
 IR Inten    --      0.3576                 0.5998                 0.5233

                     10                     11                     12
                      A                      A                      A
 Frequencies --    215.3333               264.0984               288.4648
 Red. masses --      2.9572                 2.5163                 3.3175
 Frc consts  --      0.0808                 0.1034                 0.1626
 IR Inten    --      1.2259                 2.2377                 3.3074

                     13                     14                     15
                      A                      A                      A
 Frequencies --    330.6848               369.0743               385.5664
 Red. masses --      5.8031                 4.5457                 4.0209
 Frc consts  --      0.3739                 0.3648                 0.3522
 IR Inten    --      6.4889                 2.2059                 0.3416

                     16                     17                     18
                      A                      A                      A
 Frequencies --    414.3196               439.0827               481.2569
 Red. masses --      2.2196                 3.2655                 4.0686
 Frc consts  --      0.2245                 0.3709                 0.5552
 IR Inten    --      1.5887                 3.4025                 3.6065

                     19                     20                     21
                      A                      A                      A
 Frequencies --    485.0979               518.5600               535.1776
 Red. masses --      4.3288                 4.6829                 7.2849
 Frc consts  --      0.6002                 0.7419                 1.2293
 IR Inten    --      8.0246                10.6049                 0.9369

                     22                     23                     24
                      A                      A                      A
 Frequencies --    596.7885               601.1068               620.6354
 Red. masses --      2.4075                 2.4634                 2.3115
 Frc consts  --      0.5052                 0.5244                 0.5246
 IR Inten    --      2.4781                 5.6015                68.8196

                     25                     26                     27
                      A                      A                      A
 Frequencies --    657.3770               705.3908               714.7445
 Red. masses --      3.3483                 3.5292                 3.2172
 Frc consts  --      0.8525                 1.0346                 0.9683
 IR Inten    --     21.6949                12.7149                13.3054

                     28                     29                     30
                      A                      A                      A
 Frequencies --    731.2259               771.6811               774.6145
 Red. masses --      5.3133                 1.4302                 5.6877
 Frc consts  --      1.6738                 0.5018                 2.0107
 IR Inten    --      3.9141                14.2440                36.2447

                     31                     32                     33
                      A                      A                      A
 Frequencies --    815.4714               819.4341               829.8608
 Red. masses --      5.9614                 2.3934                 2.5384
 Frc consts  --      2.3357                 0.9469                 1.0300
 IR Inten    --      1.0258                 5.8925                 0.5838

                     34                     35                     36
                      A                      A                      A
 Frequencies --    859.0388               866.5793               882.9533
 Red. masses --      1.5145                 3.5629                 1.7999
 Frc consts  --      0.6585                 1.5764                 0.8268
 IR Inten    --     47.2202                 9.3316                 4.0119

                     37                     38                     39
                      A                      A                      A
 Frequencies --    901.8291               934.4968               936.8501
 Red. masses --      2.0896                 1.6974                 1.8563
 Frc consts  --      1.0013                 0.8734                 0.9599
 IR Inten    --      7.9712                 3.1724                 4.9658

                     40                     41                     42
                      A                      A                      A
 Frequencies --    956.2422               960.0428               981.4343
 Red. masses --      1.4105                 2.8596                 1.5348
 Frc consts  --      0.7599                 1.5529                 0.8710
 IR Inten    --      0.4774                14.9746                 4.5866

                     43                     44                     45
                      A                      A                      A
 Frequencies --    984.1300               990.6441              1005.6787
 Red. masses --      2.0298                 1.3466                 2.1112
 Frc consts  --      1.1583                 0.7786                 1.2580
 IR Inten    --      8.7103                 1.0112                 3.7296

                     46                     47                     48
                      A                      A                      A
 Frequencies --   1018.6195              1074.1577              1095.0031
 Red. masses --      2.4494                 2.3514                 2.0680
 Frc consts  --      1.4974                 1.5985                 1.4609
 IR Inten    --      5.2948                14.3126                 0.0143

                     49                     50                     51
                      A                      A                      A
 Frequencies --   1097.9128              1113.0039              1118.5923
 Red. masses --      1.8961                 2.3196                 6.3062
 Frc consts  --      1.3467                 1.6930                 4.6490
 IR Inten    --      5.8469                 9.7168               179.4891

                     52                     53                     54
                      A                      A                      A
 Frequencies --   1179.3703              1189.9859              1208.1252
 Red. masses --      2.2185                 1.4270                 1.4167
 Frc consts  --      1.8181                 1.1906                 1.2183
 IR Inten    --      1.5670                 7.6077                 7.4918

                     55                     56                     57
                      A                      A                      A
 Frequencies --   1213.9854              1221.9499              1247.5315
 Red. masses --      1.7784                 1.4837                 1.9007
 Frc consts  --      1.5442                 1.3053                 1.7429
 IR Inten    --      3.5369                 8.2150                44.9279

                     58                     59                     60
                      A                      A                      A
 Frequencies --   1259.2655              1268.2172              1283.0109
 Red. masses --      1.8628                 1.3107                 1.3185
 Frc consts  --      1.7404                 1.2420                 1.2787
 IR Inten    --      7.9122                 2.8709                52.1956

                     61                     62                     63
                      A                      A                      A
 Frequencies --   1308.1175              1327.6660              1336.7954
 Red. masses --      1.9374                 1.2564                 1.4470
 Frc consts  --      1.9533                 1.3048                 1.5235
 IR Inten    --     20.0332                16.3969                 9.1392

                     64                     65                     66
                      A                      A                      A
 Frequencies --   1361.0908              1365.5121              1372.8397
 Red. masses --      1.3199                 3.1555                 1.7177
 Frc consts  --      1.4407                 3.4667                 1.9073
 IR Inten    --      7.4849                 5.4695                95.5297

                     67                     68                     69
                      A                      A                      A
 Frequencies --   1398.3090              1411.5574              1415.4774
 Red. masses --      1.5974                 1.4490                 4.4370
 Frc consts  --      1.8402                 1.7010                 5.2378
 IR Inten    --     68.1520                 5.6086                 4.7189

                     70                     71                     72
                      A                      A                      A
 Frequencies --   1426.4339              1443.0845              1480.4910
 Red. masses --      1.4792                 1.8357                 1.5581
 Frc consts  --      1.7733                 2.2524                 2.0121
 IR Inten    --     16.0086                11.4556                23.6610

                     73                     74                     75
                      A                      A                      A
 Frequencies --   1488.2483              1493.1985              1516.0585
 Red. masses --      2.0623                 2.6918                 1.1626
 Frc consts  --      2.6913                 3.5362                 1.5743
 IR Inten    --     15.3477                17.9668                28.1898

                     76                     77                     78
                      A                      A                      A
 Frequencies --   1517.8522              1530.7642              1545.2351
 Red. masses --      1.0918                 1.1010                 3.2918
 Frc consts  --      1.4821                 1.5201                 4.6310
 IR Inten    --      7.2484                 6.8892                18.2365

                     79                     80                     81
                      A                      A                      A
 Frequencies --   1556.3898              1629.9017              1644.0239
 Red. masses --      1.0995                 6.4303                 5.0665
 Frc consts  --      1.5692                10.0648                 8.0682
 IR Inten    --      1.2971                 2.1129                10.6042

                     82                     83                     84
                      A                      A                      A
 Frequencies --   1674.2578              1769.9625              3005.4172
 Red. masses --      6.2107                 8.5306                 1.0720
 Frc consts  --     10.2573                15.7456                 5.7048
 IR Inten    --     31.3841               314.2438                73.7519

                     85                     86                     87
                      A                      A                      A
 Frequencies --   3047.7562              3065.2517              3077.4037
 Red. masses --      1.0841                 1.0657                 1.0628
 Frc consts  --      5.9331                 5.8995                 5.9303
 IR Inten    --     31.7389                13.8277                20.5770

                     88                     89                     90
                      A                      A                      A
 Frequencies --   3087.8177              3106.1494              3115.3780
 Red. masses --      1.0661                 1.0935                 1.1012
 Frc consts  --      5.9887                 6.2161                 6.2971
 IR Inten    --     46.3517                45.0620                13.8791

                     91                     92                     93
                      A                      A                      A
 Frequencies --   3127.6571              3150.5195              3181.9513
 Red. masses --      1.1047                 1.1007                 1.0870
 Frc consts  --      6.3668                 6.4371                 6.4841
 IR Inten    --     41.8064                17.9384                13.0095

                     94                     95                     96
                      A                      A                      A
 Frequencies --   3188.7881              3198.6690              3200.3432
 Red. masses --      1.0865                 1.0912                 1.0911
 Frc consts  --      6.5093                 6.5778                 6.5843
 IR Inten    --      0.0493                 1.8786                36.1938

                     97                     98                     99
                      A                      A                      A
 Frequencies --   3203.5721              3212.9931              3577.0966
 Red. masses --      1.0952                 1.0965                 1.0754
 Frc consts  --      6.6223                 6.6692                 8.1073
 IR Inten    --     18.4640                18.1023                17.8425

 - Thermochemistry -
 -------------------
 Temperature   298.150 Kelvin.  Pressure   1.00000 Atm.
 Atom     1 has atomic number  6 and mass  12.00000

 Molecular mass:   256.12118 amu.
 Principal axes and moments of inertia in atomic units:
                           1         2         3
     Eigenvalues --  3229.291957122.979907584.10152
           X            0.99992   0.00532   0.01179
           Y           -0.00595   0.99850   0.05437
           Z           -0.01148  -0.05444   0.99845
 This molecule is an asymmetric top.
 Rotational symmetry number  1.
 Warning -- assumption of classical behavior for rotation
           may cause significant error
 Rotational temperatures (Kelvin)      0.02682     0.01216     0.01142
 Rotational constants (GHZ):           0.55887     0.25337     0.23796
 Zero-point vibrational energy     763204.8 (Joules/Mol)
                                  182.41033 (Kcal/Mol)
 Warning -- explicit consideration of  24 degrees of freedom as
           vibrations may cause significant error
 Vibrational temperatures:     31.70    39.84    58.26    71.15   105.93
          (Kelvin)            140.84   229.56   249.36   259.14   309.82
                              379.98   415.04   475.78   531.02   554.74
                              596.11   631.74   692.42   697.95   746.09
                              770.00   858.65   864.86   892.96   945.82
                             1014.90  1028.36  1052.07  1110.28  1114.50
                             1173.28  1178.98  1193.98  1235.97  1246.81
                             1270.37  1297.53  1344.53  1347.92  1375.82
                             1381.29  1412.07  1415.94  1425.32  1446.95
                             1465.57  1545.47  1575.47  1579.65  1601.36
                             1609.40  1696.85  1712.12  1738.22  1746.65
                             1758.11  1794.92  1811.80  1824.68  1845.97
                             1882.09  1910.22  1923.35  1958.31  1964.67
                             1975.21  2011.85  2030.92  2036.56  2052.32
                             2076.28  2130.10  2141.26  2148.38  2181.27
                             2183.85  2202.43  2223.25  2239.30  2345.06
                             2365.38  2408.88  2546.58  4324.13  4385.04
                             4410.21  4427.70  4442.68  4469.06  4482.33
                             4500.00  4532.89  4578.12  4587.95  4602.17
                             4604.58  4609.23  4622.78  5146.64

 Zero-point correction=                           0.290689 (Hartree/Particle)
 Thermal correction to Energy=                    0.306587
 Thermal correction to Enthalpy=                  0.307532
 Thermal correction to Gibbs Free Energy=         0.244680
 Sum of electronic and zero-point Energies=           -840.969782
 Sum of electronic and thermal Energies=              -840.953883
 Sum of electronic and thermal Enthalpies=            -840.952939
 Sum of electronic and thermal Free Energies=         -841.015791

                     E (Thermal)             CV                S
                      KCal/Mol        Cal/Mol-Kelvin    Cal/Mol-Kelvin
 Total                  192.387             61.594            132.283
 Electronic               0.000              0.000              0.000
 Translational            0.889              2.981             42.521
 Rotational               0.889              2.981             33.522
 Vibrational            190.609             55.633             56.240
 Vibration     1          0.593              1.985              6.442
 Vibration     2          0.593              1.984              5.988
 Vibration     3          0.594              1.981              5.235
 Vibration     4          0.595              1.978              4.839
 Vibration     5          0.599              1.966              4.054
 Vibration     6          0.603              1.951              3.496
 Vibration     7          0.621              1.892              2.555
 Vibration     8          0.627              1.875              2.399
 Vibration     9          0.629              1.867              2.327
 Vibration    10          0.645              1.818              1.998
 Vibration    11          0.671              1.739              1.635
 Vibration    12          0.685              1.695              1.483
 Vibration    13          0.713              1.614              1.257
 Vibration    14          0.741              1.536              1.084
 Vibration    15          0.754              1.501              1.017
 Vibration    16          0.778              1.439              0.911
 Vibration    17          0.799              1.385              0.829
 Vibration    18          0.838              1.292              0.707
 Vibration    19          0.841              1.283              0.696
 Vibration    20          0.874              1.209              0.613
 Vibration    21          0.890              1.172              0.576
 Vibration    22          0.955              1.039              0.455
 Vibration    23          0.959              1.029              0.448
 Vibration    24          0.981              0.988              0.415

                           ! Non-Optimized Parameters !
 Normal termination of Gaussian 16 at Sat Dec 12 10:30:58 2020.

 ----------------------------------------------------------------------
 # B3LYP/6-311++G(d,p) empiricaldispersion=gd3bj scf=xqc pop=npa geom=c
 heck
 ----------------------------------------------------------------------

 ---------------------------------------
 CID_110849507_JID_9949_Energie_neutraal
 ---------------------------------------
 Structure from the checkpoint file:  "JID_9949.chk"
 Charge =  0 Multiplicity = 1

 SCF Done:  E(RB3LYP) =  -841.486863369     A.U. after   16 cycles
 Normal termination of Gaussian 16 at Sat Dec 12 10:38:46 2020.

 ----------------------------------------------------------------------
 # B3LYP/6-311++G(d,p) empiricaldispersion=gd3bj scf=xqc pop=npa geom=c
 heck
 ----------------------------------------------------------------------

 -------------------------------------
 CID_110849507_JID_9949_Energie_kation
 -------------------------------------
 Structure from the checkpoint file:  "JID_9949.chk"
 Charge =  1 Multiplicity = 2

 SCF Done:  E(UB3LYP) =  -841.184333615     A.U. after   28 cycles
 Normal termination of Gaussian 16 at Sat Dec 12 10:57:25 2020.
 Gaussian 16:  ES64L-G16RevA.03 25-Dec-2016

 ----------------------------------------------------------------------
 # B3LYP/6-311++G(d,p) empiricaldispersion=gd3bj scf=xqc pop=npa geom=c
 heck
 ----------------------------------------------------------------------

 ------------------------------------
 CID_110849507_JID_9949_Energie_anion
 ------------------------------------
 Structure from the checkpoint file:  "JID_9949.chk"
 Charge = -1 Multiplicity = 2

                         Standard orientation:
 ---------------------------------------------------------------------
 Center     Atomic      Atomic             Coordinates (Angstroms)
 Number     Number       Type             X           Y           Z
 ---------------------------------------------------------------------
      1          6           0        4.409747    0.955222    0.021770
      2          6           0        3.117675    0.778770    0.833631
      3          6           0        2.113369    0.287257   -0.227938
      4          8           0        2.639976    0.677686   -1.503171
      5          6           0        3.850657    1.414995   -1.324009
      6          6           0        1.931964   -1.237340   -0.265299
      7          7           0        1.270212   -1.774422    0.920927
      8          6           0       -0.025268   -1.526751    1.306677
      9          8           0       -0.379990   -1.634371    2.475119
     10          6           0       -0.997427   -1.170967    0.214844
     11          6           0       -1.192731   -2.033950   -0.844542
     12          6           0       -2.146866   -1.748280   -1.848855
     13          6           0       -2.885306   -0.589597   -1.798893
     14          6           0       -2.706119    0.327296   -0.730613
     15          6           0       -1.764440    0.029206    0.300339
     16          6           0       -1.620219    0.980097    1.351530
     17          7           0       -2.287828    2.114030    1.422042
     18          6           0       -3.180772    2.384519    0.431451
     19          6           0       -3.422060    1.546286   -0.630345
     20          1           0        5.105664    1.672058    0.466940
     21          1           0        4.932118   -0.001679   -0.092846
     22          1           0        2.792926    1.739358    1.246697
     23          1           0        3.219946    0.081541    1.670865
     24          1           0        1.128944    0.752827   -0.090611
     25          1           0        3.639083    2.495756   -1.311117
     26          1           0        4.503848    1.201587   -2.175545
     27          1           0        1.364131   -1.495480   -1.160445
     28          1           0        2.909501   -1.722522   -0.350252
     29          1           0        1.860444   -1.972960    1.721196
     30          1           0       -0.614157   -2.951348   -0.899271
     31          1           0       -2.287687   -2.451781   -2.664110
     32          1           0       -3.611788   -0.359564   -2.573437
     33          1           0       -0.931288    0.768578    2.164714
     34          1           0       -3.712585    3.328439    0.525650
     35          1           0       -4.148892    1.810830   -1.393277
 ---------------------------------------------------------------------

 SCF Done:  E(UB3LYP) =  -841.502256230     A.U. after   33 cycles
 SCF Done:  E(UB3LYP) =  -841.502256230     a.u. after    1 cycles

 The electronic state is 2-A.
 Alpha  occ. eigenvalues --  -19.03212 -18.95963 -14.21921 -14.14910 -10.14110
 Alpha  occ. eigenvalues --  -10.13596 -10.12329 -10.10191 -10.09624 -10.08840
 Alpha  occ. eigenvalues --  -10.05276 -10.04448 -10.04021 -10.03956 -10.03083
 Alpha  occ. eigenvalues --  -10.02963 -10.02629 -10.02388 -10.01770  -0.95032
 Alpha  occ. eigenvalues --   -0.91166  -0.80738  -0.78689  -0.71343  -0.70514
 Alpha  occ. eigenvalues --   -0.67007  -0.64526  -0.62056  -0.59561  -0.58538
 Alpha  occ. eigenvalues --   -0.52100  -0.51370  -0.49475  -0.48563  -0.47870
 Alpha  occ. eigenvalues --   -0.43897  -0.42099  -0.41138  -0.39121  -0.38410
 Alpha  occ. eigenvalues --   -0.37563  -0.35459  -0.34517  -0.33690  -0.33475
 Alpha  occ. eigenvalues --   -0.32418  -0.30673  -0.30347  -0.29921  -0.28782
 Alpha  occ. eigenvalues --   -0.27735  -0.27609  -0.26824  -0.26293  -0.25539
 Alpha  occ. eigenvalues --   -0.24867  -0.24480  -0.23262  -0.22223  -0.20850
 Alpha  occ. eigenvalues --   -0.20543  -0.17585  -0.15674  -0.14034  -0.12909
 Alpha  occ. eigenvalues --   -0.12003  -0.10703  -0.09092   0.04017
 Alpha virt. eigenvalues --    0.05582   0.07365   0.08181   0.08871   0.09458
 Alpha virt. eigenvalues --    0.09873   0.10632   0.11042   0.11204   0.11356
 Alpha virt. eigenvalues --    0.11888   0.12223   0.12779   0.13272   0.13885

  Beta  occ. eigenvalues --  -19.03211 -18.95863 -14.21909 -14.14744 -10.14072
  Beta  occ. eigenvalues --  -10.13595 -10.12330 -10.10187 -10.09618 -10.08839
  Beta  occ. eigenvalues --  -10.05283 -10.04521 -10.04018 -10.03744 -10.03011
  Beta  occ. eigenvalues --  -10.02883 -10.02280 -10.02178 -10.01436  -0.95030
  Beta  occ. eigenvalues --   -0.90985  -0.80656  -0.78305  -0.70966  -0.70504
  Beta  occ. eigenvalues --   -0.66991  -0.64091  -0.61656  -0.59218  -0.58419
  Beta  occ. eigenvalues --   -0.52060  -0.50981  -0.49115  -0.48467  -0.47689
  Beta  occ. eigenvalues --   -0.43670  -0.42088  -0.41124  -0.39076  -0.38178
  Beta  occ. eigenvalues --   -0.37288  -0.35257  -0.34465  -0.33646  -0.33306
  Beta  occ. eigenvalues --   -0.32385  -0.30584  -0.30288  -0.29741  -0.28528
  Beta  occ. eigenvalues --   -0.27714  -0.27445  -0.26637  -0.25714  -0.25304
  Beta  occ. eigenvalues --   -0.24757  -0.24283  -0.23228  -0.22021  -0.20464
  Beta  occ. eigenvalues --   -0.19659  -0.17514  -0.14662  -0.13680  -0.12476
  Beta  occ. eigenvalues --   -0.11241  -0.10471  -0.07327
  Beta virt. eigenvalues --    0.05560   0.07334   0.08070   0.08823   0.09402
  Beta virt. eigenvalues --    0.09467   0.09840   0.10578   0.11112   0.11171
  Beta virt. eigenvalues --    0.11592   0.11898   0.12644   0.12916   0.13235

 Mulliken charges and spin densities:
               1          2
     1  C   -0.276577  -0.116102
     2  C   -0.281564   0.051836
     3  C   -0.293075   0.035740
     4  O   -0.090323   0.001613
     5  C   -0.166768  -0.012251
     6  C   -0.281038  -0.107105
     7  N   -0.139502   0.021193
     8  C   -0.609360   0.026925
     9  O   -0.310729   0.029788
    10  C    0.419102   0.170212
    11  C   -0.381074   0.119493
    12  C   -0.317347   0.089918
    13  C   -0.411162   0.222878
    14  C    0.580421  -0.065383
    15  C   -0.087736  -0.025065
    16  C   -0.551713   0.157609
    17  N   -0.035471   0.079029
    18  C   -0.448090  -0.019952
    19  C    0.290771   0.191397
    20  H    0.112886   0.036650
    21  H    0.064232   0.055739
    22  H    0.157474   0.000125
    23  H    0.134367  -0.002512
    24  H    0.384935  -0.004494
    25  H    0.117767  -0.004049
    26  H    0.132553   0.017508
    27  H    0.188100  -0.003427
    28  H    0.090135   0.065544
    29  H    0.243004   0.038613
    30  H    0.133134   0.000253
    31  H    0.117829  -0.005709
    32  H    0.078850  -0.022462
    33  H    0.195910  -0.012765
    34  H    0.126781  -0.000737
    35  H    0.113279  -0.010049
 Sum of Mulliken charges =  -1.00000   1.00000

 Dipole moment (field-independent basis, Debye):
    X=              8.6789    Y=              0.3233    Z=             -2.9469  Tot=              9.1713
 Quadrupole moment (field-independent basis, Debye-Ang):
   XX=           -139.4825   YY=           -135.8143   ZZ=           -141.3932
   XY=              3.7104   XZ=              9.4937   YZ=             -0.1945

 Summary of Natural Population Analysis:

                                       Natural Population
                Natural  -----------------------------------------------
    Atom  No    Charge         Core      Valence    Rydberg      Total
 -----------------------------------------------------------------------
      C    1   -0.20707      0.99965     2.20049    0.00694     3.20707
      C    2   -0.20606      0.99963     2.19782    0.00861     3.20606
      C    3    0.05489      0.99956     1.93113    0.01442     2.94511
      O    4   -0.30167      0.99989     3.29357    0.00822     4.30167
      C    5   -0.00837      0.99961     1.99858    0.01018     3.00837
      C    6   -0.09841      0.99959     2.08546    0.01336     3.09841
      N    7   -0.32635      0.99967     2.81567    0.01101     3.82635
      C    8    0.34978      0.99962     1.62677    0.02383     2.65022
      O    9   -0.31223      0.99988     3.30659    0.00576     4.31223
      C   10   -0.00423      0.99942     1.99221    0.01260     3.00423
      C   11   -0.08862      0.99953     2.08117    0.00792     3.08862
      C   12   -0.08872      0.99957     2.07988    0.00927     3.08872
      C   13   -0.03814      0.99953     2.02999    0.00862     3.03814
      C   14   -0.03110      0.99950     2.02358    0.00802     3.03110
      C   15   -0.04803      0.99946     2.03769    0.01087     3.04803
      C   16    0.08671      0.99958     1.90011    0.01361     2.91329
      N   17   -0.22572      0.99971     2.71370    0.01231     3.72572
      C   18    0.00186      0.99958     1.98357    0.01499     2.99814
      C   19   -0.08356      0.99952     2.07580    0.00824     3.08356
      H   20    0.09985      0.00000     0.39884    0.00131     0.40015
      H   21    0.09550      0.00000     0.40298    0.00151     0.40450
      H   22    0.10221      0.00000     0.39689    0.00090     0.39779
      H   23    0.10341      0.00000     0.39537    0.00123     0.39659
      H   24    0.10286      0.00000     0.39605    0.00109     0.39714
      H   25    0.07591      0.00000     0.42276    0.00133     0.42409
      H   26    0.08575      0.00000     0.41282    0.00143     0.41425
      H   27    0.11313      0.00000     0.38587    0.00099     0.38687
      H   28    0.09005      0.00000     0.40821    0.00174     0.40995
      H   29    0.18474      0.00000     0.31243    0.00283     0.31526
      H   30    0.09261      0.00000     0.40611    0.00128     0.40739
      H   31    0.08919      0.00000     0.40980    0.00101     0.41081
      H   32    0.08537      0.00000     0.41303    0.00159     0.41463
      H   33    0.08669      0.00000     0.41178    0.00153     0.41331
      H   34    0.07847      0.00000     0.42023    0.00130     0.42153
      H   35    0.08932      0.00000     0.40892    0.00176     0.41068
 =======================================================================
   * Total *   -0.00000     18.99251    48.77590    0.23160    68.00000

 Normal termination of Gaussian 16 at Sat Dec 12 11:19:36 2020.
