 Gaussian 16, Revision A.03,

 -----------------------------------------------------------
 # opt freq B3LYP/6-31G(d) empiricaldispersion=gd3bj scf=xqc
 -----------------------------------------------------------

 ------------------------------
 CID_64689816_JID_1108_neutraal
 ------------------------------
 Symbolic Z-matrix:
 Charge =  0 Multiplicity = 1

 SCF Done:  E(RB3LYP) =  -877.915656163     A.U. after   15 cycles
 SCF Done:  E(RB3LYP) =  -877.917873704     A.U. after   13 cycles
 SCF Done:  E(RB3LYP) =  -877.917280312     A.U. after   14 cycles
 SCF Done:  E(RB3LYP) =  -877.918914955     A.U. after   13 cycles
 SCF Done:  E(RB3LYP) =  -877.919768940     A.U. after   13 cycles
 SCF Done:  E(RB3LYP) =  -877.920433059     A.U. after   13 cycles
 SCF Done:  E(RB3LYP) =  -877.920683702     A.U. after   12 cycles
 SCF Done:  E(RB3LYP) =  -877.920822328     A.U. after   12 cycles
 SCF Done:  E(RB3LYP) =  -877.920832051     A.U. after   11 cycles
 SCF Done:  E(RB3LYP) =  -877.920850869     A.U. after   11 cycles
 SCF Done:  E(RB3LYP) =  -877.920853543     A.U. after   10 cycles
 SCF Done:  E(RB3LYP) =  -877.920855516     A.U. after   10 cycles
 SCF Done:  E(RB3LYP) =  -877.920855793     A.U. after    8 cycles
 SCF Done:  E(RB3LYP) =  -877.920855909     A.U. after    8 cycles
 Optimization completed.
    -- Stationary point found.
 Normal termination of Gaussian 16 at Tue Dec  8 19:14:50 2020.

 --------------------------------------------------------------------
 #N Geom=AllCheck Guess=TCheck SCRF=Check GenChk RB3LYP/6-31G(d) Freq
 --------------------------------------------------------------------

 Structure from the checkpoint file:  "JID_1108.chk"
 ------------------------------
 CID_64689816_JID_1108_neutraal
 ------------------------------
 Charge =  0 Multiplicity = 1

 SCF Done:  E(RB3LYP) =  -877.920855909     A.U. after    1 cycles

  Exact polarizability: 114.990   8.359 107.868   4.373   1.573  79.210
 Approx polarizability: 154.641  11.294 164.837   8.502   8.428 122.828

                      1                      2                      3
                      A                      A                      A
 Frequencies --     35.5044                46.6042                69.2153
 Red. masses --      6.8098                 3.8929                 3.0541
 Frc consts  --      0.0051                 0.0050                 0.0086
 IR Inten    --      2.8646                 1.8011                 2.3352

                      4                      5                      6
                      A                      A                      A
 Frequencies --     92.3311               124.5807               142.1442
 Red. masses --      2.7884                 3.0130                 2.8810
 Frc consts  --      0.0140                 0.0276                 0.0343
 IR Inten    --      6.4215                 2.7754                12.0357

                      7                      8                      9
                      A                      A                      A
 Frequencies --    155.3845               171.5223               213.0268
 Red. masses --      2.5044                 4.1293                 2.7083
 Frc consts  --      0.0356                 0.0716                 0.0724
 IR Inten    --      9.3240                 1.4076                 2.8024

                     10                     11                     12
                      A                      A                      A
 Frequencies --    232.0577               270.0028               307.8879
 Red. masses --      2.8039                 2.4106                 3.2838
 Frc consts  --      0.0890                 0.1035                 0.1834
 IR Inten    --      3.2363                 3.9685                 3.7025

                     13                     14                     15
                      A                      A                      A
 Frequencies --    355.0226               391.2997               423.3786
 Red. masses --      3.0476                 3.4811                 1.9603
 Frc consts  --      0.2263                 0.3140                 0.2070
 IR Inten    --      5.0853                 0.5990                 2.5363

                     16                     17                     18
                      A                      A                      A
 Frequencies --    475.0349               496.5686               529.0821
 Red. masses --      5.7587                 7.4941                 3.1555
 Frc consts  --      0.7656                 1.0888                 0.5204
 IR Inten    --     10.2864                 6.5887                 3.3280

                     19                     20                     21
                      A                      A                      A
 Frequencies --    663.1959               693.9702               767.6229
 Red. masses --      3.3901                 3.7937                 1.7044
 Frc consts  --      0.8785                 1.0765                 0.5917
 IR Inten    --     12.8388                 3.8171                 3.0501

                     22                     23                     24
                      A                      A                      A
 Frequencies --    788.5655               870.5970               904.7179
 Red. masses --      1.2532                 2.6831                 2.1644
 Frc consts  --      0.4591                 1.1982                 1.0438
 IR Inten    --     11.3312                 5.3799                17.9996

                     25                     26                     27
                      A                      A                      A
 Frequencies --    961.0034               988.8999              1019.8898
 Red. masses --      4.6022                 1.9428                 1.9544
 Frc consts  --      2.5042                 1.1194                 1.1977
 IR Inten    --      0.9836                10.7822                11.3705

                     28                     29                     30
                      A                      A                      A
 Frequencies --   1039.1950              1048.5552              1067.9170
 Red. masses --      3.3728                 1.9643                 4.6855
 Frc consts  --      2.1461                 1.2725                 3.1483
 IR Inten    --      4.2792                32.2087                93.0783

                     31                     32                     33
                      A                      A                      A
 Frequencies --   1100.5389              1136.5370              1180.2756
 Red. masses --      2.1860                 2.1937                 1.3125
 Frc consts  --      1.5600                 1.6696                 1.0772
 IR Inten    --      5.4638                68.8965                 9.2628

                     34                     35                     36
                      A                      A                      A
 Frequencies --   1189.3323              1194.1442              1228.9419
 Red. masses --      1.1357                 1.3193                 1.8366
 Frc consts  --      0.9465                 1.1084                 1.6343
 IR Inten    --      8.1471                 6.1121                62.3213

                     37                     38                     39
                      A                      A                      A
 Frequencies --   1266.4516              1276.6832              1326.9937
 Red. masses --      1.4253                 1.2565                 1.1387
 Frc consts  --      1.3469                 1.2066                 1.1814
 IR Inten    --      2.6164                 1.4930                 3.9457

                     40                     41                     42
                      A                      A                      A
 Frequencies --   1332.3026              1340.4521              1378.9311
 Red. masses --      1.2344                 1.1790                 1.4017
 Frc consts  --      1.2910                 1.2482                 1.5703
 IR Inten    --      6.6818                 1.8704                 3.2106

                     43                     44                     45
                      A                      A                      A
 Frequencies --   1402.1403              1428.9519              1481.8990
 Red. masses --      1.4212                 1.2478                 1.0845
 Frc consts  --      1.6463                 1.5012                 1.4032
 IR Inten    --      8.5143                14.0472                 3.4117

                     46                     47                     48
                      A                      A                      A
 Frequencies --   1496.6659              1502.1904              1504.6367
 Red. masses --      1.1024                 1.0943                 1.1069
 Frc consts  --      1.4549                 1.4549                 1.4764
 IR Inten    --      3.3975                 8.4482                 4.1331

                     49                     50                     51
                      A                      A                      A
 Frequencies --   1507.6363              1524.5947              1532.7530
 Red. masses --      1.0752                 1.0667                 1.0788
 Frc consts  --      1.4399                 1.4608                 1.4933
 IR Inten    --      4.2188                11.8294                 0.9447

                     52                     53                     54
                      A                      A                      A
 Frequencies --   1540.4956              2370.8661              3006.6601
 Red. masses --      1.0722                12.5871                 1.0404
 Frc consts  --      1.4991                41.6860                 5.5413
 IR Inten    --      7.2899                17.3109                43.1773

                     55                     56                     57
                      A                      A                      A
 Frequencies --   3014.9149              3052.2226              3060.2270
 Red. masses --      1.0647                 1.0722                 1.0933
 Frc consts  --      5.7018                 5.8851                 6.0324
 IR Inten    --     58.2653                47.9368                37.3958

                     58                     59                     60
                      A                      A                      A
 Frequencies --   3065.5184              3082.1036              3093.2476
 Red. masses --      1.0584                 1.0955                 1.0651
 Frc consts  --      5.8599                 6.1311                 6.0041
 IR Inten    --      5.4034                 3.2723                 8.4739

                     61                     62                     63
                      A                      A                      A
 Frequencies --   3096.5799              3102.5377              3106.7778
 Red. masses --      1.0602                 1.0965                 1.1006
 Frc consts  --      5.9895                 6.2185                 6.2591
 IR Inten    --      5.4597                46.4038                13.1122

                     64                     65                     66
                      A                      A                      A
 Frequencies --   3148.5824              3151.4812              3164.6529
 Red. masses --      1.0982                 1.1075                 1.1089
 Frc consts  --      6.4144                 6.4810                 6.5433
 IR Inten    --     22.3235                 5.6668                 6.6153

 - Thermochemistry -
 -------------------
 Temperature   298.150 Kelvin.  Pressure   1.00000 Atm.
 Atom     1 has atomic number  6 and mass  12.00000

 Molecular mass:   175.06670 amu.
 Principal axes and moments of inertia in atomic units:
                           1         2         3
     Eigenvalues --  1731.083912787.609224102.71338
           X            0.99893  -0.04596   0.00522
           Y            0.04598   0.99893  -0.00424
           Z           -0.00502   0.00448   0.99998
 This molecule is an asymmetric top.
 Rotational symmetry number  1.
 Warning -- assumption of classical behavior for rotation
           may cause significant error
 Rotational temperatures (Kelvin)      0.05003     0.03107     0.02111
 Rotational constants (GHZ):           1.04255     0.64742     0.43989
 Zero-point vibrational energy     524770.0 (Joules/Mol)
                                  125.42305 (Kcal/Mol)
 Warning -- explicit consideration of  18 degrees of freedom as
           vibrations may cause significant error
 Vibrational temperatures:     51.08    67.05    99.59   132.84   179.24
          (Kelvin)            204.51   223.56   246.78   306.50   333.88
                              388.47   442.98   510.80   562.99   609.15
                              683.47   714.45   761.23   954.19   998.47
                             1104.44  1134.57  1252.59  1301.69  1382.67
                             1422.81  1467.39  1495.17  1508.64  1536.49
                             1583.43  1635.22  1698.15  1711.18  1718.11
                             1768.17  1822.14  1836.86  1909.25  1916.89
                             1928.61  1983.97  2017.37  2055.94  2132.12
                             2153.37  2161.32  2164.84  2169.15  2193.55
                             2205.29  2216.43  3411.15  4325.91  4337.79
                             4391.47  4402.98  4410.60  4434.46  4450.49
                             4455.29  4463.86  4469.96  4530.11  4534.28
                             4553.23

 Zero-point correction=                           0.199874 (Hartree/Particle)
 Thermal correction to Energy=                    0.213063
 Thermal correction to Enthalpy=                  0.214007
 Thermal correction to Gibbs Free Energy=         0.158819
 Sum of electronic and zero-point Energies=           -877.720982
 Sum of electronic and thermal Energies=              -877.707793
 Sum of electronic and thermal Enthalpies=            -877.706848
 Sum of electronic and thermal Free Energies=         -877.762037

                     E (Thermal)             CV                S
                      KCal/Mol        Cal/Mol-Kelvin    Cal/Mol-Kelvin
 Total                  133.699             45.948            116.154
 Electronic               0.000              0.000              0.000
 Translational            0.889              2.981             41.387
 Rotational               0.889              2.981             31.360
 Vibrational            131.922             39.986             43.407
 Vibration     1          0.594              1.982              5.495
 Vibration     2          0.595              1.979              4.957
 Vibration     3          0.598              1.969              4.176
 Vibration     4          0.602              1.955              3.610
 Vibration     5          0.610              1.928              3.028
 Vibration     6          0.616              1.911              2.775
 Vibration     7          0.620              1.897              2.605
 Vibration     8          0.626              1.878              2.419
 Vibration     9          0.644              1.821              2.018
 Vibration    10          0.653              1.792              1.863
 Vibration    11          0.674              1.728              1.596
 Vibration    12          0.698              1.659              1.374
 Vibration    13          0.731              1.565              1.144
 Vibration    14          0.759              1.489              0.995
 Vibration    15          0.786              1.419              0.881
 Vibration    16          0.832              1.305              0.724
 Vibration    17          0.852              1.258              0.667
 Vibration    18          0.884              1.186              0.589

 Optimization completed.
    -- Stationary point found.
 Normal termination of Gaussian 16 at Tue Dec  8 19:19:19 2020.

 ----------------------------------------------------------------------
 # B3LYP/6-311++G(d,p) empiricaldispersion=gd3bj scf=xqc pop=npa geom=c
 heck
 ----------------------------------------------------------------------

 --------------------------------------
 CID_64689816_JID_1108_Energie_neutraal
 --------------------------------------
 Structure from the checkpoint file:  "JID_1108.chk"
 Charge =  0 Multiplicity = 1

 SCF Done:  E(RB3LYP) =  -878.093122410     A.U. after   14 cycles
 Normal termination of Gaussian 16 at Tue Dec  8 19:21:24 2020.

 ----------------------------------------------------------------------
 # B3LYP/6-311++G(d,p) empiricaldispersion=gd3bj scf=xqc pop=npa geom=c
 heck
 ----------------------------------------------------------------------

 ------------------------------------
 CID_64689816_JID_1108_Energie_kation
 ------------------------------------
 Structure from the checkpoint file:  "JID_1108.chk"
 Charge =  1 Multiplicity = 2

 SCF Done:  E(UB3LYP) =  -877.767125171     A.U. after   24 cycles
 Normal termination of Gaussian 16 at Tue Dec  8 19:26:21 2020.
 Gaussian 16:  ES64L-G16RevA.03 25-Dec-2016

 ----------------------------------------------------------------------
 # B3LYP/6-311++G(d,p) empiricaldispersion=gd3bj scf=xqc pop=npa geom=c
 heck
 ----------------------------------------------------------------------

 -----------------------------------
 CID_64689816_JID_1108_Energie_anion
 -----------------------------------
 Structure from the checkpoint file:  "JID_1108.chk"
 Charge = -1 Multiplicity = 2

                         Standard orientation:
 ---------------------------------------------------------------------
 Center     Atomic      Atomic             Coordinates (Angstroms)
 Number     Number       Type             X           Y           Z
 ---------------------------------------------------------------------
      1          6           0       -2.397754    2.267637   -0.566144
      2          8           0       -1.716284    1.516343    0.421941
      3          6           0       -2.381131    0.324774    0.811647
      4          6           0       -2.368770   -0.771910   -0.259861
      5          6           0       -0.988765   -1.034931   -0.863740
      6         16           0        0.238243   -1.629088    0.401177
      7          8           0        1.228283   -2.520834   -0.325840
      8          6           0        1.115560   -0.018215    0.688055
      9          6           0        2.092004    0.247169   -0.464769
     10          6           0        2.992777    1.355030   -0.153381
     11          7           0        3.696088    2.239648    0.111877
     12          1           0       -3.427605    2.494865   -0.252223
     13          1           0       -2.433570    1.749861   -1.535560
     14          1           0       -1.846275    3.202596   -0.687162
     15          1           0       -1.851867   -0.019399    1.706607
     16          1           0       -3.418396    0.546874    1.106784
     17          1           0       -2.761596   -1.690961    0.192964
     18          1           0       -3.054852   -0.513332   -1.075631
     19          1           0       -1.018199   -1.862608   -1.577791
     20          1           0       -0.596532   -0.151203   -1.373120
     21          1           0        0.368237    0.771495    0.794784
     22          1           0        1.661333   -0.140751    1.627463
     23          1           0        2.664958   -0.666796   -0.661808
     24          1           0        1.550336    0.485835   -1.386931
 ---------------------------------------------------------------------

 SCF Done:  E(UB3LYP) =  -878.086667069     A.U. after   29 cycles

 The electronic state is 2-A.
 Alpha  occ. eigenvalues --  -88.86009 -19.03529 -18.99807 -14.23247 -10.13757
 Alpha  occ. eigenvalues --  -10.13375 -10.12671 -10.12648 -10.10804 -10.10801
 Alpha  occ. eigenvalues --  -10.08414  -7.93750  -5.90021  -5.89875  -5.89337
 Alpha  occ. eigenvalues --   -0.94642  -0.92687  -0.82997  -0.74093  -0.71173
 Alpha  occ. eigenvalues --   -0.64834  -0.61804  -0.57340  -0.52518  -0.48313
 Alpha  occ. eigenvalues --   -0.44650  -0.41744  -0.40399  -0.39718  -0.37754
 Alpha  occ. eigenvalues --   -0.36355  -0.35000  -0.34179  -0.33180  -0.31629
 Alpha  occ. eigenvalues --   -0.30141  -0.29571  -0.28791  -0.27998  -0.26935
 Alpha  occ. eigenvalues --   -0.26594  -0.25248  -0.24852  -0.22586  -0.18493
 Alpha  occ. eigenvalues --   -0.17196  -0.14967   0.04238
 Alpha virt. eigenvalues --    0.06916   0.07424   0.07798   0.08648   0.09493
 Alpha virt. eigenvalues --    0.09627   0.10249   0.10695   0.10948   0.11218
 Alpha virt. eigenvalues --    0.11790   0.12130   0.13017   0.13137   0.13570

  Beta  occ. eigenvalues --  -88.86006 -19.03520 -18.99798 -14.23244 -10.13742
  Beta  occ. eigenvalues --  -10.13373 -10.12665 -10.12623 -10.10772 -10.10726
  Beta  occ. eigenvalues --  -10.08365  -7.93746  -5.90019  -5.89869  -5.89330
  Beta  occ. eigenvalues --   -0.94622  -0.92669  -0.82987  -0.74068  -0.71119
  Beta  occ. eigenvalues --   -0.64785  -0.61739  -0.57242  -0.52453  -0.48201
  Beta  occ. eigenvalues --   -0.44628  -0.41715  -0.40342  -0.39664  -0.37686
  Beta  occ. eigenvalues --   -0.36314  -0.34957  -0.34140  -0.33115  -0.31599
  Beta  occ. eigenvalues --   -0.30098  -0.29528  -0.28769  -0.27947  -0.26882
  Beta  occ. eigenvalues --   -0.26548  -0.25238  -0.24836  -0.22524  -0.18465
  Beta  occ. eigenvalues --   -0.17148  -0.14932
  Beta virt. eigenvalues --    0.06998   0.07599   0.07722   0.08386   0.09173
  Beta virt. eigenvalues --    0.09966   0.10169   0.10665   0.10890   0.11338
  Beta virt. eigenvalues --    0.11584   0.12144   0.12328   0.13452   0.13610

 Mulliken charges and spin densities:
               1          2
     1  C    1.670404  -1.979418
     2  O   -0.144818   0.057550
     3  C   -0.603695   0.118527
     4  C    1.346085  -1.598669
     5  C   -0.576607   0.260214
     6  S    1.206202  -0.597742
     7  O   -0.510737   0.014184
     8  C   -0.973233   0.235517
     9  C    0.536377  -0.266196
    10  C   -0.404517  -0.017790
    11  N   -0.283062  -0.001300
    12  H   -0.500376   0.648602
    13  H   -0.777180   0.936807
    14  H   -0.193039   0.343638
    15  H   -0.069863   0.234294
    16  H   -0.408915   0.580433
    17  H   -0.392017   0.537033
    18  H   -0.584672   0.807500
    19  H   -0.224749   0.532483
    20  H    0.200978  -0.088658
    21  H    0.371228  -0.077206
    22  H    0.192390   0.036832
    23  H    0.234080  -0.019015
    24  H   -0.110267   0.302378
 Sum of Mulliken charges =  -1.00000   1.00000

 Dipole moment (field-independent basis, Debye):
    X=              5.9609    Y=             -2.5315    Z=              4.2803  Tot=              7.7629
 Quadrupole moment (field-independent basis, Debye-Ang):
   XX=           -156.5124   YY=           -129.9024   ZZ=           -105.1472
   XY=              0.4912   XZ=             -8.6324   YZ=             -0.0261

 Summary of Natural Population Analysis:

                                       Natural Population
                Natural  -----------------------------------------------
    Atom  No    Charge         Core      Valence    Rydberg      Total
 -----------------------------------------------------------------------
      C    1   -0.09949      0.99961     2.09033    0.00955     3.09949
      O    2   -0.30761      0.99989     3.29765    0.01007     4.30761
      C    3   -0.01207      0.99958     1.99744    0.01505     3.01207
      C    4   -0.21845      0.99961     2.20653    0.01230     3.21845
      C    5   -0.27506      0.99958     2.26150    0.01397     3.27506
      S    6    0.58246      4.99946     2.36714    0.05093     7.41754
      O    7   -0.48567      0.99993     3.47956    0.00618     4.48567
      C    8   -0.27431      0.99958     2.26395    0.01078     3.27431
      C    9   -0.26186      0.99953     2.25425    0.00808     3.26186
      C   10    0.16181      0.99966     1.82187    0.01665     2.83819
      N   11   -0.18656      0.99979     2.67562    0.01115     3.68656
      H   12    0.08384      0.00000     0.41357    0.00259     0.41616
      H   13    0.08534      0.00000     0.41034    0.00432     0.41466
      H   14    0.09115      0.00000     0.40749    0.00136     0.40885
      H   15    0.08424      0.00000     0.41384    0.00192     0.41576
      H   16    0.09008      0.00000     0.40806    0.00186     0.40992
      H   17    0.10517      0.00000     0.39264    0.00218     0.39483
      H   18    0.11510      0.00000     0.37883    0.00608     0.38490
      H   19    0.11842      0.00000     0.38024    0.00134     0.38158
      H   20    0.10907      0.00000     0.38837    0.00257     0.39093
      H   21    0.12764      0.00000     0.36968    0.00268     0.37236
      H   22    0.10547      0.00000     0.39350    0.00103     0.39453
      H   23    0.13584      0.00000     0.36280    0.00136     0.36416
      H   24    0.12544      0.00000     0.37286    0.00170     0.37456
 =======================================================================
   * Total *   -0.00000     14.99622    31.80806    0.19572    47.00000

 Normal termination of Gaussian 16 at Tue Dec  8 19:32:37 2020.
