 Gaussian 16, Revision A.03,

 -----------------------------------------------------------
 # opt freq B3LYP/6-31G(d) empiricaldispersion=gd3bj scf=xqc
 -----------------------------------------------------------

 -------------------------------
 CID_114477837_JID_3906_neutraal
 -------------------------------
 Symbolic Z-matrix:
 Charge =  0 Multiplicity = 1

 SCF Done:  E(RB3LYP) =  -560.643137585     A.U. after   15 cycles
 SCF Done:  E(RB3LYP) =  -560.645451830     A.U. after   12 cycles
 SCF Done:  E(RB3LYP) =  -560.645459663     A.U. after   11 cycles
 SCF Done:  E(RB3LYP) =  -560.645768836     A.U. after   11 cycles
 SCF Done:  E(RB3LYP) =  -560.645806090     A.U. after   11 cycles
 SCF Done:  E(RB3LYP) =  -560.645838756     A.U. after   10 cycles
 SCF Done:  E(RB3LYP) =  -560.645855102     A.U. after    9 cycles
 SCF Done:  E(RB3LYP) =  -560.645873885     A.U. after   10 cycles
 SCF Done:  E(RB3LYP) =  -560.645886214     A.U. after    9 cycles
 SCF Done:  E(RB3LYP) =  -560.645894990     A.U. after   10 cycles
 SCF Done:  E(RB3LYP) =  -560.645897284     A.U. after    8 cycles
 SCF Done:  E(RB3LYP) =  -560.645897058     A.U. after    7 cycles
 SCF Done:  E(RB3LYP) =  -560.645897624     A.U. after    8 cycles
 SCF Done:  E(RB3LYP) =  -560.645897098     A.U. after    8 cycles
 Optimization completed.
    -- Stationary point found.
 Normal termination of Gaussian 16 at Sun Dec 13 16:02:32 2020.

 --------------------------------------------------------------------
 #N Geom=AllCheck Guess=TCheck SCRF=Check GenChk RB3LYP/6-31G(d) Freq
 --------------------------------------------------------------------

 Structure from the checkpoint file:  "JID_3906.chk"
 -------------------------------
 CID_114477837_JID_3906_neutraal
 -------------------------------
 Charge =  0 Multiplicity = 1

 SCF Done:  E(RB3LYP) =  -560.645897098     A.U. after    1 cycles

  Exact polarizability: 150.149  -7.827 105.500   7.151  -3.273 107.335
 Approx polarizability: 191.160 -12.661 160.972  10.704 -11.487 157.877

                      1                      2                      3
                      A                      A                      A
 Frequencies --     34.7772                54.0795                56.9830
 Red. masses --      3.1711                 3.8066                 3.3523
 Frc consts  --      0.0023                 0.0066                 0.0064
 IR Inten    --      0.6122                 0.3432                 0.4372

                      4                      5                      6
                      A                      A                      A
 Frequencies --     72.7339               120.1017               182.9373
 Red. masses --      5.2853                 2.6416                 3.0348
 Frc consts  --      0.0165                 0.0225                 0.0598
 IR Inten    --      0.1423                 0.5727                 0.5133

                      7                      8                      9
                      A                      A                      A
 Frequencies --    231.4926               248.5019               255.4081
 Red. masses --      2.7070                 1.4267                 1.6285
 Frc consts  --      0.0855                 0.0519                 0.0626
 IR Inten    --      2.3764                 0.9793                 0.9364

                     10                     11                     12
                      A                      A                      A
 Frequencies --    275.8325               304.2643               341.4820
 Red. masses --      2.5033                 3.0929                 2.0406
 Frc consts  --      0.1122                 0.1687                 0.1402
 IR Inten    --      3.9555                 0.9519                 1.4327

                     13                     14                     15
                      A                      A                      A
 Frequencies --    356.6686               400.9979               408.2808
 Red. masses --      2.8373                 2.0972                 3.2514
 Frc consts  --      0.2127                 0.1987                 0.3193
 IR Inten    --      1.2351                 0.7097                 2.7911

                     16                     17                     18
                      A                      A                      A
 Frequencies --    449.1265               502.1847               513.5336
 Red. masses --      2.0577                 1.6881                 1.4921
 Frc consts  --      0.2445                 0.2508                 0.2318
 IR Inten    --      2.5337                 8.3881                48.2692

                     19                     20                     21
                      A                      A                      A
 Frequencies --    537.9010               585.3443               602.2963
 Red. masses --      2.8344                 2.6599                 2.0977
 Frc consts  --      0.4832                 0.5370                 0.4484
 IR Inten    --     13.0140                 6.6981                24.1617

                     22                     23                     24
                      A                      A                      A
 Frequencies --    719.7222               732.4077               762.0811
 Red. masses --      3.1311                 1.2575                 2.3427
 Frc consts  --      0.9556                 0.3974                 0.8016
 IR Inten    --     11.9098                 2.2236                 3.7274

                     25                     26                     27
                      A                      A                      A
 Frequencies --    794.6299               828.7560               839.3741
 Red. masses --      2.7953                 2.0522                 2.1460
 Frc consts  --      1.0400                 0.8305                 0.8908
 IR Inten    --      0.1385                 6.5662                 2.2566

                     28                     29                     30
                      A                      A                      A
 Frequencies --    893.1603               903.0603               922.2219
 Red. masses --      1.7640                 1.8348                 1.3695
 Frc consts  --      0.8291                 0.8816                 0.6863
 IR Inten    --      1.2623                 3.4461                37.7938

                     31                     32                     33
                      A                      A                      A
 Frequencies --    936.2219               959.7973               982.8272
 Red. masses --      1.9583                 2.2267                 1.9734
 Frc consts  --      1.0113                 1.2086                 1.1231
 IR Inten    --      6.1287                 5.5350                 4.9482

                     34                     35                     36
                      A                      A                      A
 Frequencies --   1013.4360              1029.6226              1048.0685
 Red. masses --      1.6843                 1.6655                 1.9537
 Frc consts  --      1.0192                 1.0403                 1.2644
 IR Inten    --      1.8792                 8.5919                 0.7689

                     37                     38                     39
                      A                      A                      A
 Frequencies --   1070.5662              1085.9385              1099.7582
 Red. masses --      1.6694                 1.8584                 2.1120
 Frc consts  --      1.1273                 1.2912                 1.5050
 IR Inten    --      0.8558                 3.2222                 2.4876

                     40                     41                     42
                      A                      A                      A
 Frequencies --   1116.5323              1124.6059              1139.6717
 Red. masses --      2.0259                 2.3882                 1.9330
 Frc consts  --      1.4880                 1.7796                 1.4792
 IR Inten    --      0.8851                 8.3233                12.7562

                     43                     44                     45
                      A                      A                      A
 Frequencies --   1201.9644              1224.4536              1235.8787
 Red. masses --      1.4835                 1.3001                 1.2035
 Frc consts  --      1.2627                 1.1485                 1.0831
 IR Inten    --      0.9176                10.8484                 1.2684

                     46                     47                     48
                      A                      A                      A
 Frequencies --   1276.9859              1285.6356              1304.3689
 Red. masses --      1.4367                 1.5119                 1.3456
 Frc consts  --      1.3803                 1.4724                 1.3488
 IR Inten    --      2.7634                45.7289                42.0674

                     49                     50                     51
                      A                      A                      A
 Frequencies --   1323.2734              1332.5854              1351.1885
 Red. masses --      1.5025                 1.4532                 1.2128
 Frc consts  --      1.5502                 1.5204                 1.3046
 IR Inten    --      2.6217                 8.7022                 0.7289

                     52                     53                     54
                      A                      A                      A
 Frequencies --   1368.4133              1380.7791              1393.5571
 Red. masses --      1.5287                 1.3561                 1.3765
 Frc consts  --      1.6866                 1.5233                 1.5750
 IR Inten    --     28.5073                 3.7999                 3.9296

                     55                     56                     57
                      A                      A                      A
 Frequencies --   1406.5474              1412.9084              1425.1217
 Red. masses --      1.4507                 1.4455                 1.3826
 Frc consts  --      1.6910                 1.7002                 1.6545
 IR Inten    --      6.4814                 5.8674                10.2200

                     58                     59                     60
                      A                      A                      A
 Frequencies --   1438.5050              1443.5367              1474.7767
 Red. masses --      1.3395                 1.4828                 1.1923
 Frc consts  --      1.6331                 1.8205                 1.5278
 IR Inten    --     12.2968                21.3523                 0.4948

                     61                     62                     63
                      A                      A                      A
 Frequencies --   1485.1444              1506.7867              1507.9497
 Red. masses --      1.7555                 1.0943                 1.0932
 Frc consts  --      2.2813                 1.4639                 1.4646
 IR Inten    --     60.1437                 0.8243                 0.3842

                     64                     65                     66
                      A                      A                      A
 Frequencies --   1515.0241              1516.2935              1521.8274
 Red. masses --      1.0857                 1.0820                 1.0803
 Frc consts  --      1.4682                 1.4657                 1.4741
 IR Inten    --      7.2287                 1.8839                 5.9868

                     67                     68                     69
                      A                      A                      A
 Frequencies --   1527.9321              1529.0767              1531.0646
 Red. masses --      1.0780                 1.1296                 1.0875
 Frc consts  --      1.4828                 1.5561                 1.5020
 IR Inten    --      5.8791                27.1388                17.8672

                     70                     71                     72
                      A                      A                      A
 Frequencies --   1738.1062              1783.6155              3010.4634
 Red. masses --      4.9424                 8.3652                 1.0692
 Frc consts  --      8.7972                15.6794                 5.7094
 IR Inten    --     14.6647               308.2531                29.1814

                     73                     74                     75
                      A                      A                      A
 Frequencies --   3019.2611              3030.0052              3030.8285
 Red. masses --      1.0674                 1.0606                 1.0512
 Frc consts  --      5.7327                 5.7372                 5.6895
 IR Inten    --     15.3988                33.2334                20.6063

                     76                     77                     78
                      A                      A                      A
 Frequencies --   3037.4133              3038.5143              3050.1448
 Red. masses --      1.0624                 1.0626                 1.0776
 Frc consts  --      5.7750                 5.7802                 5.9069
 IR Inten    --     23.1317                 7.9387                25.7081

                     79                     80                     81
                      A                      A                      A
 Frequencies --   3068.0671              3070.9498              3079.4094
 Red. masses --      1.0734                 1.0913                 1.1014
 Frc consts  --      5.9533                 6.0635                 6.1537
 IR Inten    --     19.3465                49.2313                24.6566

                     82                     83                     84
                      A                      A                      A
 Frequencies --   3080.3321              3084.2036              3088.8766
 Red. masses --      1.0982                 1.1027                 1.0887
 Frc consts  --      6.1392                 6.1800                 6.1204
 IR Inten    --     19.4539                66.2412                47.7730

                     85                     86                     87
                      A                      A                      A
 Frequencies --   3107.2649              3116.6161              3124.9126
 Red. masses --      1.0952                 1.0990                 1.0994
 Frc consts  --      6.2302                 6.2895                 6.3255
 IR Inten    --     37.4088                22.3227                28.8370

                     88                     89                     90
                      A                      A                      A
 Frequencies --   3156.3336              3232.4570              3603.8404
 Red. masses --      1.0601                 1.1158                 1.0765
 Frc consts  --      6.2227                 6.8693                 8.2372
 IR Inten    --     12.6637                21.3712                21.1282

 - Thermochemistry -
 -------------------
 Temperature   298.150 Kelvin.  Pressure   1.00000 Atm.
 Atom     1 has atomic number  6 and mass  12.00000

 Molecular mass:   181.14666 amu.
 Principal axes and moments of inertia in atomic units:
                           1         2         3
     Eigenvalues --  1417.967274100.024324425.46724
           X            0.99989  -0.01455  -0.00003
           Y            0.01455   0.99978   0.01520
           Z           -0.00019  -0.01520   0.99988
 This molecule is an asymmetric top.
 Rotational symmetry number  1.
 Warning -- assumption of classical behavior for rotation
           may cause significant error
 Rotational temperatures (Kelvin)      0.06108     0.02113     0.01957
 Rotational constants (GHZ):           1.27277     0.44018     0.40781
 Zero-point vibrational energy     759692.0 (Joules/Mol)
                                  181.57074 (Kcal/Mol)
 Warning -- explicit consideration of  21 degrees of freedom as
           vibrations may cause significant error
 Vibrational temperatures:     50.04    77.81    81.99   104.65   172.80
          (Kelvin)            263.21   333.07   357.54   367.48   396.86
                              437.77   491.32   513.17   576.95   587.43
                              646.19   722.53   738.86   773.92   842.18
                              866.57  1035.52  1053.77  1096.46  1143.30
                             1192.40  1207.67  1285.06  1299.30  1326.87
                             1347.01  1380.93  1414.07  1458.11  1481.40
                             1507.94  1540.31  1562.42  1582.31  1606.44
                             1618.06  1639.73  1729.36  1761.72  1778.15
                             1837.30  1849.74  1876.70  1903.90  1917.29
                             1944.06  1968.84  1986.63  2005.02  2023.71
                             2032.86  2050.43  2069.69  2076.93  2121.87
                             2136.79  2167.93  2169.60  2179.78  2181.61
                             2189.57  2198.35  2200.00  2202.86  2500.75
                             2566.22  4331.39  4344.04  4359.50  4360.69
                             4370.16  4371.74  4388.48  4414.26  4418.41
                             4430.58  4431.91  4437.48  4444.20  4470.66
                             4484.12  4496.05  4541.26  4650.78  5185.12

 Zero-point correction=                           0.289351 (Hartree/Particle)
 Thermal correction to Energy=                    0.302943
 Thermal correction to Enthalpy=                  0.303887
 Thermal correction to Gibbs Free Energy=         0.248462
 Sum of electronic and zero-point Energies=           -560.356546
 Sum of electronic and thermal Energies=              -560.342954
 Sum of electronic and thermal Enthalpies=            -560.342010
 Sum of electronic and thermal Free Energies=         -560.397435

                     E (Thermal)             CV                S
                      KCal/Mol        Cal/Mol-Kelvin    Cal/Mol-Kelvin
 Total                  190.099             52.113            116.651
 Electronic               0.000              0.000              0.000
 Translational            0.889              2.981             41.489
 Rotational               0.889              2.981             31.620
 Vibrational            188.322             46.151             43.541
 Vibration     1          0.594              1.983              5.536
 Vibration     2          0.596              1.976              4.662
 Vibration     3          0.596              1.975              4.559
 Vibration     4          0.599              1.967              4.078
 Vibration     5          0.609              1.933              3.099
 Vibration     6          0.630              1.863              2.298
 Vibration     7          0.653              1.793              1.867
 Vibration     8          0.662              1.765              1.741
 Vibration     9          0.666              1.754              1.693
 Vibration    10          0.677              1.718              1.559
 Vibration    11          0.695              1.666              1.393
 Vibration    12          0.721              1.593              1.205
 Vibration    13          0.732              1.562              1.137
 Vibration    14          0.767              1.468              0.959
 Vibration    15          0.773              1.452              0.933
 Vibration    16          0.808              1.363              0.798
 Vibration    17          0.858              1.245              0.653
 Vibration    18          0.869              1.220              0.625
 Vibration    19          0.893              1.166              0.570
 Vibration    20          0.942              1.063              0.476
 Vibration    21          0.961              1.027              0.446

 Optimization completed.
    -- Stationary point found.
 Normal termination of Gaussian 16 at Sun Dec 13 16:11:11 2020.

 ----------------------------------------------------------------------
 # B3LYP/6-311++G(d,p) empiricaldispersion=gd3bj scf=xqc pop=npa geom=c
 heck
 ----------------------------------------------------------------------

 ---------------------------------------
 CID_114477837_JID_3906_Energie_neutraal
 ---------------------------------------
 Structure from the checkpoint file:  "JID_3906.chk"
 Charge =  0 Multiplicity = 1

 SCF Done:  E(RB3LYP) =  -560.807678943     A.U. after   15 cycles
 Normal termination of Gaussian 16 at Sun Dec 13 16:14:51 2020.

 ----------------------------------------------------------------------
 # B3LYP/6-311++G(d,p) empiricaldispersion=gd3bj scf=xqc pop=npa geom=c
 heck
 ----------------------------------------------------------------------

 -------------------------------------
 CID_114477837_JID_3906_Energie_kation
 -------------------------------------
 Structure from the checkpoint file:  "JID_3906.chk"
 Charge =  1 Multiplicity = 2

 SCF Done:  E(UB3LYP) =  -560.493592867     A.U. after   33 cycles
 SCF Done:  E(UB3LYP) =  -560.493592867     a.u. after    1 cycles
 Normal termination of Gaussian 16 at Sun Dec 13 16:25:17 2020.
 Gaussian 16:  ES64L-G16RevA.03 25-Dec-2016

 ----------------------------------------------------------------------
 # B3LYP/6-311++G(d,p) empiricaldispersion=gd3bj scf=xqc pop=npa geom=c
 heck
 ----------------------------------------------------------------------

 ------------------------------------
 CID_114477837_JID_3906_Energie_anion
 ------------------------------------
 Structure from the checkpoint file:  "JID_3906.chk"
 Charge = -1 Multiplicity = 2

                         Standard orientation:
 ---------------------------------------------------------------------
 Center     Atomic      Atomic             Coordinates (Angstroms)
 Number     Number       Type             X           Y           Z
 ---------------------------------------------------------------------
      1          6           0       -2.455938   -0.514081    1.654549
      2          6           0       -3.115536   -0.312429    0.313123
      3          6           0       -4.425508   -0.067514    0.214572
      4          6           0       -2.239114   -0.392892   -0.918454
      5          6           0       -1.097458    0.650104   -0.958922
      6          6           0        0.225274    0.162991   -0.343650
      7          6           0        0.957677   -0.831075   -1.278274
      8          6           0        1.904114   -1.807673   -0.569275
      9          6           0        3.088823   -1.169673    0.165813
     10          6           0        2.682707   -0.174632    1.261103
     11          7           0        2.216354    1.112090    0.759930
     12          6           0        1.128842    1.358049   -0.034767
     13          8           0        0.916549    2.481383   -0.477872
     14          1           0       -3.191734   -0.525578    2.464171
     15          1           0       -1.735700    0.285751    1.869769
     16          1           0       -1.897953   -1.460036    1.685176
     17          1           0       -4.906474    0.088415   -0.747777
     18          1           0       -5.064596   -0.011082    1.092347
     19          1           0       -1.814777   -1.406347   -0.991765
     20          1           0       -2.873692   -0.266764   -1.802055
     21          1           0       -0.899837    0.939124   -1.997213
     22          1           0       -1.417780    1.568269   -0.458456
     23          1           0        0.014920   -0.358668    0.599015
     24          1           0        0.202073   -1.421498   -1.810003
     25          1           0        1.497940   -0.263996   -2.048442
     26          1           0        1.318680   -2.395516    0.153478
     27          1           0        2.290188   -2.524863   -1.304576
     28          1           0        3.685087   -1.967113    0.628664
     29          1           0        3.745007   -0.653021   -0.546876
     30          1           0        1.917364   -0.626120    1.907989
     31          1           0        3.542301    0.039077    1.902819
     32          1           0        2.818819    1.917233    0.872304
 ---------------------------------------------------------------------

 SCF Done:  E(UB3LYP) =  -560.796878650     A.U. after   33 cycles
 SCF Done:  E(UB3LYP) =  -560.796878649     a.u. after    1 cycles

 The electronic state is 2-A.
 Alpha  occ. eigenvalues --  -18.98709 -14.23312 -10.16979 -10.10634 -10.09318
 Alpha  occ. eigenvalues --  -10.08614 -10.07964 -10.07710 -10.07406 -10.07270
 Alpha  occ. eigenvalues --  -10.06947 -10.06845 -10.06695  -0.93808  -0.82271
 Alpha  occ. eigenvalues --   -0.73622  -0.71187  -0.68114  -0.63686  -0.60193
 Alpha  occ. eigenvalues --   -0.58942  -0.55490  -0.52442  -0.48251  -0.45263
 Alpha  occ. eigenvalues --   -0.43743  -0.40958  -0.39300  -0.37733  -0.36913
 Alpha  occ. eigenvalues --   -0.35235  -0.34757  -0.33909  -0.32574  -0.32206
 Alpha  occ. eigenvalues --   -0.31810  -0.30156  -0.29553  -0.28366  -0.27169
 Alpha  occ. eigenvalues --   -0.26596  -0.25911  -0.25206  -0.23725  -0.23505
 Alpha  occ. eigenvalues --   -0.22679  -0.22169  -0.16215  -0.15690  -0.15390
 Alpha  occ. eigenvalues --    0.04199
 Alpha virt. eigenvalues --    0.06190   0.06955   0.07450   0.08209   0.08630
 Alpha virt. eigenvalues --    0.08868   0.09658   0.10189   0.10790   0.11039
 Alpha virt. eigenvalues --    0.11286   0.11530   0.12087   0.12549   0.13277

  Beta  occ. eigenvalues --  -18.98708 -14.23298 -10.16980 -10.10594 -10.09310
  Beta  occ. eigenvalues --  -10.08606 -10.07951 -10.07699 -10.07380 -10.07266
  Beta  occ. eigenvalues --  -10.06921 -10.06818 -10.06680  -0.93803  -0.82240
  Beta  occ. eigenvalues --   -0.73600  -0.71156  -0.68071  -0.63651  -0.60148
  Beta  occ. eigenvalues --   -0.58899  -0.55437  -0.52410  -0.48176  -0.45224
  Beta  occ. eigenvalues --   -0.43700  -0.40919  -0.39241  -0.37711  -0.36883
  Beta  occ. eigenvalues --   -0.35192  -0.34728  -0.33875  -0.32533  -0.32171
  Beta  occ. eigenvalues --   -0.31781  -0.30127  -0.29529  -0.28337  -0.27137
  Beta  occ. eigenvalues --   -0.26558  -0.25888  -0.25184  -0.23691  -0.23460
  Beta  occ. eigenvalues --   -0.22639  -0.22144  -0.16165  -0.15683  -0.15360
  Beta virt. eigenvalues --    0.06332   0.07235   0.07520   0.07991   0.08696
  Beta virt. eigenvalues --    0.08988   0.09148   0.10054   0.10709   0.11021
  Beta virt. eigenvalues --    0.11320   0.11636   0.11678   0.12330   0.13106

 Mulliken charges and spin densities:
               1          2
     1  C   -0.281427  -0.544137
     2  C    0.062954   0.804447
     3  C    0.564597  -1.332565
     4  C   -0.553490   0.283238
     5  C    0.010187  -0.506285
     6  C    0.532132  -0.055735
     7  C   -0.311748  -0.135727
     8  C   -0.546399   0.312551
     9  C    1.343558  -1.768554
    10  C    0.165030  -0.436280
    11  N   -0.184381  -0.051976
    12  C   -0.635299   0.482976
    13  O   -0.344617   0.003048
    14  H   -0.475755   0.628046
    15  H   -0.041484   0.225256
    16  H   -0.153040   0.322373
    17  H    0.015528   0.088762
    18  H    0.063363   0.047464
    19  H   -0.038918   0.135255
    20  H    0.014016   0.175528
    21  H    0.190852  -0.005447
    22  H    0.210132  -0.013724
    23  H    2.025357  -1.968311
    24  H   -0.085502   0.266664
    25  H    0.078379   0.083559
    26  H   -0.377796   0.546426
    27  H   -0.343584   0.505042
    28  H   -0.466559   0.641837
    29  H    0.095762   0.036897
    30  H   -0.324758   0.486449
    31  H   -1.300583   1.514526
    32  H    0.093494   0.228396
 Sum of Mulliken charges =  -1.00000   1.00000

 Dipole moment (field-independent basis, Debye):
    X=             -5.0744    Y=              2.3005    Z=             -4.0967  Tot=              6.9155
 Quadrupole moment (field-independent basis, Debye-Ang):
   XX=           -157.3668   YY=           -131.8578   ZZ=           -121.5410
   XY=              3.8260   XZ=             -9.6034   YZ=              4.6454

 Summary of Natural Population Analysis:

                                       Natural Population
                Natural  -----------------------------------------------
    Atom  No    Charge         Core      Valence    Rydberg      Total
 -----------------------------------------------------------------------
      C    1   -0.30335      0.99961     2.29758    0.00616     3.30335
      C    2    0.00794      0.99953     1.98151    0.01102     2.99206
      C    3   -0.20426      0.99949     2.19876    0.00601     3.20426
      C    4   -0.20468      0.99957     2.19576    0.00935     3.20468
      C    5   -0.18639      0.99961     2.17739    0.00939     3.18639
      C    6   -0.15599      0.99954     2.14732    0.00912     3.15599
      C    7   -0.18549      0.99961     2.17653    0.00935     3.18549
      C    8   -0.18911      0.99962     2.18034    0.00914     3.18911
      C    9   -0.19307      0.99962     2.18486    0.00859     3.19307
      C   10   -0.09150      0.99961     2.07988    0.01201     3.09150
      N   11   -0.31848      0.99967     2.80797    0.01085     3.81848
      C   12    0.35007      0.99964     1.62668    0.02362     2.64993
      O   13   -0.33012      0.99988     3.32490    0.00535     4.33012
      H   14    0.10264      0.00000     0.39642    0.00093     0.39736
      H   15    0.10436      0.00000     0.39442    0.00122     0.39564
      H   16    0.10593      0.00000     0.39253    0.00153     0.39407
      H   17    0.09077      0.00000     0.40823    0.00100     0.40923
      H   18    0.09121      0.00000     0.40786    0.00093     0.40879
      H   19    0.10153      0.00000     0.39697    0.00150     0.39847
      H   20    0.10017      0.00000     0.39889    0.00094     0.39983
      H   21    0.10222      0.00000     0.39683    0.00095     0.39778
      H   22    0.10856      0.00000     0.39037    0.00107     0.39144
      H   23    0.10705      0.00000     0.39009    0.00285     0.39295
      H   24    0.10042      0.00000     0.39836    0.00123     0.39958
      H   25    0.09685      0.00000     0.40184    0.00131     0.40315
      H   26    0.09562      0.00000     0.40229    0.00209     0.40438
      H   27    0.10056      0.00000     0.39819    0.00125     0.39944
      H   28    0.10565      0.00000     0.39155    0.00280     0.39435
      H   29    0.09477      0.00000     0.40391    0.00132     0.40523
      H   30    0.09389      0.00000     0.40402    0.00209     0.40611
      H   31    0.10703      0.00000     0.38841    0.00456     0.39297
      H   32    0.19520      0.00000     0.30258    0.00222     0.30480
 =======================================================================
   * Total *   -0.00000     12.99500    36.84326    0.16174    50.00000

 Normal termination of Gaussian 16 at Sun Dec 13 16:35:46 2020.
