 Gaussian 16, Revision A.03,

 -----------------------------------------------------------
 # opt freq B3LYP/6-31G(d) empiricaldispersion=gd3bj scf=xqc
 -----------------------------------------------------------

 -------------------------------
 CID_108382277_JID_5720_neutraal
 -------------------------------
 Symbolic Z-matrix:
 Charge =  0 Multiplicity = 1

 SCF Done:  E(RB3LYP) =  -740.682366892     A.U. after   14 cycles
 SCF Done:  E(RB3LYP) =  -740.686899761     A.U. after   13 cycles
 SCF Done:  E(RB3LYP) =  -740.687385571     A.U. after   12 cycles
 SCF Done:  E(RB3LYP) =  -740.687858706     A.U. after   12 cycles
 SCF Done:  E(RB3LYP) =  -740.688296702     A.U. after   11 cycles
 SCF Done:  E(RB3LYP) =  -740.688665205     A.U. after   12 cycles
 SCF Done:  E(RB3LYP) =  -740.689023137     A.U. after   13 cycles
 SCF Done:  E(RB3LYP) =  -740.689190975     A.U. after   12 cycles
 SCF Done:  E(RB3LYP) =  -740.689713321     A.U. after   12 cycles
 SCF Done:  E(RB3LYP) =  -740.689836384     A.U. after   11 cycles
 SCF Done:  E(RB3LYP) =  -740.689916521     A.U. after   10 cycles
 SCF Done:  E(RB3LYP) =  -740.689917393     A.U. after    8 cycles
 SCF Done:  E(RB3LYP) =  -740.689917739     A.U. after    8 cycles
 SCF Done:  E(RB3LYP) =  -740.689918108     A.U. after    7 cycles
 SCF Done:  E(RB3LYP) =  -740.689918191     A.U. after    7 cycles
 Optimization completed.
    -- Stationary point found.
 Normal termination of Gaussian 16 at Thu Dec 10 16:09:45 2020.

 --------------------------------------------------------------------
 #N Geom=AllCheck Guess=TCheck SCRF=Check GenChk RB3LYP/6-31G(d) Freq
 --------------------------------------------------------------------

 Structure from the checkpoint file:  "JID_5720.chk"
 -------------------------------
 CID_108382277_JID_5720_neutraal
 -------------------------------
 Charge =  0 Multiplicity = 1

 SCF Done:  E(RB3LYP) =  -740.689918191     A.U. after    1 cycles

  Exact polarizability: 201.117  -5.695 105.813  14.164  -0.089  84.860
 Approx polarizability: 258.829 -13.096 178.619  27.376   2.241 120.854

                      1                      2                      3
                      A                      A                      A
 Frequencies --     17.5644                28.5524                32.3732
 Red. masses --      4.2035                 3.6363                 8.5612
 Frc consts  --      0.0008                 0.0017                 0.0053
 IR Inten    --      0.0902                 1.6701                 0.9544

                      4                      5                      6
                      A                      A                      A
 Frequencies --     48.9846                71.0609                83.1115
 Red. masses --      7.0211                 4.3268                 3.9364
 Frc consts  --      0.0099                 0.0129                 0.0160
 IR Inten    --      1.0139                 0.9912                 0.4815

                      7                      8                      9
                      A                      A                      A
 Frequencies --    144.2488               183.0660               194.2416
 Red. masses --      4.0969                 4.2763                 3.1196
 Frc consts  --      0.0502                 0.0844                 0.0693
 IR Inten    --      1.3475                 5.4350                 0.5984

                     10                     11                     12
                      A                      A                      A
 Frequencies --    244.8164               268.3498               275.0048
 Red. masses --      1.1051                 4.8636                 1.1221
 Frc consts  --      0.0390                 0.2064                 0.0500
 IR Inten    --      0.1331                 1.8576                 0.0726

                     13                     14                     15
                      A                      A                      A
 Frequencies --    296.2682               326.8639               355.1580
 Red. masses --      3.8171                 3.3104                 3.2945
 Frc consts  --      0.1974                 0.2084                 0.2448
 IR Inten    --      1.3210                 4.2975                 0.2574

                     16                     17                     18
                      A                      A                      A
 Frequencies --    391.7377               430.2955               479.2661
 Red. masses --      4.8400                 4.0294                 3.1936
 Frc consts  --      0.4376                 0.4396                 0.4322
 IR Inten    --      1.9802                 3.5044                11.9573

                     19                     20                     21
                      A                      A                      A
 Frequencies --    496.0575               517.3392               562.3384
 Red. masses --      3.1222                 2.2778                 4.1808
 Frc consts  --      0.4527                 0.3592                 0.7789
 IR Inten    --      2.9175                13.5523                42.5056

                     22                     23                     24
                      A                      A                      A
 Frequencies --    636.0792               649.3037               665.8909
 Red. masses --      4.1731                 3.4697                 2.7619
 Frc consts  --      0.9948                 0.8619                 0.7215
 IR Inten    --     62.5253                19.0501                 2.5070

                     25                     26                     27
                      A                      A                      A
 Frequencies --    683.8064               699.2264               791.1303
 Red. masses --      4.6881                 1.5694                 1.3947
 Frc consts  --      1.2915                 0.4521                 0.5143
 IR Inten    --     10.8908               117.5528                 8.5692

                     28                     29                     30
                      A                      A                      A
 Frequencies --    812.8121               857.7754               882.2233
 Red. masses --      4.4522                 4.3958                 1.3615
 Frc consts  --      1.7330                 1.9056                 0.6244
 IR Inten    --     49.0662                10.3334                10.9507

                     31                     32                     33
                      A                      A                      A
 Frequencies --    900.6680               939.9924               949.9013
 Red. masses --      2.5146                 4.8660                 1.1862
 Frc consts  --      1.2018                 2.5332                 0.6306
 IR Inten    --      3.9097               112.5824                 1.0558

                     34                     35                     36
                      A                      A                      A
 Frequencies --    967.5343               981.5453               999.5576
 Red. masses --      1.4370                 1.4677                 3.9017
 Frc consts  --      0.7926                 0.8331                 2.2968
 IR Inten    --      0.2862                 9.5176                36.5667

                     37                     38                     39
                      A                      A                      A
 Frequencies --   1048.8747              1052.4132              1120.1132
 Red. masses --      2.7543                 3.1050                 1.5198
 Frc consts  --      1.7853                 2.0262                 1.1235
 IR Inten    --     60.0099                 2.9636                 4.1934

                     40                     41                     42
                      A                      A                      A
 Frequencies --   1137.5187              1157.0896              1176.9618
 Red. masses --      4.5804                 2.4709                 2.3347
 Frc consts  --      3.4920                 1.9491                 1.9055
 IR Inten    --    194.8408                13.4686                40.7161

                     43                     44                     45
                      A                      A                      A
 Frequencies --   1205.3684              1213.5953              1228.8334
 Red. masses --      2.1205                 1.6724                 1.5713
 Frc consts  --      1.8152                 1.4513                 1.3979
 IR Inten    --    197.7477                70.2111                 4.3200

                     46                     47                     48
                      A                      A                      A
 Frequencies --   1274.1386              1300.9416              1358.3728
 Red. masses --      2.3120                 1.1309                 1.8252
 Frc consts  --      2.2114                 1.1277                 1.9842
 IR Inten    --     29.4327                21.1325                31.5249

                     49                     50                     51
                      A                      A                      A
 Frequencies --   1376.0067              1385.6931              1400.1354
 Red. masses --      1.4379                 1.4250                 1.6596
 Frc consts  --      1.6040                 1.6122                 1.9169
 IR Inten    --      3.5806                49.3856                36.1389

                     52                     53                     54
                      A                      A                      A
 Frequencies --   1410.9140              1427.6428              1430.4606
 Red. masses --      2.3960                 1.2813                 4.3998
 Frc consts  --      2.8102                 1.5386                 5.3043
 IR Inten    --     54.8814                 9.7246                10.1088

                     55                     56                     57
                      A                      A                      A
 Frequencies --   1447.4532              1454.4823              1476.5790
 Red. masses --      1.3111                 5.4426                 1.0887
 Frc consts  --      1.6184                 6.7839                 1.3985
 IR Inten    --     15.1815                 3.0395                 2.2920

                     58                     59                     60
                      A                      A                      A
 Frequencies --   1495.2165              1516.3712              1517.6926
 Red. masses --      3.1234                 1.0531                 1.0569
 Frc consts  --      4.1142                 1.4267                 1.4343
 IR Inten    --     26.7281                 3.3196                 0.5151

                     61                     62                     63
                      A                      A                      A
 Frequencies --   1532.3512              1541.4373              1608.0266
 Red. masses --      1.0535                 1.0617                 5.3014
 Frc consts  --      1.4574                 1.4863                 8.0766
 IR Inten    --     10.8906                 1.8471                66.3711

                     64                     65                     66
                      A                      A                      A
 Frequencies --   1704.6471              1849.6817              3055.2273
 Red. masses --      8.1974                10.0343                 1.0358
 Frc consts  --     14.0345                20.2271                 5.6967
 IR Inten    --     38.2436               299.7519                16.0845

                     67                     68                     69
                      A                      A                      A
 Frequencies --   3059.7520              3077.1948              3092.9761
 Red. masses --      1.0376                 1.0575                 1.0855
 Frc consts  --      5.7233                 5.9000                 6.1186
 IR Inten    --     15.5404                38.9888                 1.5496

                     70                     71                     72
                      A                      A                      A
 Frequencies --   3122.6932              3126.7164              3127.9259
 Red. masses --      1.1023                 1.0891                 1.1065
 Frc consts  --      6.3329                 6.2731                 6.3787
 IR Inten    --      4.0636                18.8264                 3.9292

                     73                     74                     75
                      A                      A                      A
 Frequencies --   3131.9748              3140.9283              3147.6569
 Red. masses --      1.1003                 1.1033                 1.1025
 Frc consts  --      6.3589                 6.4128                 6.4356
 IR Inten    --     55.4360                25.2071                15.4209

                     76                     77                     78
                      A                      A                      A
 Frequencies --   3276.3269              3287.5029              3683.6009
 Red. masses --      1.0965                 1.0970                 1.0640
 Frc consts  --      6.9345                 6.9851                 8.5059
 IR Inten    --      1.0813                 0.1337                47.7983

 - Thermochemistry -
 -------------------
 Temperature   298.150 Kelvin.  Pressure   1.00000 Atm.
 Atom     1 has atomic number  6 and mass  12.00000

 Molecular mass:   211.09569 amu.
 Principal axes and moments of inertia in atomic units:
                           1         2         3
     Eigenvalues --   958.173909372.052779443.09302
           X            0.99999  -0.00309   0.00359
           Y            0.00385   0.97206  -0.23470
           Z           -0.00276   0.23471   0.97206
 This molecule is an asymmetric top.
 Rotational symmetry number  1.
 Warning -- assumption of classical behavior for rotation
           may cause significant error
 Rotational temperatures (Kelvin)      0.09039     0.00924     0.00917
 Rotational constants (GHZ):           1.88352     0.19257     0.19112
 Zero-point vibrational energy     592412.5 (Joules/Mol)
                                  141.58998 (Kcal/Mol)
 Warning -- explicit consideration of  21 degrees of freedom as
           vibrations may cause significant error
 Vibrational temperatures:     25.27    41.08    46.58    70.48   102.24
          (Kelvin)            119.58   207.54   263.39   279.47   352.24
                              386.10   395.67   426.26   470.28   510.99
                              563.62   619.10   689.56   713.72   744.34
                              809.08   915.18   934.20   958.07   983.84
                             1006.03  1138.26  1169.46  1234.15  1269.32
                             1295.86  1352.44  1366.70  1392.07  1412.22
                             1438.14  1509.10  1514.19  1611.59  1636.64
                             1664.79  1693.39  1734.26  1746.09  1768.02
                             1833.20  1871.76  1954.40  1979.77  1993.70
                             2014.48  2029.99  2054.06  2058.11  2082.56
                             2092.68  2124.47  2151.28  2181.72  2183.62
                             2204.71  2217.78  2313.59  2452.61  2661.28
                             4395.79  4402.30  4427.40  4450.10  4492.86
                             4498.65  4500.39  4506.21  4519.10  4528.78
                             4713.90  4729.98  5299.88

 Zero-point correction=                           0.225638 (Hartree/Particle)
 Thermal correction to Energy=                    0.240858
 Thermal correction to Enthalpy=                  0.241802
 Thermal correction to Gibbs Free Energy=         0.179866
 Sum of electronic and zero-point Energies=           -740.464280
 Sum of electronic and thermal Energies=              -740.449060
 Sum of electronic and thermal Enthalpies=            -740.448116
 Sum of electronic and thermal Free Energies=         -740.510052

                     E (Thermal)             CV                S
                      KCal/Mol        Cal/Mol-Kelvin    Cal/Mol-Kelvin
 Total                  151.141             54.702            130.356
 Electronic               0.000              0.000              0.000
 Translational            0.889              2.981             41.945
 Rotational               0.889              2.981             32.805
 Vibrational            149.363             48.740             55.605
 Vibration     1          0.593              1.986              6.892
 Vibration     2          0.593              1.984              5.928
 Vibration     3          0.594              1.983              5.678
 Vibration     4          0.595              1.978              4.858
 Vibration     5          0.598              1.968              4.124
 Vibration     6          0.600              1.961              3.816
 Vibration     7          0.616              1.909              2.747
 Vibration     8          0.631              1.863              2.297
 Vibration     9          0.635              1.848              2.187
 Vibration    10          0.660              1.771              1.768
 Vibration    11          0.673              1.731              1.607
 Vibration    12          0.677              1.720              1.565
 Vibration    13          0.690              1.681              1.438
 Vibration    14          0.711              1.622              1.276
 Vibration    15          0.731              1.565              1.143
 Vibration    16          0.759              1.488              0.994
 Vibration    17          0.791              1.404              0.858
 Vibration    18          0.836              1.296              0.712
 Vibration    19          0.852              1.259              0.668
 Vibration    20          0.872              1.212              0.616
 Vibration    21          0.918              1.113              0.519

 Optimization completed.
    -- Stationary point found.
 Normal termination of Gaussian 16 at Thu Dec 10 16:16:00 2020.

 ----------------------------------------------------------------------
 # B3LYP/6-311++G(d,p) empiricaldispersion=gd3bj scf=xqc pop=npa geom=c
 heck
 ----------------------------------------------------------------------

 ---------------------------------------
 CID_108382277_JID_5720_Energie_neutraal
 ---------------------------------------
 Structure from the checkpoint file:  "JID_5720.chk"
 Charge =  0 Multiplicity = 1

 SCF Done:  E(RB3LYP) =  -740.908751931     A.U. after   15 cycles
 Normal termination of Gaussian 16 at Thu Dec 10 16:19:39 2020.

 ----------------------------------------------------------------------
 # B3LYP/6-311++G(d,p) empiricaldispersion=gd3bj scf=xqc pop=npa geom=c
 heck
 ----------------------------------------------------------------------

 -------------------------------------
 CID_108382277_JID_5720_Energie_kation
 -------------------------------------
 Structure from the checkpoint file:  "JID_5720.chk"
 Charge =  1 Multiplicity = 2

 SCF Done:  E(UB3LYP) =  -740.613168142     A.U. after   24 cycles
 Normal termination of Gaussian 16 at Thu Dec 10 16:28:42 2020.
 Gaussian 16:  ES64L-G16RevA.03 25-Dec-2016

 ----------------------------------------------------------------------
 # B3LYP/6-311++G(d,p) empiricaldispersion=gd3bj scf=xqc pop=npa geom=c
 heck
 ----------------------------------------------------------------------

 ------------------------------------
 CID_108382277_JID_5720_Energie_anion
 ------------------------------------
 Structure from the checkpoint file:  "JID_5720.chk"
 Charge = -1 Multiplicity = 2

                         Standard orientation:
 ---------------------------------------------------------------------
 Center     Atomic      Atomic             Coordinates (Angstroms)
 Number     Number       Type             X           Y           Z
 ---------------------------------------------------------------------
      1          6           0        4.626228   -1.121309    1.062065
      2          6           0        4.225323    0.195733    0.400677
      3          6           0        4.927495    0.419427   -0.942187
      4          7           0        2.771012    0.279730    0.227636
      5          6           0        1.879351   -0.710255   -0.017822
      6          6           0        0.646150   -0.103420   -0.234093
      7          6           0        0.919470    1.284792   -0.104365
      8          7           0        2.199116    1.510618    0.167389
      9          6           0       -0.606778   -0.772769   -0.509749
     10          7           0       -1.687341   -0.104664   -0.686324
     11          8           0       -2.757808   -0.980556   -0.965569
     12          6           0       -3.953959   -0.235156   -0.968130
     13          6           0       -4.441657    0.208930    0.404172
     14          8           0       -5.315322    1.032711    0.558185
     15          8           0       -3.833707   -0.435594    1.420017
     16          1           0        4.444386   -1.976141    0.400945
     17          1           0        4.081031   -1.279725    1.997624
     18          1           0        5.697175   -1.103213    1.285137
     19          1           0        4.467154    1.025251    1.071524
     20          1           0        4.689538   -0.390881   -1.640649
     21          1           0        4.603664    1.365799   -1.383493
     22          1           0        6.013602    0.448998   -0.803726
     23          1           0        2.159208   -1.752825   -0.014519
     24          1           0        0.223649    2.107242   -0.192598
     25          1           0       -0.619824   -1.863716   -0.568104
     26          1           0       -3.869733    0.658885   -1.594380
     27          1           0       -4.715363   -0.894207   -1.398697
     28          1           0       -4.229036   -0.073585    2.235558
 ---------------------------------------------------------------------

 SCF Done:  E(UB3LYP) =  -740.900896173     A.U. after   33 cycles
 SCF Done:  E(UB3LYP) =  -740.900896173     a.u. after    1 cycles

 The electronic state is 2-A.
 Alpha  occ. eigenvalues --  -19.08570 -19.06555 -19.02984 -14.28716 -14.24055
 Alpha  occ. eigenvalues --  -14.23028 -10.21771 -10.14577 -10.12607 -10.10443
 Alpha  occ. eigenvalues --  -10.09606 -10.08838 -10.07418 -10.07245 -10.06970
 Alpha  occ. eigenvalues --   -1.02816  -0.98789  -0.95064  -0.93751  -0.77968
 Alpha  occ. eigenvalues --   -0.75680  -0.69506  -0.66509  -0.63336  -0.60239
 Alpha  occ. eigenvalues --   -0.55609  -0.52736  -0.51723  -0.47403  -0.46509
 Alpha  occ. eigenvalues --   -0.42663  -0.41881  -0.40621  -0.39606  -0.38465
 Alpha  occ. eigenvalues --   -0.37919  -0.35650  -0.35125  -0.34387  -0.33105
 Alpha  occ. eigenvalues --   -0.31333  -0.30801  -0.30694  -0.29563  -0.29134
 Alpha  occ. eigenvalues --   -0.28481  -0.27897  -0.26176  -0.25634  -0.24136
 Alpha  occ. eigenvalues --   -0.21327  -0.19875  -0.18567  -0.17845  -0.16072
 Alpha  occ. eigenvalues --   -0.12131   0.04160
 Alpha virt. eigenvalues --    0.05570   0.06262   0.07383   0.07656   0.08211
 Alpha virt. eigenvalues --    0.08536   0.09275   0.09865   0.10227   0.10727
 Alpha virt. eigenvalues --    0.11312   0.11787   0.11955   0.12418   0.13013

  Beta  occ. eigenvalues --  -19.08536 -19.06538 -19.02957 -14.28711 -14.23824
  Beta  occ. eigenvalues --  -14.23047 -10.21714 -10.14573 -10.12602 -10.10339
  Beta  occ. eigenvalues --  -10.09487 -10.08806 -10.07426 -10.07195 -10.06937
  Beta  occ. eigenvalues --   -1.02735  -0.98661  -0.95042  -0.93690  -0.77720
  Beta  occ. eigenvalues --   -0.75639  -0.69398  -0.66438  -0.63233  -0.60163
  Beta  occ. eigenvalues --   -0.55417  -0.52661  -0.51600  -0.47285  -0.46426
  Beta  occ. eigenvalues --   -0.42581  -0.41742  -0.40560  -0.39480  -0.38363
  Beta  occ. eigenvalues --   -0.37852  -0.35536  -0.35019  -0.34330  -0.32938
  Beta  occ. eigenvalues --   -0.31243  -0.30735  -0.30609  -0.29487  -0.28955
  Beta  occ. eigenvalues --   -0.28421  -0.27545  -0.26117  -0.25577  -0.23990
  Beta  occ. eigenvalues --   -0.21096  -0.19862  -0.18364  -0.17614  -0.15848
  Beta  occ. eigenvalues --   -0.11592
  Beta virt. eigenvalues --    0.06295   0.06801   0.07376   0.07904   0.08330
  Beta virt. eigenvalues --    0.08665   0.09013   0.09688   0.09940   0.10444
  Beta virt. eigenvalues --    0.11057   0.11612   0.11862   0.12220   0.12568

 Mulliken charges and spin densities:
               1          2
     1  C    1.005725  -1.510395
     2  C   -1.550108   1.494573
     3  C    0.995350  -1.546776
     4  N    0.435374  -0.067674
     5  C   -0.744468   0.086330
     6  C    1.626028  -0.642224
     7  C    0.113213  -0.022059
     8  N   -0.184538   0.033677
     9  C   -0.929464  -0.123944
    10  N   -0.338986   0.132878
    11  O    0.139831  -0.003276
    12  C   -0.016053  -0.238175
    13  C    0.071659   0.033099
    14  O   -0.319668   0.013498
    15  O   -0.162247  -0.006691
    16  H   -0.265553   0.396811
    17  H   -0.008358   0.167174
    18  H   -0.902688   1.085653
    19  H   -0.054770   0.246475
    20  H   -0.061668   0.223657
    21  H    0.092130   0.065671
    22  H   -0.322505   0.467584
    23  H   -0.121512   0.278775
    24  H    0.158032  -0.005015
    25  H    0.051496   0.083645
    26  H    0.221241  -0.023596
    27  H   -0.009337   0.186448
    28  H    0.081846   0.193879
 Sum of Mulliken charges =  -1.00000   1.00000

 Dipole moment (field-independent basis, Debye):
    X=             -6.7050    Y=              0.3856    Z=             -1.3330  Tot=              6.8471
 Quadrupole moment (field-independent basis, Debye-Ang):
   XX=           -222.0319   YY=           -116.7238   ZZ=           -109.9247
   XY=             12.5479   XZ=             -4.8760   YZ=              0.6225

 Summary of Natural Population Analysis:

                                       Natural Population
                Natural  -----------------------------------------------
    Atom  No    Charge         Core      Valence    Rydberg      Total
 -----------------------------------------------------------------------
      C    1   -0.29108      0.99965     2.28551    0.00592     3.29108
      C    2   -0.00469      0.99960     1.99224    0.01285     3.00469
      C    3   -0.28719      0.99964     2.28218    0.00537     3.28719
      N    4   -0.10879      0.99964     2.59523    0.01391     3.60879
      C    5    0.02102      0.99952     1.96898    0.01048     2.97898
      C    6   -0.10444      0.99952     2.09468    0.01024     3.10444
      C    7    0.00878      0.99960     1.97805    0.01357     2.99122
      N    8   -0.15697      0.99973     2.64683    0.01041     3.65697
      C    9    0.04963      0.99962     1.93656    0.01420     2.95037
      N   10   -0.05876      0.99964     2.54579    0.01333     3.55876
      O   11   -0.22239      0.99989     3.21137    0.01114     4.22239
      C   12   -0.05566      0.99955     2.04221    0.01389     3.05566
      C   13    0.40139      0.99975     1.57454    0.02431     2.59861
      O   14   -0.31350      0.99987     3.30684    0.00680     4.31350
      O   15   -0.33373      0.99987     3.32665    0.00721     4.33373
      H   16    0.09884      0.00000     0.39965    0.00151     0.40116
      H   17    0.10452      0.00000     0.39434    0.00114     0.39548
      H   18    0.10989      0.00000     0.38746    0.00265     0.39011
      H   19    0.10374      0.00000     0.39444    0.00182     0.39626
      H   20    0.09820      0.00000     0.40082    0.00098     0.40180
      H   21    0.10553      0.00000     0.39352    0.00095     0.39447
      H   22    0.10405      0.00000     0.39449    0.00146     0.39595
      H   23    0.10572      0.00000     0.39316    0.00112     0.39428
      H   24    0.10132      0.00000     0.39774    0.00094     0.39868
      H   25    0.08401      0.00000     0.41307    0.00292     0.41599
      H   26    0.10064      0.00000     0.39781    0.00155     0.39936
      H   27    0.10229      0.00000     0.39620    0.00152     0.39771
      H   28    0.23765      0.00000     0.25756    0.00479     0.26235
 =======================================================================
   * Total *   -0.00000     14.99510    40.80793    0.19697    56.00000

 Normal termination of Gaussian 16 at Thu Dec 10 16:40:07 2020.
