 Gaussian 16, Revision A.03,

 -----------------------------------------------------------
 # opt freq B3LYP/6-31G(d) empiricaldispersion=gd3bj scf=xqc
 -----------------------------------------------------------

 -------------------------------
 CID_136295173_JID_4294_neutraal
 -------------------------------
 Symbolic Z-matrix:
 Charge =  0 Multiplicity = 1

 SCF Done:  E(RB3LYP) =  -986.097235249     A.U. after   15 cycles
 SCF Done:  E(RB3LYP) =  -986.103715731     A.U. after   13 cycles
 SCF Done:  E(RB3LYP) =  -986.104593160     A.U. after   12 cycles
 SCF Done:  E(RB3LYP) =  -986.104718305     A.U. after   11 cycles
 SCF Done:  E(RB3LYP) =  -986.104729904     A.U. after   10 cycles
 SCF Done:  E(RB3LYP) =  -986.104740730     A.U. after    9 cycles
 SCF Done:  E(RB3LYP) =  -986.104741682     A.U. after    8 cycles
 SCF Done:  E(RB3LYP) =  -986.104741760     A.U. after    7 cycles
 Optimization completed.
    -- Stationary point found.
 Normal termination of Gaussian 16 at Thu Dec 10 09:17:58 2020.

 --------------------------------------------------------------------
 #N Geom=AllCheck Guess=TCheck SCRF=Check GenChk RB3LYP/6-31G(d) Freq
 --------------------------------------------------------------------

 Structure from the checkpoint file:  "JID_4294.chk"
 -------------------------------
 CID_136295173_JID_4294_neutraal
 -------------------------------
 Charge =  0 Multiplicity = 1

 SCF Done:  E(RB3LYP) =  -986.104741760     A.U. after    1 cycles

  Exact polarizability: 192.008  -7.591 150.637   3.980   6.419  63.191
 Approx polarizability: 282.159 -26.033 285.841   7.188  19.731  98.953

                      1                      2                      3
                      A                      A                      A
 Frequencies --     23.4795                52.0587                82.7695
 Red. masses --      7.9888                 2.6718                 6.0837
 Frc consts  --      0.0026                 0.0043                 0.0246
 IR Inten    --      0.2618                 0.0286                 0.0714

                      4                      5                      6
                      A                      A                      A
 Frequencies --    108.2191               133.1783               177.8976
 Red. masses --      4.9317                 3.7842                 8.1135
 Frc consts  --      0.0340                 0.0395                 0.1513
 IR Inten    --      0.7507                 1.4266                 7.5080

                      7                      8                      9
                      A                      A                      A
 Frequencies --    209.4461               239.9835               272.0405
 Red. masses --      1.4402                 4.0513                 2.3651
 Frc consts  --      0.0372                 0.1375                 0.1031
 IR Inten    --      0.1935                 0.2941                 1.2742

                     10                     11                     12
                      A                      A                      A
 Frequencies --    302.2064               341.9477               367.6197
 Red. masses --      5.3227                 6.6902                 3.9768
 Frc consts  --      0.2864                 0.4609                 0.3167
 IR Inten    --      2.1554                 1.2156                 3.4710

                     13                     14                     15
                      A                      A                      A
 Frequencies --    477.3659               504.3482               557.9090
 Red. masses --      5.2462                 5.3705                 4.2582
 Frc consts  --      0.7044                 0.8049                 0.7809
 IR Inten    --      2.5217                 0.4133                10.2664

                     16                     17                     18
                      A                      A                      A
 Frequencies --    568.5503               608.0097               632.4082
 Red. masses --      7.2339                 4.3662                 1.7241
 Frc consts  --      1.3777                 0.9510                 0.4063
 IR Inten    --      5.8712                 9.0562                38.0339

                     19                     20                     21
                      A                      A                      A
 Frequencies --    645.5326               684.1308               738.4489
 Red. masses --      5.9420                 4.7931                 2.5689
 Frc consts  --      1.4589                 1.3217                 0.8253
 IR Inten    --     10.9012                 5.5012                28.6117

                     22                     23                     24
                      A                      A                      A
 Frequencies --    747.9930               769.2819               792.6680
 Red. masses --      7.3077                 4.3899                 1.2285
 Frc consts  --      2.4089                 1.5307                 0.4548
 IR Inten    --      0.9624                 4.4206                28.9678

                     25                     26                     27
                      A                      A                      A
 Frequencies --    809.2632               833.7173               869.7472
 Red. masses --      1.2272                 5.8413                 1.5355
 Frc consts  --      0.4735                 2.3922                 0.6844
 IR Inten    --      0.2964                21.5224                24.2160

                     28                     29                     30
                      A                      A                      A
 Frequencies --    878.2665               910.7831               936.0098
 Red. masses --      4.9449                 1.4438                 3.3582
 Frc consts  --      2.2473                 0.7056                 1.7335
 IR Inten    --     27.4616                 5.9965                10.7289

                     31                     32                     33
                      A                      A                      A
 Frequencies --    992.6182              1009.2175              1080.3908
 Red. masses --      3.9135                 3.0560                 2.4320
 Frc consts  --      2.2719                 1.8339                 1.6726
 IR Inten    --     18.9625                 6.7792                14.5809

                     34                     35                     36
                      A                      A                      A
 Frequencies --   1105.2060              1136.2728              1158.6504
 Red. masses --      1.6260                 2.5297                 1.9425
 Frc consts  --      1.1702                 1.9243                 1.5365
 IR Inten    --      2.0775                15.8940                26.1519

                     37                     38                     39
                      A                      A                      A
 Frequencies --   1215.5057              1237.1447              1254.9078
 Red. masses --      2.6325                 2.1992                 1.6308
 Frc consts  --      2.2916                 1.9832                 1.5131
 IR Inten    --      9.0728                 6.7671                23.8350

                     40                     41                     42
                      A                      A                      A
 Frequencies --   1292.6540              1297.9061              1355.1554
 Red. masses --      1.5739                 1.4107                 2.1955
 Frc consts  --      1.5495                 1.4001                 2.3755
 IR Inten    --     31.8028                 4.4819                 2.3005

                     43                     44                     45
                      A                      A                      A
 Frequencies --   1373.4818              1420.1421              1440.4941
 Red. masses --      1.5072                 1.8112                 2.0800
 Frc consts  --      1.6752                 2.1522                 2.5429
 IR Inten    --      0.4418                54.8143                66.7553

                     46                     47                     48
                      A                      A                      A
 Frequencies --   1450.7643              1498.4914              1509.1632
 Red. masses --      4.6602                 3.5525                 1.1061
 Frc consts  --      5.7790                 4.6999                 1.4843
 IR Inten    --     24.4569                 0.4685                 3.5243

                     49                     50                     51
                      A                      A                      A
 Frequencies --   1525.6122              1539.7227              1571.1376
 Red. masses --      1.0421                 1.0729                 6.6482
 Frc consts  --      1.4290                 1.4987                 9.6690
 IR Inten    --      6.1121                 7.7313                22.5526

                     52                     53                     54
                      A                      A                      A
 Frequencies --   1592.9893              1641.1566              1811.4547
 Red. masses --      5.0469                 8.4707                 8.7686
 Frc consts  --      7.5457                13.4422                16.9525
 IR Inten    --    364.2631               124.6245               666.4211

                     55                     56                     57
                      A                      A                      A
 Frequencies --   3054.0674              3058.2441              3101.1293
 Red. masses --      1.0613                 1.0360                 1.1009
 Frc consts  --      5.8323                 5.7087                 6.2379
 IR Inten    --     14.6406                31.6133                10.9126

                     58                     59                     60
                      A                      A                      A
 Frequencies --   3126.6406              3141.5812              3238.3749
 Red. masses --      1.1035                 1.1028                 1.0922
 Frc consts  --      6.3557                 6.4128                 6.7482
 IR Inten    --     32.8420                31.3201                 1.5371

                     61                     62                     63
                      A                      A                      A
 Frequencies --   3254.2275              3267.2599              3577.1989
 Red. masses --      1.0940                 1.0944                 1.0778
 Frc consts  --      6.8261                 6.8835                 8.1260
 IR Inten    --      0.2351                 0.7576                28.9618

 - Thermochemistry -
 -------------------
 Temperature   298.150 Kelvin.  Pressure   1.00000 Atm.
 Atom     1 has atomic number  6 and mass  12.00000

 Molecular mass:   207.04663 amu.
 Principal axes and moments of inertia in atomic units:
                           1         2         3
     Eigenvalues --  1828.366234423.239466110.11182
           X            0.99923   0.03906  -0.00232
           Y           -0.03908   0.99921  -0.00755
           Z            0.00203   0.00764   0.99997
 This molecule is an asymmetric top.
 Rotational symmetry number  1.
 Warning -- assumption of classical behavior for rotation
           may cause significant error
 Rotational temperatures (Kelvin)      0.04737     0.01958     0.01418
 Rotational constants (GHZ):           0.98708     0.40801     0.29537
 Zero-point vibrational energy     458195.1 (Joules/Mol)
                                  109.51126 (Kcal/Mol)
 Warning -- explicit consideration of  17 degrees of freedom as
           vibrations may cause significant error
 Vibrational temperatures:     33.78    74.90   119.09   155.70   191.61
          (Kelvin)            255.95   301.35   345.28   391.41   434.81
                              491.99   528.92   686.82   725.64   802.71
                              818.02   874.79   909.89   928.78   984.31
                             1062.46  1076.20  1106.83  1140.47  1164.35
                             1199.53  1251.37  1263.63  1310.41  1346.71
                             1428.16  1452.04  1554.44  1590.14  1634.84
                             1667.04  1748.84  1779.98  1805.53  1859.84
                             1867.40  1949.77  1976.13  2043.27  2072.55
                             2087.33  2155.99  2171.35  2195.02  2215.32
                             2260.52  2291.96  2361.26  2606.28  4394.12
                             4400.13  4461.83  4498.54  4520.03  4659.30
                             4682.11  4700.86  5146.79

 Zero-point correction=                           0.174517 (Hartree/Particle)
 Thermal correction to Energy=                    0.186863
 Thermal correction to Enthalpy=                  0.187808
 Thermal correction to Gibbs Free Energy=         0.133974
 Sum of electronic and zero-point Energies=           -985.930224
 Sum of electronic and thermal Energies=              -985.917878
 Sum of electronic and thermal Enthalpies=            -985.916934
 Sum of electronic and thermal Free Energies=         -985.970767

                     E (Thermal)             CV                S
                      KCal/Mol        Cal/Mol-Kelvin    Cal/Mol-Kelvin
 Total                  117.259             46.033            113.302
 Electronic               0.000              0.000              0.000
 Translational            0.889              2.981             41.887
 Rotational               0.889              2.981             32.269
 Vibrational            115.481             40.072             39.145
 Vibration     1          0.593              1.985              6.316
 Vibration     2          0.596              1.977              4.738
 Vibration     3          0.600              1.961              3.824
 Vibration     4          0.606              1.943              3.301
 Vibration     5          0.613              1.920              2.900
 Vibration     6          0.628              1.870              2.350
 Vibration     7          0.642              1.826              2.048
 Vibration     8          0.657              1.779              1.803
 Vibration     9          0.675              1.725              1.583
 Vibration    10          0.694              1.670              1.405
 Vibration    11          0.721              1.592              1.203
 Vibration    12          0.740              1.539              1.090
 Vibration    13          0.834              1.300              0.717
 Vibration    14          0.860              1.240              0.647
 Vibration    15          0.913              1.122              0.528
 Vibration    16          0.925              1.099              0.507
 Vibration    17          0.967              1.015              0.436

                           ! Non-Optimized Parameters !
 Normal termination of Gaussian 16 at Thu Dec 10 09:23:55 2020.

 ----------------------------------------------------------------------
 # B3LYP/6-311++G(d,p) empiricaldispersion=gd3bj scf=xqc pop=npa geom=c
 heck
 ----------------------------------------------------------------------

 ---------------------------------------
 CID_136295173_JID_4294_Energie_neutraal
 ---------------------------------------
 Structure from the checkpoint file:  "JID_4294.chk"
 Charge =  0 Multiplicity = 1

 SCF Done:  E(RB3LYP) =  -986.291856768     A.U. after   15 cycles
 Normal termination of Gaussian 16 at Thu Dec 10 09:26:37 2020.

 ----------------------------------------------------------------------
 # B3LYP/6-311++G(d,p) empiricaldispersion=gd3bj scf=xqc pop=npa geom=c
 heck
 ----------------------------------------------------------------------

 -------------------------------------
 CID_136295173_JID_4294_Energie_kation
 -------------------------------------
 Structure from the checkpoint file:  "JID_4294.chk"
 Charge =  1 Multiplicity = 2

 SCF Done:  E(UB3LYP) =  -985.982781795     A.U. after   25 cycles
 Normal termination of Gaussian 16 at Thu Dec 10 09:33:07 2020.
 Gaussian 16:  ES64L-G16RevA.03 25-Dec-2016

 ----------------------------------------------------------------------
 # B3LYP/6-311++G(d,p) empiricaldispersion=gd3bj scf=xqc pop=npa geom=c
 heck
 ----------------------------------------------------------------------

 ------------------------------------
 CID_136295173_JID_4294_Energie_anion
 ------------------------------------
 Structure from the checkpoint file:  "JID_4294.chk"
 Charge = -1 Multiplicity = 2

                         Standard orientation:
 ---------------------------------------------------------------------
 Center     Atomic      Atomic             Coordinates (Angstroms)
 Number     Number       Type             X           Y           Z
 ---------------------------------------------------------------------
      1          6           0       -3.143935   -2.468206    0.756747
      2          6           0       -3.156828   -1.521281   -0.453199
      3          6           0       -2.175164   -0.391127   -0.289350
      4          6           0       -2.572838    0.911928   -0.160404
      5          6           0       -1.606344    1.969853    0.021286
      6          8           0       -1.805751    3.168747    0.150886
      7          7           0       -0.276977    1.470773    0.042308
      8          6           0        0.047395    0.152353   -0.092693
      9          7           0       -0.854836   -0.780685   -0.255900
     10          6           0        1.454198   -0.240369   -0.056200
     11          6           0        1.940281   -1.521467   -0.177182
     12          7           0        3.300936   -1.660975   -0.112809
     13          6           0        3.875976   -0.505257    0.056606
     14         16           0        2.792404    0.863201    0.151702
     15          1           0       -2.137119   -2.864750    0.917182
     16          1           0       -3.827731   -3.308333    0.597527
     17          1           0       -3.452865   -1.942472    1.666815
     18          1           0       -2.882732   -2.084001   -1.354425
     19          1           0       -4.161622   -1.115545   -0.610670
     20          1           0       -3.618019    1.195480   -0.188975
     21          1           0        0.434697    2.182745    0.168435
     22          1           0        1.306136   -2.387095   -0.316322
     23          1           0        4.946501   -0.359581    0.137249
 ---------------------------------------------------------------------

 SCF Done:  E(UB3LYP) =  -986.328378962     A.U. after   21 cycles

 The electronic state is 2-A.
 Alpha  occ. eigenvalues --  -88.74188 -18.95583 -14.22033 -14.17980 -14.15736
 Alpha  occ. eigenvalues --  -10.14158 -10.10968 -10.08374 -10.08370 -10.06269
 Alpha  occ. eigenvalues --  -10.06156 -10.05838 -10.05290 -10.02677  -7.82902
 Alpha  occ. eigenvalues --   -5.79172  -5.78845  -5.78524  -0.91080  -0.84739
 Alpha  occ. eigenvalues --   -0.82363  -0.76121  -0.68524  -0.66260  -0.63130
 Alpha  occ. eigenvalues --   -0.60378  -0.54545  -0.52923  -0.47751  -0.45435
 Alpha  occ. eigenvalues --   -0.42685  -0.41668  -0.39067  -0.36646  -0.34086
 Alpha  occ. eigenvalues --   -0.32853  -0.31935  -0.30266  -0.29492  -0.29013
 Alpha  occ. eigenvalues --   -0.28025  -0.27791  -0.27108  -0.24439  -0.24167
 Alpha  occ. eigenvalues --   -0.23424  -0.22735  -0.17766  -0.15182  -0.14749
 Alpha  occ. eigenvalues --   -0.13923  -0.13261  -0.13152  -0.09542   0.02234
 Alpha virt. eigenvalues --    0.07702   0.09132   0.09846   0.10267   0.10931
 Alpha virt. eigenvalues --    0.11179   0.11921   0.12653   0.13167   0.13380
 Alpha virt. eigenvalues --    0.13593   0.14364   0.15134   0.15572   0.16233

  Beta  occ. eigenvalues --  -88.74133 -18.95593 -14.21839 -14.18116 -14.15689
  Beta  occ. eigenvalues --  -10.14181 -10.10615 -10.08296 -10.07931 -10.06274
  Beta  occ. eigenvalues --  -10.06079 -10.05830 -10.05014 -10.02496  -7.82853
  Beta  occ. eigenvalues --   -5.79148  -5.78823  -5.78339  -0.91009  -0.84388
  Beta  occ. eigenvalues --   -0.82130  -0.75805  -0.68249  -0.66152  -0.62841
  Beta  occ. eigenvalues --   -0.59773  -0.54359  -0.52379  -0.47603  -0.45074
  Beta  occ. eigenvalues --   -0.42287  -0.41452  -0.38914  -0.36397  -0.33950
  Beta  occ. eigenvalues --   -0.32767  -0.31167  -0.30074  -0.29323  -0.28841
  Beta  occ. eigenvalues --   -0.27829  -0.27073  -0.26835  -0.24365  -0.24028
  Beta  occ. eigenvalues --   -0.22668  -0.22523  -0.16764  -0.14783  -0.14498
  Beta  occ. eigenvalues --   -0.13806  -0.13102  -0.11803  -0.08194
  Beta virt. eigenvalues --    0.07540   0.08213   0.09123   0.09808   0.10390
  Beta virt. eigenvalues --    0.10970   0.11771   0.11918   0.13211   0.13250
  Beta virt. eigenvalues --    0.13483   0.13746   0.14569   0.15143   0.15646

 Mulliken charges and spin densities:
               1          2
     1  C   -0.527692  -0.010759
     2  C   -0.307029   0.015471
     3  C    0.700670   0.028426
     4  C   -0.514456   0.156069
     5  C    0.033244  -0.009864
     6  O   -0.418560  -0.002153
     7  N   -0.153439   0.079475
     8  C   -0.659029   0.203296
     9  N   -0.043982   0.019617
    10  C    0.401019   0.021820
    11  C   -0.194636   0.230259
    12  N   -0.074665  -0.075159
    13  C   -0.236132   0.295167
    14  S   -0.461997   0.084170
    15  H    0.162018   0.004985
    16  H    0.094551   0.012668
    17  H    0.120236  -0.001942
    18  H    0.142532   0.001081
    19  H    0.137571   0.002828
    20  H    0.156775  -0.012781
    21  H    0.314715  -0.007473
    22  H    0.151491  -0.014682
    23  H    0.176796  -0.020518
 Sum of Mulliken charges =  -1.00000   1.00000

 Dipole moment (field-independent basis, Debye):
    X=             -1.2465    Y=             -1.6238    Z=              0.1447  Tot=              2.0522
 Quadrupole moment (field-independent basis, Debye-Ang):
   XX=           -123.2649   YY=           -123.2951   ZZ=            -97.3620
   XY=             20.0237   XZ=              1.6367   YZ=             -0.8653

 Summary of Natural Population Analysis:

                                       Natural Population
                Natural  -----------------------------------------------
    Atom  No    Charge         Core      Valence    Rydberg      Total
 -----------------------------------------------------------------------
      C    1   -0.28131      0.99967     2.27763    0.00402     3.28131
      C    2   -0.20010      0.99961     2.19269    0.00781     3.20010
      C    3    0.12954      0.99952     1.85797    0.01296     2.87046
      C    4   -0.16034      0.99944     2.15220    0.00870     3.16034
      C    5    0.31704      0.99964     1.66173    0.02158     2.68296
      O    6   -0.34481      0.99988     3.33817    0.00676     4.34481
      N    7   -0.27414      0.99964     2.76426    0.01024     3.77414
      C    8    0.27617      0.99955     1.71059    0.01369     2.72383
      N    9   -0.27983      0.99964     2.76862    0.01157     3.77983
      C   10   -0.12631      0.99938     2.11602    0.01092     3.12631
      C   11    0.05292      0.99952     1.93265    0.01492     2.94708
      N   12   -0.27229      0.99969     2.75948    0.01312     3.77229
      C   13    0.02626      0.99968     1.95606    0.01800     2.97374
      S   14    0.17421      4.99944     2.80759    0.01876     7.82579
      H   15    0.10652      0.00000     0.39239    0.00109     0.39348
      H   16    0.08920      0.00000     0.40986    0.00093     0.41080
      H   17    0.09417      0.00000     0.40486    0.00096     0.40583
      H   18    0.10091      0.00000     0.39775    0.00134     0.39909
      H   19    0.09184      0.00000     0.40700    0.00116     0.40816
      H   20    0.09832      0.00000     0.40050    0.00118     0.40168
      H   21    0.19779      0.00000     0.30047    0.00174     0.30221
      H   22    0.10002      0.00000     0.39883    0.00115     0.39998
      H   23    0.08426      0.00000     0.41429    0.00146     0.41574
 =======================================================================
   * Total *    0.00003     17.99429    35.82162    0.18406    53.99997

 Normal termination of Gaussian 16 at Thu Dec 10 09:38:26 2020.
