 Gaussian 16, Revision A.03,

 -----------------------------------------------------------
 # opt freq B3LYP/6-31G(d) empiricaldispersion=gd3bj scf=xqc
 -----------------------------------------------------------

 ------------------------------
 CID_81080869_JID_7537_neutraal
 ------------------------------
 Symbolic Z-matrix:
 Charge =  0 Multiplicity = 1

 SCF Done:  E(RB3LYP) =  -837.864476287     A.U. after   15 cycles
 SCF Done:  E(RB3LYP) =  -837.864161617     A.U. after   14 cycles
 SCF Done:  E(RB3LYP) =  -837.869991565     A.U. after   13 cycles
 SCF Done:  E(RB3LYP) =  -837.870370584     A.U. after   13 cycles
 SCF Done:  E(RB3LYP) =  -837.872057949     A.U. after   13 cycles
 SCF Done:  E(RB3LYP) =  -837.871087850     A.U. after   14 cycles
 SCF Done:  E(RB3LYP) =  -837.874068323     A.U. after   12 cycles
 SCF Done:  E(RB3LYP) =  -837.874638770     A.U. after   13 cycles
 SCF Done:  E(RB3LYP) =  -837.874792202     A.U. after   12 cycles
 SCF Done:  E(RB3LYP) =  -837.874840326     A.U. after   11 cycles
 SCF Done:  E(RB3LYP) =  -837.874887713     A.U. after   10 cycles
 SCF Done:  E(RB3LYP) =  -837.874888980     A.U. after    9 cycles
 SCF Done:  E(RB3LYP) =  -837.874889489     A.U. after    8 cycles
 SCF Done:  E(RB3LYP) =  -837.874889843     A.U. after    8 cycles
 SCF Done:  E(RB3LYP) =  -837.874890058     A.U. after    7 cycles
 SCF Done:  E(RB3LYP) =  -837.874890102     A.U. after    6 cycles
 Optimization completed.
    -- Stationary point found.
 Normal termination of Gaussian 16 at Fri Dec 11 12:36:27 2020.

 --------------------------------------------------------------------
 #N Geom=AllCheck Guess=TCheck SCRF=Check GenChk RB3LYP/6-31G(d) Freq
 --------------------------------------------------------------------

 Structure from the checkpoint file:  "JID_7537.chk"
 ------------------------------
 CID_81080869_JID_7537_neutraal
 ------------------------------
 Charge =  0 Multiplicity = 1

 SCF Done:  E(RB3LYP) =  -837.874890102     A.U. after    1 cycles

  Exact polarizability: 142.600  -4.171 147.573  -3.377  -1.483 122.084
 Approx polarizability: 187.923  -8.320 227.595  -8.136   3.033 179.731

                      1                      2                      3
                      A                      A                      A
 Frequencies --     20.1337                33.7843                43.5555
 Red. masses --      4.6800                 5.3865                 6.6780
 Frc consts  --      0.0011                 0.0036                 0.0075
 IR Inten    --      0.2078                 8.7069                 7.3884

                      4                      5                      6
                      A                      A                      A
 Frequencies --     72.1631                82.3591                93.2071
 Red. masses --      3.7624                 4.9075                 5.0157
 Frc consts  --      0.0115                 0.0196                 0.0257
 IR Inten    --      4.6453                 0.5966                 3.1664

                      7                      8                      9
                      A                      A                      A
 Frequencies --    108.2514               124.3493               133.1002
 Red. masses --      3.3722                 2.4626                 2.3419
 Frc consts  --      0.0233                 0.0224                 0.0244
 IR Inten    --      3.0579                10.5627                 1.1001

                     10                     11                     12
                      A                      A                      A
 Frequencies --    155.8591               167.8034               180.0255
 Red. masses --      5.3983                 4.2757                 3.4302
 Frc consts  --      0.0773                 0.0709                 0.0655
 IR Inten    --      5.5784                 1.6220                 3.2241

                     13                     14                     15
                      A                      A                      A
 Frequencies --    210.4753               229.5924               241.0393
 Red. masses --      2.4974                 1.4591                 1.3124
 Frc consts  --      0.0652                 0.0453                 0.0449
 IR Inten    --      1.8201                17.0137                19.2219

                     16                     17                     18
                      A                      A                      A
 Frequencies --    271.1777               296.5698               324.4564
 Red. masses --      2.3758                 2.7118                 4.4172
 Frc consts  --      0.1029                 0.1405                 0.2740
 IR Inten    --     12.7198                 9.2441                 7.3675

                     19                     20                     21
                      A                      A                      A
 Frequencies --    340.5190               370.9110               396.5752
 Red. masses --      2.7033                 3.1826                 2.8878
 Frc consts  --      0.1847                 0.2580                 0.2676
 IR Inten    --      2.5762                 5.0931                 5.3456

                     22                     23                     24
                      A                      A                      A
 Frequencies --    405.9795               438.9933               468.3756
 Red. masses --      1.8358                 2.2108                 2.3205
 Frc consts  --      0.1783                 0.2510                 0.2999
 IR Inten    --    118.7475                72.8648                28.0782

                     25                     26                     27
                      A                      A                      A
 Frequencies --    475.1786               505.7346               518.6119
 Red. masses --      1.9261                 2.1016                 2.8870
 Frc consts  --      0.2562                 0.3167                 0.4575
 IR Inten    --     30.3557                44.1414                25.6941

                     28                     29                     30
                      A                      A                      A
 Frequencies --    536.5104               573.8449               583.9963
 Red. masses --      2.2028                 2.4485                 2.1392
 Frc consts  --      0.3736                 0.4750                 0.4299
 IR Inten    --     90.0353                29.2712                84.4409

                     31                     32                     33
                      A                      A                      A
 Frequencies --    620.8496               650.8164               693.6796
 Red. masses --      2.2102                 2.0841                 3.0209
 Frc consts  --      0.5019                 0.5201                 0.8565
 IR Inten    --     20.4101                52.9261                66.8418

                     34                     35                     36
                      A                      A                      A
 Frequencies --    730.9464               752.6283               784.8829
 Red. masses --      1.1873                 2.2789                 3.2295
 Frc consts  --      0.3737                 0.7606                 1.1722
 IR Inten    --     26.4612                 7.9238                 4.7202

                     37                     38                     39
                      A                      A                      A
 Frequencies --    798.5365               835.9443               865.2698
 Red. masses --      1.7653                 1.9617                 1.4149
 Frc consts  --      0.6632                 0.8077                 0.6241
 IR Inten    --      5.8713                 6.0749               127.9593

                     40                     41                     42
                      A                      A                      A
 Frequencies --    869.2004               884.9272               910.5891
 Red. masses --      3.6511                 3.5499                 1.9490
 Frc consts  --      1.6252                 1.6379                 0.9522
 IR Inten    --      8.0304                 7.2318                 1.1314

                     43                     44                     45
                      A                      A                      A
 Frequencies --    946.8862               969.9283               973.0054
 Red. masses --      1.5451                 2.1142                 2.3423
 Frc consts  --      0.8162                 1.1719                 1.3065
 IR Inten    --     23.2165                 4.6079                23.9529

                     46                     47                     48
                      A                      A                      A
 Frequencies --    992.9809              1034.4536              1058.6947
 Red. masses --      1.9493                 2.6896                 2.6643
 Frc consts  --      1.1324                 1.6957                 1.7594
 IR Inten    --      3.5918                 6.6157                18.9182

                     49                     50                     51
                      A                      A                      A
 Frequencies --   1084.3059              1099.2727              1124.0108
 Red. masses --      2.3917                 2.0716                 1.6467
 Frc consts  --      1.6568                 1.4749                 1.2257
 IR Inten    --      4.0420                12.5595                15.2111

                     52                     53                     54
                      A                      A                      A
 Frequencies --   1129.2979              1151.4129              1156.5539
 Red. masses --      1.6564                 1.7436                 1.8677
 Frc consts  --      1.2446                 1.3620                 1.4719
 IR Inten    --      7.5070                 4.9562                 2.5059

                     55                     56                     57
                      A                      A                      A
 Frequencies --   1212.1402              1224.5895              1249.9435
 Red. masses --      1.4256                 2.2369                 1.5543
 Frc consts  --      1.2341                 1.9764                 1.4308
 IR Inten    --     43.8596                33.7043                42.0128

                     58                     59                     60
                      A                      A                      A
 Frequencies --   1264.1078              1298.8516              1318.3867
 Red. masses --      1.4270                 1.2652                 1.4213
 Frc consts  --      1.3435                 1.2575                 1.4555
 IR Inten    --     21.7463                 7.2111                 5.1699

                     61                     62                     63
                      A                      A                      A
 Frequencies --   1324.9361              1343.9023              1356.9188
 Red. masses --      1.5766                 2.7564                 1.3359
 Frc consts  --      1.6307                 2.9331                 1.4492
 IR Inten    --     23.4801                46.0771                41.4241

                     64                     65                     66
                      A                      A                      A
 Frequencies --   1362.0570              1377.0036              1383.0275
 Red. masses --      1.3953                 1.1788                 1.6659
 Frc consts  --      1.5252                 1.3170                 1.8774
 IR Inten    --     10.3586                 3.9183                69.1864

                     67                     68                     69
                      A                      A                      A
 Frequencies --   1383.5725              1392.1766              1423.0334
 Red. masses --      1.3983                 2.0076                 1.4455
 Frc consts  --      1.5771                 2.2925                 1.7247
 IR Inten    --     27.7229                51.7673                 3.1311

                     70                     71                     72
                      A                      A                      A
 Frequencies --   1444.4962              1447.7343              1457.8633
 Red. masses --      1.2583                 1.6989                 1.5493
 Frc consts  --      1.5470                 2.0979                 1.9401
 IR Inten    --     11.3227                48.3036                39.6573

                     73                     74                     75
                      A                      A                      A
 Frequencies --   1493.7664              1502.6508              1519.0736
 Red. masses --      1.0789                 1.2025                 1.0751
 Frc consts  --      1.4184                 1.5997                 1.4617
 IR Inten    --      1.6187                22.2293                 7.8669

                     76                     77                     78
                      A                      A                      A
 Frequencies --   1521.6927              1525.2952              1534.1188
 Red. masses --      1.0713                 1.0875                 1.0666
 Frc consts  --      1.4616                 1.4907                 1.4791
 IR Inten    --      9.2254                 2.6281                 7.7859

                     79                     80                     81
                      A                      A                      A
 Frequencies --   1537.4535              1633.3327              1661.4043
 Red. masses --      1.0668                 1.2145                 1.2047
 Frc consts  --      1.4857                 1.9090                 1.9592
 IR Inten    --      3.5516                42.9890               108.1005

                     82                     83                     84
                      A                      A                      A
 Frequencies --   1703.6663              1755.7608              1827.4518
 Red. masses --      1.0881                 9.6612                 9.0648
 Frc consts  --      1.8607                17.5473                17.8362
 IR Inten    --     30.8164               176.2003               427.4890

                     85                     86                     87
                      A                      A                      A
 Frequencies --   1831.1186              2939.3957              3047.8720
 Red. masses --      9.3654                 1.0740                 1.0678
 Frc consts  --     18.5015                 5.4673                 5.8443
 IR Inten    --    204.5689                94.6914                12.0817

                     88                     89                     90
                      A                      A                      A
 Frequencies --   3049.3044              3056.7967              3070.0788
 Red. masses --      1.0473                 1.0636                 1.0651
 Frc consts  --      5.7372                 5.8557                 5.9146
 IR Inten    --     10.8396                34.4944                 5.0990

                     91                     92                     93
                      A                      A                      A
 Frequencies --   3076.3163              3084.8102              3091.9883
 Red. masses --      1.0646                 1.0952                 1.0667
 Frc consts  --      5.9360                 6.1402                 6.0087
 IR Inten    --     22.3676                17.5786                24.2253

                     94                     95                     96
                      A                      A                      A
 Frequencies --   3111.2498              3113.4484              3121.6950
 Red. masses --      1.0885                 1.1001                 1.1023
 Frc consts  --      6.2081                 6.2828                 6.3287
 IR Inten    --      9.4198                71.7042                32.0782

                     97                     98                     99
                      A                      A                      A
 Frequencies --   3132.2101              3137.3701              3154.4388
 Red. masses --      1.1028                 1.1031                 1.0930
 Frc consts  --      6.3746                 6.3975                 6.4079
 IR Inten    --     16.0699                 7.2606                 4.4310

                    100                    101                    102
                      A                      A                      A
 Frequencies --   3483.2348              3532.3549              3551.0708
 Red. masses --      1.0502                 1.0481                 1.0454
 Frc consts  --      7.5071                 7.7051                 7.7668
 IR Inten    --      1.3476                75.6970                25.2818

                    103                    104                    105
                      A                      A                      A
 Frequencies --   3564.2735              3661.2389              3670.6394
 Red. masses --      1.0924                 1.1012                 1.1028
 Frc consts  --      8.1763                 8.6972                 8.7541
 IR Inten    --      0.0491                84.1394                60.9762

 - Thermochemistry -
 -------------------
 Temperature   298.150 Kelvin.  Pressure   1.00000 Atm.
 Atom     1 has atomic number  6 and mass  12.00000

 Molecular mass:   244.15354 amu.
 Principal axes and moments of inertia in atomic units:
                           1         2         3
     Eigenvalues --  3482.425814886.686696444.28169
           X            0.99998   0.00655   0.00212
           Y           -0.00649   0.99956  -0.02889
           Z           -0.00231   0.02888   0.99958
 This molecule is an asymmetric top.
 Rotational symmetry number  1.
 Warning -- assumption of classical behavior for rotation
           may cause significant error
 Rotational temperatures (Kelvin)      0.02487     0.01772     0.01344
 Rotational constants (GHZ):           0.51824     0.36932     0.28005
 Zero-point vibrational energy     840278.1 (Joules/Mol)
                                  200.83127 (Kcal/Mol)
 Warning -- explicit consideration of  30 degrees of freedom as
           vibrations may cause significant error
 Vibrational temperatures:     28.97    48.61    62.67   103.83   118.50
          (Kelvin)            134.10   155.75   178.91   191.50   224.25
                              241.43   259.02   302.83   330.33   346.80
                              390.16   426.70   466.82   489.93   533.66
                              570.58   584.11   631.61   673.89   683.68
                              727.64   746.17   771.92   825.63   840.24
                              893.26   936.38   998.05  1051.67  1082.86
                             1129.27  1148.92  1202.74  1244.93  1250.59
                             1273.21  1310.13  1362.36  1395.51  1399.94
                             1428.68  1488.35  1523.23  1560.07  1581.61
                             1617.20  1624.81  1656.63  1664.02  1744.00
                             1761.91  1798.39  1818.77  1868.76  1896.86
                             1906.29  1933.58  1952.30  1959.70  1981.20
                             1989.87  1990.65  2003.03  2047.43  2078.31
                             2082.97  2097.54  2149.20  2161.98  2185.61
                             2189.38  2194.56  2207.25  2212.05  2350.00
                             2390.39  2451.20  2526.15  2629.30  2634.57
                             4229.13  4385.21  4387.27  4398.05  4417.16
                             4426.13  4438.35  4448.68  4476.39  4479.56
                             4491.42  4506.55  4513.98  4538.53  5011.60
                             5082.27  5109.20  5128.19  5267.71  5281.23

 Zero-point correction=                           0.320045 (Hartree/Particle)
 Thermal correction to Energy=                    0.339251
 Thermal correction to Enthalpy=                  0.340195
 Thermal correction to Gibbs Free Energy=         0.271545
 Sum of electronic and zero-point Energies=           -837.554845
 Sum of electronic and thermal Energies=              -837.535639
 Sum of electronic and thermal Enthalpies=            -837.534695
 Sum of electronic and thermal Free Energies=         -837.603345

                     E (Thermal)             CV                S
                      KCal/Mol        Cal/Mol-Kelvin    Cal/Mol-Kelvin
 Total                  212.883             70.675            144.486
 Electronic               0.000              0.000              0.000
 Translational            0.889              2.981             42.379
 Rotational               0.889              2.981             33.061
 Vibrational            211.106             64.713             69.047
 Vibration     1          0.593              1.986              6.621
 Vibration     2          0.594              1.983              5.594
 Vibration     3          0.595              1.980              5.090
 Vibration     4          0.598              1.967              4.093
 Vibration     5          0.600              1.961              3.834
 Vibration     6          0.602              1.954              3.592
 Vibration     7          0.606              1.943              3.300
 Vibration     8          0.610              1.929              3.032
 Vibration     9          0.613              1.920              2.901
 Vibration    10          0.620              1.896              2.599
 Vibration    11          0.625              1.882              2.460
 Vibration    12          0.629              1.867              2.328
 Vibration    13          0.643              1.825              2.040
 Vibration    14          0.652              1.796              1.882
 Vibration    15          0.658              1.778              1.795
 Vibration    16          0.675              1.726              1.589
 Vibration    17          0.690              1.680              1.436
 Vibration    18          0.709              1.627              1.288
 Vibration    19          0.720              1.595              1.210
 Vibration    20          0.743              1.532              1.076
 Vibration    21          0.763              1.477              0.975
 Vibration    22          0.771              1.457              0.941
 Vibration    23          0.799              1.385              0.830
 Vibration    24          0.826              1.320              0.742
 Vibration    25          0.832              1.305              0.723
 Vibration    26          0.861              1.237              0.644
 Vibration    27          0.874              1.209              0.613
 Vibration    28          0.892              1.169              0.573
 Vibration    29          0.930              1.088              0.497
 Vibration    30          0.941              1.066              0.478

                           ! Non-Optimized Parameters !
 Normal termination of Gaussian 16 at Fri Dec 11 12:52:44 2020.

 ----------------------------------------------------------------------
 # B3LYP/6-311++G(d,p) empiricaldispersion=gd3bj scf=xqc pop=npa geom=c
 heck
 ----------------------------------------------------------------------

 --------------------------------------
 CID_81080869_JID_7537_Energie_neutraal
 --------------------------------------
 Structure from the checkpoint file:  "JID_7537.chk"
 Charge =  0 Multiplicity = 1

 SCF Done:  E(RB3LYP) =  -838.144194540     A.U. after   14 cycles
 Normal termination of Gaussian 16 at Fri Dec 11 13:00:06 2020.

 ----------------------------------------------------------------------
 # B3LYP/6-311++G(d,p) empiricaldispersion=gd3bj scf=xqc pop=npa geom=c
 heck
 ----------------------------------------------------------------------

 ------------------------------------
 CID_81080869_JID_7537_Energie_kation
 ------------------------------------
 Structure from the checkpoint file:  "JID_7537.chk"
 Charge =  1 Multiplicity = 2

 SCF Done:  E(UB3LYP) =  -837.827247071     A.U. after   32 cycles
 Normal termination of Gaussian 16 at Fri Dec 11 13:24:10 2020.
 Gaussian 16:  ES64L-G16RevA.03 25-Dec-2016

 ----------------------------------------------------------------------
 # B3LYP/6-311++G(d,p) empiricaldispersion=gd3bj scf=xqc pop=npa geom=c
 heck
 ----------------------------------------------------------------------

 -----------------------------------
 CID_81080869_JID_7537_Energie_anion
 -----------------------------------
 Structure from the checkpoint file:  "JID_7537.chk"
 Charge = -1 Multiplicity = 2

                         Standard orientation:
 ---------------------------------------------------------------------
 Center     Atomic      Atomic             Coordinates (Angstroms)
 Number     Number       Type             X           Y           Z
 ---------------------------------------------------------------------
      1          6           0       -3.455292    1.502276   -0.589536
      2          6           0       -2.725749    0.507791    0.318247
      3          6           0       -2.318275   -0.808715   -0.364628
      4          6           0       -1.327907   -0.644674   -1.553253
      5          6           0        0.152554   -0.806930   -1.214794
      6          8           0        0.671097   -1.914921   -1.276595
      7          7           0        0.928025    0.276664   -0.830809
      8          6           0        0.519969    1.668700   -0.898223
      9          6           0        0.684827    2.449709    0.411356
     10          8           0        0.928109    3.641508    0.417494
     11          7           0        0.533458    1.707138    1.565966
     12          6           0        2.374163    0.014227   -0.803556
     13          6           0        2.870930   -0.972710    0.262842
     14          8           0        3.730086   -1.795008    0.004356
     15          7           0        2.321866   -0.820453    1.513546
     16          6           0       -1.798245   -1.844500    0.646967
     17          7           0       -2.846756   -2.230208    1.596679
     18          1           0       -2.825734    1.865851   -1.410009
     19          1           0       -3.785525    2.379398   -0.023084
     20          1           0       -4.341368    1.038901   -1.038427
     21          1           0       -1.852169    0.996527    0.767960
     22          1           0       -3.395067    0.256215    1.149590
     23          1           0       -3.238542   -1.232673   -0.785659
     24          1           0       -1.505998   -1.464451   -2.252843
     25          1           0       -1.533022    0.280374   -2.098624
     26          1           0        1.081766    2.218620   -1.661731
     27          1           0       -0.535813    1.730893   -1.167645
     28          1           0        0.037921    0.826042    1.504162
     29          1           0        0.388424    2.248695    2.409849
     30          1           0        2.703682   -0.395688   -1.761252
     31          1           0        2.878883    0.972749   -0.639430
     32          1           0        1.952580    0.088452    1.768290
     33          1           0        2.795984   -1.337896    2.242983
     34          1           0       -1.484974   -2.738635    0.100336
     35          1           0       -0.879987   -1.460316    1.130819
     36          1           0       -2.591249   -3.105251    2.048705
     37          1           0       -2.922127   -1.543472    2.343762
 ---------------------------------------------------------------------

 SCF Done:  E(UB3LYP) =  -838.143316376     A.U. after   31 cycles

 The electronic state is 2-A.
 Alpha  occ. eigenvalues --  -19.01561 -19.00799 -19.00106 -14.27401 -14.24715
 Alpha  occ. eigenvalues --  -14.23313 -14.19841 -10.19817 -10.19367 -10.18686
 Alpha  occ. eigenvalues --  -10.14397 -10.13320 -10.09821 -10.09705 -10.09263
 Alpha  occ. eigenvalues --  -10.07903 -10.07874  -0.96785  -0.96328  -0.94989
 Alpha  occ. eigenvalues --   -0.86622  -0.82156  -0.80953  -0.79173  -0.72401
 Alpha  occ. eigenvalues --   -0.67716  -0.66521  -0.63451  -0.59635  -0.54129
 Alpha  occ. eigenvalues --   -0.51983  -0.50611  -0.48670  -0.47190  -0.46371
 Alpha  occ. eigenvalues --   -0.44137  -0.42341  -0.41977  -0.39912  -0.39700
 Alpha  occ. eigenvalues --   -0.37918  -0.37165  -0.36949  -0.35436  -0.35094
 Alpha  occ. eigenvalues --   -0.34609  -0.33817  -0.32953  -0.32251  -0.31279
 Alpha  occ. eigenvalues --   -0.31204  -0.30331  -0.29415  -0.29177  -0.28664
 Alpha  occ. eigenvalues --   -0.27694  -0.24958  -0.24166  -0.23211  -0.20384
 Alpha  occ. eigenvalues --   -0.20212  -0.18871  -0.17889  -0.17233  -0.15978
 Alpha  occ. eigenvalues --   -0.15176   0.03705
 Alpha virt. eigenvalues --    0.06052   0.06641   0.07362   0.07827   0.07910
 Alpha virt. eigenvalues --    0.08780   0.08929   0.09358   0.09883   0.10131
 Alpha virt. eigenvalues --    0.10579   0.11206   0.11688   0.11946   0.12877

  Beta  occ. eigenvalues --  -19.01543 -19.00798 -19.00103 -14.27400 -14.24621
  Beta  occ. eigenvalues --  -14.23280 -14.19803 -10.19795 -10.19367 -10.18682
  Beta  occ. eigenvalues --  -10.14378 -10.13308 -10.09813 -10.09687 -10.09260
  Beta  occ. eigenvalues --  -10.07874 -10.07851  -0.96765  -0.96306  -0.94982
  Beta  occ. eigenvalues --   -0.86613  -0.82041  -0.80909  -0.79114  -0.72369
  Beta  occ. eigenvalues --   -0.67680  -0.66484  -0.63415  -0.59593  -0.54056
  Beta  occ. eigenvalues --   -0.51923  -0.50496  -0.48616  -0.47141  -0.46308
  Beta  occ. eigenvalues --   -0.44101  -0.42295  -0.41948  -0.39870  -0.39663
  Beta  occ. eigenvalues --   -0.37880  -0.37124  -0.36907  -0.35409  -0.35059
  Beta  occ. eigenvalues --   -0.34580  -0.33782  -0.32919  -0.32230  -0.31249
  Beta  occ. eigenvalues --   -0.31186  -0.30279  -0.29386  -0.29146  -0.28629
  Beta  occ. eigenvalues --   -0.27676  -0.24920  -0.24137  -0.23180  -0.20299
  Beta  occ. eigenvalues --   -0.20173  -0.18842  -0.17876  -0.17213  -0.15960
  Beta  occ. eigenvalues --   -0.15134
  Beta virt. eigenvalues --    0.05947   0.06781   0.07011   0.07787   0.08069
  Beta virt. eigenvalues --    0.08252   0.09049   0.09242   0.09668   0.09980
  Beta virt. eigenvalues --    0.10488   0.10697   0.11281   0.11892   0.12340

 Mulliken charges and spin densities:
               1          2
     1  C    0.038322  -0.661742
     2  C   -0.149308   0.096324
     3  C    0.036057   0.327096
     4  C    0.202507  -0.594635
     5  C   -0.434926   0.107601
     6  O   -0.198695   0.014115
     7  N    0.258026   0.012200
     8  C    0.486416  -0.807577
     9  C    0.001790  -0.004035
    10  O   -0.314740   0.041364
    11  N   -0.279212  -0.129942
    12  C    0.052221  -0.356198
    13  C    0.087390   0.013938
    14  O   -0.325089   0.013566
    15  N   -0.362491  -0.053939
    16  C    0.228212  -0.978326
    17  N   -0.406442   0.047704
    18  H   -0.040438   0.161666
    19  H   -0.108789   0.266453
    20  H    0.124573   0.010231
    21  H   -0.356517   0.496155
    22  H   -0.127854   0.288819
    23  H    0.120727   0.067309
    24  H    0.193702   0.021073
    25  H    0.104573   0.024900
    26  H    0.084572   0.138561
    27  H    0.090233  -0.000299
    28  H    0.393051  -0.185093
    29  H   -0.638154   1.006283
    30  H    0.175273   0.061859
    31  H    0.123543   0.070288
    32  H    0.093375   0.200332
    33  H   -0.006115   0.322576
    34  H    0.147647   0.044095
    35  H   -0.175922   0.322313
    36  H    0.049116   0.192086
    37  H   -0.166632   0.402878
 Sum of Mulliken charges =  -1.00000   1.00000

 Dipole moment (field-independent basis, Debye):
    X=             -0.5877    Y=             -0.1887    Z=             -7.6094  Tot=              7.6344
 Quadrupole moment (field-independent basis, Debye-Ang):
   XX=           -162.3483   YY=           -163.9679   ZZ=           -149.0473
   XY=              6.4456   XZ=             10.1242   YZ=            -10.2322

 Summary of Natural Population Analysis:

                                       Natural Population
                Natural  -----------------------------------------------
    Atom  No    Charge         Core      Valence    Rydberg      Total
 -----------------------------------------------------------------------
      C    1   -0.28392      0.99966     2.27892    0.00534     3.28392
      C    2   -0.19707      0.99961     2.18804    0.00942     3.19707
      C    3   -0.10730      0.99958     2.09735    0.01038     3.10730
      C    4   -0.23073      0.99956     2.22370    0.00746     3.23073
      C    5    0.35120      0.99964     1.62609    0.02307     2.64880
      O    6   -0.31126      0.99988     3.30616    0.00522     4.31126
      N    7   -0.26612      0.99964     2.75566    0.01082     3.76612
      C    8   -0.12796      0.99955     2.11796    0.01044     3.12796
      C    9    0.33674      0.99970     1.64050    0.02306     2.66326
      O   10   -0.30668      0.99987     3.30081    0.00600     4.30668
      N   11   -0.42024      0.99971     2.90971    0.01082     3.92024
      C   12   -0.12595      0.99956     2.11614    0.01025     3.12595
      C   13    0.34041      0.99971     1.63530    0.02457     2.65959
      O   14   -0.31326      0.99987     3.30757    0.00582     4.31326
      N   15   -0.40841      0.99970     2.89987    0.00884     3.90841
      C   16   -0.09334      0.99960     2.08151    0.01223     3.09334
      N   17   -0.42330      0.99977     2.91398    0.00955     3.92330
      H   18    0.08997      0.00000     0.40914    0.00088     0.41003
      H   19    0.10416      0.00000     0.39518    0.00067     0.39584
      H   20    0.09604      0.00000     0.40312    0.00084     0.40396
      H   21    0.09154      0.00000     0.40520    0.00327     0.40846
      H   22    0.10477      0.00000     0.39361    0.00162     0.39523
      H   23    0.09874      0.00000     0.39943    0.00184     0.40126
      H   24    0.11484      0.00000     0.38418    0.00098     0.38516
      H   25    0.10306      0.00000     0.39588    0.00106     0.39694
      H   26    0.10584      0.00000     0.39311    0.00105     0.39416
      H   27    0.11694      0.00000     0.38167    0.00139     0.38306
      H   28    0.20219      0.00000     0.28991    0.00790     0.29781
      H   29    0.20808      0.00000     0.28111    0.01081     0.29192
      H   30    0.11239      0.00000     0.38640    0.00121     0.38761
      H   31    0.10714      0.00000     0.39177    0.00109     0.39286
      H   32    0.20047      0.00000     0.29618    0.00335     0.29953
      H   33    0.19433      0.00000     0.30388    0.00179     0.30567
      H   34    0.09853      0.00000     0.40039    0.00108     0.40147
      H   35    0.08316      0.00000     0.41393    0.00291     0.41684
      H   36    0.17656      0.00000     0.32194    0.00150     0.32344
      H   37    0.17844      0.00000     0.31858    0.00298     0.32156
 =======================================================================
   * Total *    0.00000     16.99460    48.76387    0.24154    66.00000

 Normal termination of Gaussian 16 at Fri Dec 11 13:46:51 2020.
