 Gaussian 16, Revision A.03,

 -----------------------------------------------------------
 # opt freq B3LYP/6-31G(d) empiricaldispersion=gd3bj scf=xqc
 -----------------------------------------------------------

 -----------------------------
 CID_21418829_JID_324_neutraal
 -----------------------------
 Symbolic Z-matrix:
 Charge =  0 Multiplicity = 1

 SCF Done:  E(RB3LYP) =  -402.808804821     A.U. after   24 cycles
 SCF Done:  E(RB3LYP) =  -402.842289410     A.U. after   19 cycles
 SCF Done:  E(RB3LYP) =  -402.860665696     A.U. after   17 cycles
 SCF Done:  E(RB3LYP) =  -402.875314202     A.U. after   17 cycles
 SCF Done:  E(RB3LYP) =  -402.884992992     A.U. after   15 cycles
 SCF Done:  E(RB3LYP) =  -402.890727266     A.U. after   14 cycles
 SCF Done:  E(RB3LYP) =  -402.893895730     A.U. after   15 cycles
 SCF Done:  E(RB3LYP) =  -402.895577140     A.U. after   15 cycles
 SCF Done:  E(RB3LYP) =  -402.896604598     A.U. after   14 cycles
 SCF Done:  E(RB3LYP) =  -402.897448334     A.U. after   14 cycles
 SCF Done:  E(RB3LYP) =  -402.898489642     A.U. after   11 cycles
 SCF Done:  E(RB3LYP) =  -402.898501924     A.U. after   11 cycles
 SCF Done:  E(RB3LYP) =  -402.898515665     A.U. after   12 cycles
 SCF Done:  E(RB3LYP) =  -402.898518219     A.U. after   10 cycles
 SCF Done:  E(RB3LYP) =  -402.898519896     A.U. after   10 cycles
 Optimization completed.
    -- Stationary point found.
 Normal termination of Gaussian 16 at Tue Dec  8 10:27:18 2020.

 --------------------------------------------------------------------
 #N Geom=AllCheck Guess=TCheck SCRF=Check GenChk RB3LYP/6-31G(d) Freq
 --------------------------------------------------------------------

 Structure from the checkpoint file:  "JID_324.chk"
 -----------------------------
 CID_21418829_JID_324_neutraal
 -----------------------------
 Charge =  0 Multiplicity = 1

 SCF Done:  E(RB3LYP) =  -402.898519896     A.U. after    1 cycles

  Exact polarizability: 110.480  -4.916 107.618   0.025  -3.453  85.049
 Approx polarizability: 179.489 -19.164 206.436  -3.475 -24.828 181.645

                      1                      2                      3
                      A                      A                      A
 Frequencies --     44.3662               128.0768               195.5784
 Red. masses --      2.8971                 2.2583                 3.1470
 Frc consts  --      0.0034                 0.0218                 0.0709
 IR Inten    --      1.7732                 0.5873                 3.1122

                      4                      5                      6
                      A                      A                      A
 Frequencies --    250.0560               343.0393               361.9275
 Red. masses --      3.8512                 2.2522                 3.0716
 Frc consts  --      0.1419                 0.1562                 0.2371
 IR Inten    --      6.6876                17.6513                19.7501

                      7                      8                      9
                      A                      A                      A
 Frequencies --    395.4981               465.0414               541.5041
 Red. masses --      2.6689                 2.6978                 3.3662
 Frc consts  --      0.2460                 0.3438                 0.5816
 IR Inten    --     18.0854                 7.9943                 3.0979

                     10                     11                     12
                      A                      A                      A
 Frequencies --    592.5147               613.7090               640.6894
 Red. masses --      4.7430                 3.7920                 2.7333
 Frc consts  --      0.9811                 0.8415                 0.6611
 IR Inten    --      9.8934                23.1277                17.0715

                     13                     14                     15
                      A                      A                      A
 Frequencies --    677.5827               705.2322               764.5004
 Red. masses --      5.0554                 1.9262                 1.8766
 Frc consts  --      1.3675                 0.5644                 0.6462
 IR Inten    --      7.4788                 8.1850                 5.9961

                     16                     17                     18
                      A                      A                      A
 Frequencies --    794.3508               806.3875               827.5354
 Red. masses --      3.1038                 5.2351                 1.5260
 Frc consts  --      1.1539                 2.0057                 0.6157
 IR Inten    --     38.0930                 1.0817                30.1088

                     19                     20                     21
                      A                      A                      A
 Frequencies --    830.4916               916.9195               933.4633
 Red. masses --      1.4007                 1.6861                 2.8366
 Frc consts  --      0.5692                 0.8352                 1.4563
 IR Inten    --     42.0916                12.2694                29.0017

                     22                     23                     24
                      A                      A                      A
 Frequencies --    968.6136               990.5396               998.8352
 Red. masses --      1.9775                 1.5525                 1.1754
 Frc consts  --      1.0931                 0.8975                 0.6909
 IR Inten    --     48.8678                76.0044                21.3933

                     25                     26                     27
                      A                      A                      A
 Frequencies --   1014.1345              1048.8793              1099.0402
 Red. masses --      1.6458                 1.6294                 1.6902
 Frc consts  --      0.9973                 1.0562                 1.2029
 IR Inten    --      6.7749                15.0667                 9.0216

                     28                     29                     30
                      A                      A                      A
 Frequencies --   1114.8570              1128.8085              1138.0864
 Red. masses --      1.6160                 1.3600                 1.6000
 Frc consts  --      1.1834                 1.0210                 1.2210
 IR Inten    --     10.0917                 3.2056                10.7942

                     31                     32                     33
                      A                      A                      A
 Frequencies --   1179.9078              1254.7673              1289.0515
 Red. masses --      2.2537                 1.6306                 1.5231
 Frc consts  --      1.8486                 1.5126                 1.4912
 IR Inten    --     29.9379                10.9015                37.0684

                     34                     35                     36
                      A                      A                      A
 Frequencies --   1319.4313              1369.1018              1392.7041
 Red. masses --      2.1236                 1.3816                 2.4489
 Frc consts  --      2.1782                 1.5258                 2.7986
 IR Inten    --     67.5947                54.2468                15.5275

                     37                     38                     39
                      A                      A                      A
 Frequencies --   1444.1542              1464.0703              1472.5370
 Red. masses --      3.9295                 3.2387                 1.3675
 Frc consts  --      4.8285                 4.0902                 1.7470
 IR Inten    --     14.6746                 9.2456                20.0625

                     40                     41                     42
                      A                      A                      A
 Frequencies --   1516.1402              1542.9080              1701.2728
 Red. masses --      4.5714                 1.0949                 4.2632
 Frc consts  --      6.1913                 1.5357                 7.2701
 IR Inten    --      4.0342                 2.3984               108.9644

                     43                     44                     45
                      A                      A                      A
 Frequencies --   3068.1471              3098.9225              3131.0880
 Red. masses --      1.0582                 1.0893                 1.1092
 Frc consts  --      5.8689                 6.1635                 6.4068
 IR Inten    --     51.0863                39.4115                32.7335

                     46                     47                     48
                      A                      A                      A
 Frequencies --   3164.2741              3191.9265              3195.1908
 Red. masses --      1.0863                 1.0626                 1.0866
 Frc consts  --      6.4085                 6.3787                 6.5358
 IR Inten    --     23.2477                 0.5464                11.7441

                     49                     50                     51
                      A                      A                      A
 Frequencies --   3209.7572              3232.2422              3274.0407
 Red. masses --      1.0943                 1.0966                 1.1169
 Frc consts  --      6.6427                 6.7501                 7.0540
 IR Inten    --     18.0558                 5.9666                13.9308

 - Thermochemistry -
 -------------------
 Temperature   298.150 Kelvin.  Pressure   1.00000 Atm.
 Atom     1 has atomic number  6 and mass  12.00000

 Molecular mass:   131.07350 amu.
 Principal axes and moments of inertia in atomic units:
                           1         2         3
     Eigenvalues --   803.819641224.175441499.47572
           X            0.99996  -0.00854   0.00180
           Y            0.00850   0.99965   0.02509
           Z           -0.00201  -0.02507   0.99968
 This molecule is an asymmetric top.
 Rotational symmetry number  1.
 Warning -- assumption of classical behavior for rotation
           may cause significant error
 Rotational temperatures (Kelvin)      0.10775     0.07075     0.05776
 Rotational constants (GHZ):           2.24521     1.47425     1.20358
 Zero-point vibrational energy     399803.3 (Joules/Mol)
                                   95.55528 (Kcal/Mol)
 Warning -- explicit consideration of  11 degrees of freedom as
           vibrations may cause significant error
 Vibrational temperatures:     63.83   184.27   281.39   359.77   493.56
          (Kelvin)            520.73   569.03   669.09   779.10   852.50
                              882.99   921.81   974.89  1014.67  1099.95
                             1142.89  1160.21  1190.64  1194.89  1319.24
                             1343.05  1393.62  1425.17  1437.10  1459.11
                             1509.10  1581.27  1604.03  1624.10  1637.45
                             1697.62  1805.33  1854.66  1898.37  1969.83
                             2003.79  2077.82  2106.47  2118.65  2181.39
                             2219.90  2447.75  4414.38  4458.66  4504.94
                             4552.68  4592.47  4597.17  4618.12  4650.48
                             4710.61

 Zero-point correction=                           0.152277 (Hartree/Particle)
 Thermal correction to Energy=                    0.160716
 Thermal correction to Enthalpy=                  0.161660
 Thermal correction to Gibbs Free Energy=         0.118919
 Sum of electronic and zero-point Energies=           -402.746243
 Sum of electronic and thermal Energies=              -402.737804
 Sum of electronic and thermal Enthalpies=            -402.736860
 Sum of electronic and thermal Free Energies=         -402.779601

                     E (Thermal)             CV                S
                      KCal/Mol        Cal/Mol-Kelvin    Cal/Mol-Kelvin
 Total                  100.851             33.684             89.956
 Electronic               0.000              0.000              0.000
 Translational            0.889              2.981             40.525
 Rotational               0.889              2.981             28.780
 Vibrational             99.073             27.722             20.651
 Vibration     1          0.595              1.980              5.054
 Vibration     2          0.611              1.925              2.975
 Vibration     3          0.636              1.846              2.174
 Vibration     4          0.663              1.763              1.730
 Vibration     5          0.722              1.589              1.198
 Vibration     6          0.736              1.551              1.114
 Vibration     7          0.762              1.480              0.979
 Vibration     8          0.822              1.328              0.752
 Vibration     9          0.897              1.158              0.562
 Vibration    10          0.950              1.048              0.463
 Vibration    11          0.973              1.003              0.427

 Optimization completed.
    -- Stationary point found.
 Normal termination of Gaussian 16 at Tue Dec  8 10:30:53 2020.

 ----------------------------------------------------------------------
 # B3LYP/6-311++G(d,p) empiricaldispersion=gd3bj scf=xqc pop=npa geom=c
 heck
 ----------------------------------------------------------------------

 -------------------------------------
 CID_21418829_JID_324_Energie_neutraal
 -------------------------------------
 Structure from the checkpoint file:  "JID_324.chk"
 Charge =  0 Multiplicity = 1

 SCF Done:  E(RB3LYP) =  -403.005797288     A.U. after   16 cycles
 Normal termination of Gaussian 16 at Tue Dec  8 10:32:33 2020.

 ----------------------------------------------------------------------
 # B3LYP/6-311++G(d,p) empiricaldispersion=gd3bj scf=xqc pop=npa geom=c
 heck
 ----------------------------------------------------------------------

 -----------------------------------
 CID_21418829_JID_324_Energie_kation
 -----------------------------------
 Structure from the checkpoint file:  "JID_324.chk"
 Charge =  1 Multiplicity = 2

 SCF Done:  E(UB3LYP) =  -402.735331572     A.U. after   33 cycles
 SCF Done:  E(UB3LYP) =  -402.738889569     a.u. after   12 cycles
 Normal termination of Gaussian 16 at Tue Dec  8 11:05:18 2020.
 Gaussian 16:  ES64L-G16RevA.03 25-Dec-2016

 ----------------------------------------------------------------------
 # B3LYP/6-311++G(d,p) empiricaldispersion=gd3bj scf=xqc pop=npa geom=c
 heck
 ----------------------------------------------------------------------

 ----------------------------------
 CID_21418829_JID_324_Energie_anion
 ----------------------------------
 Structure from the checkpoint file:  "JID_324.chk"
 Charge = -1 Multiplicity = 2

                         Standard orientation:
 ---------------------------------------------------------------------
 Center     Atomic      Atomic             Coordinates (Angstroms)
 Number     Number       Type             X           Y           Z
 ---------------------------------------------------------------------
      1          6           0       -2.562641    1.025946   -0.027830
      2          6           0       -2.085266   -0.212164   -0.222391
      3          7           0       -0.900051   -0.751927    0.258588
      4          6           0       -0.061279   -1.652104   -0.590771
      5          6           0        1.185204   -0.777220   -0.231577
      6          6           0        1.307071   -0.812455    1.316037
      7          6           0        0.248901   -0.012938    0.842877
      8          6           0        0.675720    1.390855    0.665920
      9          6           0        1.359139    1.535904   -0.531345
     10          6           0        1.543954    0.271304   -1.124222
     11          1           0       -1.996154    1.800611    0.476185
     12          1           0       -3.563040    1.273944   -0.362852
     13          1           0       -2.683337   -0.946399   -0.760030
     14          1           0       -0.027264   -2.685969   -0.239913
     15          1           0       -0.358898   -1.619146   -1.644348
     16          1           0        1.080425   -1.789287    1.751361
     17          1           0        0.624019    2.125852    1.461562
     18          1           0        1.781465    2.465914   -0.902153
     19          1           0        1.778316    0.095204   -2.170115
 ---------------------------------------------------------------------

 SCF Done:  E(UB3LYP) =  -403.037924261     A.U. after   23 cycles

 The electronic state is 2-A.
 Alpha  occ. eigenvalues --  -14.18086 -10.06283 -10.06083 -10.04561 -10.02417
 Alpha  occ. eigenvalues --  -10.01000 -10.00331 -10.00307 -10.00146  -9.97163
 Alpha  occ. eigenvalues --   -0.81992  -0.70408  -0.62860  -0.58063  -0.55940
 Alpha  occ. eigenvalues --   -0.50185  -0.45049  -0.43287  -0.37001  -0.35158
 Alpha  occ. eigenvalues --   -0.34284  -0.33221  -0.30257  -0.28091  -0.26749
 Alpha  occ. eigenvalues --   -0.24635  -0.22789  -0.22332  -0.21037  -0.18486
 Alpha  occ. eigenvalues --   -0.15363  -0.14320  -0.09841  -0.04492  -0.02954
 Alpha  occ. eigenvalues --    0.03114
 Alpha virt. eigenvalues --    0.09433   0.10552   0.10674   0.11719   0.12480
 Alpha virt. eigenvalues --    0.12843   0.13955   0.14777   0.15173   0.15467
 Alpha virt. eigenvalues --    0.16262   0.17193   0.18546   0.18746   0.19809

  Beta  occ. eigenvalues --  -14.18102 -10.06173 -10.06074 -10.04481 -10.02318
  Beta  occ. eigenvalues --  -10.01182 -10.00221  -9.99797  -9.99647  -9.96766
  Beta  occ. eigenvalues --   -0.81803  -0.70020  -0.62503  -0.57676  -0.55383
  Beta  occ. eigenvalues --   -0.49475  -0.44756  -0.43059  -0.36451  -0.34763
  Beta  occ. eigenvalues --   -0.33954  -0.33052  -0.30141  -0.27736  -0.26572
  Beta  occ. eigenvalues --   -0.24360  -0.22558  -0.22078  -0.20710  -0.18013
  Beta  occ. eigenvalues --   -0.14659  -0.13078  -0.09129  -0.03677  -0.00386
  Beta virt. eigenvalues --    0.09376   0.09829   0.10568   0.10867   0.11743
  Beta virt. eigenvalues --    0.12429   0.12894   0.13961   0.14850   0.15273
  Beta virt. eigenvalues --    0.15805   0.16519   0.17538   0.18645   0.18849

 Mulliken charges and spin densities:
               1          2
     1  C   -0.455807   0.075396
     2  C   -0.057969   0.008775
     3  N    0.168372   0.013381
     4  C   -0.403444  -0.014799
     5  C    0.482819   0.017807
     6  C   -0.587167   0.342712
     7  C    0.608869  -0.061903
     8  C   -0.861350   0.352380
     9  C    0.069269  -0.138684
    10  C   -0.784442   0.409591
    11  H    0.110141   0.001060
    12  H    0.090295  -0.002886
    13  H    0.085300   0.000500
    14  H    0.136475  -0.004148
    15  H    0.068541   0.030348
    16  H    0.092013  -0.001785
    17  H    0.089274  -0.025316
    18  H    0.076902   0.022411
    19  H    0.071911  -0.024841
 Sum of Mulliken charges =  -1.00000   1.00000

 Dipole moment (field-independent basis, Debye):
    X=             -2.9705    Y=             -0.7315    Z=             -2.7927  Tot=              4.1422
 Quadrupole moment (field-independent basis, Debye-Ang):
   XX=            -87.2190   YY=            -69.0499   ZZ=            -74.3133
   XY=              3.7871   XZ=             -4.1345   YZ=              3.8508

 Summary of Natural Population Analysis:

                                       Natural Population
                Natural  -----------------------------------------------
    Atom  No    Charge         Core      Valence    Rydberg      Total
 -----------------------------------------------------------------------
      C    1   -0.25073      0.99961     2.24185    0.00928     3.25073
      C    2    0.01929      0.99957     1.96951    0.01163     2.98071
      N    3   -0.26679      0.99966     2.75144    0.01569     3.76679
      C    4   -0.06206      0.99960     2.05290    0.00956     3.06206
      C    5   -0.02949      0.99942     2.01553    0.01454     3.02949
      C    6   -0.12260      0.99931     2.10426    0.01903     3.12260
      C    7    0.07432      0.99935     1.90795    0.01839     2.92568
      C    8    0.02828      0.99952     1.96022    0.01198     2.97172
      C    9   -0.17719      0.99954     2.16793    0.00972     3.17719
      C   10    0.02817      0.99949     1.96118    0.01116     2.97183
      H   11    0.09746      0.00000     0.40147    0.00107     0.40254
      H   12    0.08510      0.00000     0.41375    0.00115     0.41490
      H   13    0.08051      0.00000     0.41831    0.00118     0.41949
      H   14    0.08315      0.00000     0.41578    0.00107     0.41685
      H   15    0.08333      0.00000     0.41431    0.00236     0.41667
      H   16    0.07229      0.00000     0.42576    0.00195     0.42771
      H   17    0.08637      0.00000     0.41194    0.00170     0.41363
      H   18    0.08735      0.00000     0.41024    0.00241     0.41265
      H   19    0.08324      0.00000     0.41576    0.00100     0.41676
 =======================================================================
   * Total *    0.00000      9.99506    24.86007    0.14487    35.00000

 Normal termination of Gaussian 16 at Tue Dec  8 11:09:58 2020.
