 Gaussian 16, Revision A.03,

 -----------------------------------------------------------
 # opt freq B3LYP/6-31G(d) empiricaldispersion=gd3bj scf=xqc
 -----------------------------------------------------------

 -------------------------------
 CID_31482684_JID_10854_neutraal
 -------------------------------
 Symbolic Z-matrix:
 Charge =  0 Multiplicity = 1

 SCF Done:  E(RB3LYP) =  -897.846822523     A.U. after   16 cycles
 SCF Done:  E(RB3LYP) =  -897.849517727     A.U. after   14 cycles
 SCF Done:  E(RB3LYP) =  -897.849495661     A.U. after   15 cycles
 SCF Done:  E(RB3LYP) =  -897.854623793     A.U. after   14 cycles
 SCF Done:  E(RB3LYP) =  -897.855474221     A.U. after   15 cycles
 SCF Done:  E(RB3LYP) =  -897.856639906     A.U. after   13 cycles
 SCF Done:  E(RB3LYP) =  -897.856216972     A.U. after   13 cycles
 SCF Done:  E(RB3LYP) =  -897.856993406     A.U. after   12 cycles
 SCF Done:  E(RB3LYP) =  -897.857130917     A.U. after   12 cycles
 SCF Done:  E(RB3LYP) =  -897.857143864     A.U. after   10 cycles
 SCF Done:  E(RB3LYP) =  -897.857163153     A.U. after    9 cycles
 SCF Done:  E(RB3LYP) =  -897.857163205     A.U. after    8 cycles
 SCF Done:  E(RB3LYP) =  -897.857163117     A.U. after    8 cycles
 SCF Done:  E(RB3LYP) =  -897.857163251     A.U. after    7 cycles
 SCF Done:  E(RB3LYP) =  -897.857163564     A.U. after    7 cycles
 SCF Done:  E(RB3LYP) =  -897.857163690     A.U. after    7 cycles
 Optimization completed.
    -- Stationary point found.
 Normal termination of Gaussian 16 at Sat Dec 12 16:19:15 2020.

 --------------------------------------------------------------------
 #N Geom=AllCheck Guess=TCheck SCRF=Check GenChk RB3LYP/6-31G(d) Freq
 --------------------------------------------------------------------

 Structure from the checkpoint file:  "JID_10854.chk"
 -------------------------------
 CID_31482684_JID_10854_neutraal
 -------------------------------
 Charge =  0 Multiplicity = 1

 SCF Done:  E(RB3LYP) =  -897.857163690     A.U. after    1 cycles

  Exact polarizability: 162.827 -25.839 167.759 -28.231   3.842 198.816
 Approx polarizability: 222.161 -56.877 278.700 -64.362  11.455 367.313

                      1                      2                      3
                      A                      A                      A
 Frequencies --     18.4676                37.6949                51.3844
 Red. masses --      4.8789                 3.8414                 3.3924
 Frc consts  --      0.0010                 0.0032                 0.0053
 IR Inten    --      0.4074                 0.1233                 0.3668

                      4                      5                      6
                      A                      A                      A
 Frequencies --     57.1750                82.1112                83.2209
 Red. masses --      3.8561                 5.1657                 3.9373
 Frc consts  --      0.0074                 0.0205                 0.0161
 IR Inten    --      1.1798                 0.1554                 0.3177

                      7                      8                      9
                      A                      A                      A
 Frequencies --    100.9907               127.5439               151.3288
 Red. masses --      6.6941                 3.9182                 3.6318
 Frc consts  --      0.0402                 0.0376                 0.0490
 IR Inten    --      3.4445                 4.8784                 1.7882

                     10                     11                     12
                      A                      A                      A
 Frequencies --    183.0881               202.6263               232.5394
 Red. masses --      2.8921                 2.2785                 4.3446
 Frc consts  --      0.0571                 0.0551                 0.1384
 IR Inten    --      0.0990                 0.4548                 4.6315

                     13                     14                     15
                      A                      A                      A
 Frequencies --    261.3226               286.6844               315.5818
 Red. masses --      1.7470                 2.8122                 5.3962
 Frc consts  --      0.0703                 0.1362                 0.3166
 IR Inten    --      0.2387                 1.4071                 3.6378

                     16                     17                     18
                      A                      A                      A
 Frequencies --    321.0717               354.4958               378.6786
 Red. masses --      3.3994                 2.7070                 2.8634
 Frc consts  --      0.2065                 0.2004                 0.2419
 IR Inten    --      1.1059                 0.1346                 1.0863

                     19                     20                     21
                      A                      A                      A
 Frequencies --    421.8241               428.1392               442.4950
 Red. masses --      2.5122                 2.8643                 4.2894
 Frc consts  --      0.2634                 0.3093                 0.4948
 IR Inten    --      0.7404                11.6890                 4.5809

                     22                     23                     24
                      A                      A                      A
 Frequencies --    476.2340               509.2739               516.8609
 Red. masses --      6.3897                 3.2059                 3.3829
 Frc consts  --      0.8538                 0.4899                 0.5325
 IR Inten    --      7.0407                13.6561                 0.6960

                     25                     26                     27
                      A                      A                      A
 Frequencies --    518.6095               546.7955               563.9766
 Red. masses --      2.4667                 6.7425                 3.7945
 Frc consts  --      0.3909                 1.1877                 0.7111
 IR Inten    --      5.9441                 0.8937                 5.2515

                     28                     29                     30
                      A                      A                      A
 Frequencies --    568.0358               607.7908               630.1166
 Red. masses --      3.8972                 5.0346                 1.6584
 Frc consts  --      0.7409                 1.0958                 0.3880
 IR Inten    --     12.8739                16.6292                76.9108

                     31                     32                     33
                      A                      A                      A
 Frequencies --    681.5857               704.3264               725.6049
 Red. masses --      2.9459                 3.6879                 1.9901
 Frc consts  --      0.8063                 1.0779                 0.6174
 IR Inten    --     21.9853                 6.8690                12.5378

                     34                     35                     36
                      A                      A                      A
 Frequencies --    743.4245               768.4643               780.3191
 Red. masses --      2.6333                 2.2431                 1.7042
 Frc consts  --      0.8575                 0.7805                 0.6114
 IR Inten    --     17.3669                32.4440                11.1424

                     37                     38                     39
                      A                      A                      A
 Frequencies --    789.4607               793.4150               835.1434
 Red. masses --      3.6549                 2.2502                 3.0342
 Frc consts  --      1.3421                 0.8346                 1.2469
 IR Inten    --     15.1473                15.2698                12.0090

                     40                     41                     42
                      A                      A                      A
 Frequencies --    862.1877               880.0767               894.2689
 Red. masses --      1.8626                 4.6585                 1.4284
 Frc consts  --      0.8158                 2.1259                 0.6730
 IR Inten    --      1.7683                 4.0785                 4.4543

                     43                     44                     45
                      A                      A                      A
 Frequencies --    906.0596               932.2550               936.6818
 Red. masses --      2.2524                 2.2772                 1.5334
 Frc consts  --      1.0895                 1.1660                 0.7927
 IR Inten    --      7.4651                16.7127                 3.5856

                     46                     47                     48
                      A                      A                      A
 Frequencies --    949.8065               970.4507               999.3411
 Red. masses --      1.7467                 1.3375                 1.2653
 Frc consts  --      0.9284                 0.7421                 0.7445
 IR Inten    --      0.7323                 6.7617                 1.9979

                     49                     50                     51
                      A                      A                      A
 Frequencies --   1015.7187              1022.4942              1051.0977
 Red. masses --      1.7487                 1.6755                 2.9609
 Frc consts  --      1.0629                 1.0321                 1.9273
 IR Inten    --      4.3307                 0.4715                 1.0687

                     52                     53                     54
                      A                      A                      A
 Frequencies --   1077.9432              1082.9066              1106.4447
 Red. masses --      1.8181                 1.7994                 3.3154
 Frc consts  --      1.2447                 1.2433                 2.3914
 IR Inten    --      6.7319                 3.4426                13.7313

                     55                     56                     57
                      A                      A                      A
 Frequencies --   1114.0908              1144.9447              1168.9063
 Red. masses --      2.3676                 2.1098                 1.5139
 Frc consts  --      1.7314                 1.6295                 1.2187
 IR Inten    --      9.6450                 3.1186                14.0627

                     58                     59                     60
                      A                      A                      A
 Frequencies --   1173.6489              1198.7673              1225.4089
 Red. masses --      2.3733                 1.6900                 1.6667
 Frc consts  --      1.9261                 1.4309                 1.4746
 IR Inten    --      1.7959                 2.7803                12.5645

                     61                     62                     63
                      A                      A                      A
 Frequencies --   1237.8821              1256.3263              1271.1960
 Red. masses --      1.3413                 1.8028                 1.3880
 Frc consts  --      1.2109                 1.6765                 1.3215
 IR Inten    --      3.5487                 6.7966                 1.8683

                     64                     65                     66
                      A                      A                      A
 Frequencies --   1313.1848              1318.4555              1340.2530
 Red. masses --      1.5371                 1.2853                 2.2248
 Frc consts  --      1.5617                 1.3164                 2.3546
 IR Inten    --      4.6145                 4.1753                27.5333

                     67                     68                     69
                      A                      A                      A
 Frequencies --   1345.8315              1356.5661              1373.1964
 Red. masses --      1.2450                 1.6375                 2.5996
 Frc consts  --      1.3286                 1.7754                 2.8882
 IR Inten    --     10.3986                 7.0305                17.8949

                     70                     71                     72
                      A                      A                      A
 Frequencies --   1383.7681              1391.0316              1402.2116
 Red. masses --      1.4984                 1.6694                 1.8781
 Frc consts  --      1.6905                 1.9032                 2.1757
 IR Inten    --     39.3420                19.6375                18.7844

                     73                     74                     75
                      A                      A                      A
 Frequencies --   1406.4397              1416.9202              1419.6350
 Red. masses --      1.8489                 1.4547                 1.7165
 Frc consts  --      2.1548                 1.7207                 2.0382
 IR Inten    --      5.4814                 1.2904                26.5007

                     76                     77                     78
                      A                      A                      A
 Frequencies --   1443.7792              1445.1050              1507.7235
 Red. masses --      1.5891                 1.2690                 1.1423
 Frc consts  --      1.9517                 1.5614                 1.5299
 IR Inten    --     30.5851                 5.2774                20.2861

                     79                     80                     81
                      A                      A                      A
 Frequencies --   1510.2569              1511.4545              1516.5838
 Red. masses --      1.3959                 1.6861                 1.5972
 Frc consts  --      1.8759                 2.2695                 2.1644
 IR Inten    --     24.1950                34.8438                57.2757

                     82                     83                     84
                      A                      A                      A
 Frequencies --   1521.8305              1523.7696              1533.9535
 Red. masses --      1.1786                 1.0880                 1.0579
 Frc consts  --      1.6083                 1.4884                 1.4667
 IR Inten    --      8.5388                 4.3634                 7.9402

                     85                     86                     87
                      A                      A                      A
 Frequencies --   1535.8258              1539.4021              1550.2108
 Red. masses --      2.6531                 1.0701                 1.0910
 Frc consts  --      3.6871                 1.4940                 1.5448
 IR Inten    --      4.1661                 0.9795                32.4179

                     88                     89                     90
                      A                      A                      A
 Frequencies --   1614.8212              1648.9730              1667.1839
 Red. masses --      6.0730                 8.9811                 5.8425
 Frc consts  --      9.3304                14.3882                 9.5678
 IR Inten    --     44.5718                 1.2137                61.1855

                     91                     92                     93
                      A                      A                      A
 Frequencies --   1746.0689              1775.6777              3024.3690
 Red. masses --     10.2720                 7.4586                 1.0676
 Frc consts  --     18.4513                13.8559                 5.7536
 IR Inten    --    341.3521               392.3391                26.6706

                     94                     95                     96
                      A                      A                      A
 Frequencies --   3038.3653              3046.8796              3058.0179
 Red. masses --      1.0620                 1.0377                 1.0709
 Frc consts  --      5.7766                 5.6756                 5.9005
 IR Inten    --     17.2749                16.3880                 8.1207

                     97                     98                     99
                      A                      A                      A
 Frequencies --   3064.7337              3068.4788              3078.0464
 Red. masses --      1.0901                 1.0725                 1.0967
 Frc consts  --      6.0328                 5.9498                 6.1220
 IR Inten    --     25.1404                30.5558                49.7847

                    100                    101                    102
                      A                      A                      A
 Frequencies --   3107.2011              3109.8699              3112.6726
 Red. masses --      1.0588                 1.0974                 1.1006
 Frc consts  --      6.0226                 6.2529                 6.2827
 IR Inten    --     13.5981                51.3350                58.1740

                    103                    104                    105
                      A                      A                      A
 Frequencies --   3118.3145              3144.3914              3161.0978
 Red. masses --      1.1018                 1.0966                 1.1065
 Frc consts  --      6.3121                 6.3883                 6.5144
 IR Inten    --     33.4589                 0.7635                 5.3135

                    106                    107                    108
                      A                      A                      A
 Frequencies --   3188.4517              3199.2651              3212.8745
 Red. masses --      1.0916                 1.0870                 1.0911
 Frc consts  --      6.5383                 6.5553                 6.6357
 IR Inten    --      9.2583                 3.7819                11.3644

                    109                    110                    111
                      A                      A                      A
 Frequencies --   3226.1436              3240.5323              3592.6935
 Red. masses --      1.0958                 1.0936                 1.0754
 Frc consts  --      6.7198                 6.7661                 8.1785
 IR Inten    --     10.6450                 7.3549                21.2444

 - Thermochemistry -
 -------------------
 Temperature   298.150 Kelvin.  Pressure   1.00000 Atm.
 Atom     1 has atomic number  6 and mass  12.00000

 Molecular mass:   273.14773 amu.
 Principal axes and moments of inertia in atomic units:
                           1         2         3
     Eigenvalues --  4269.048997173.667907265.00538
           X            0.99947   0.03153  -0.00760
           Y           -0.02925   0.97743   0.20924
           Z            0.01403  -0.20891   0.97783
 This molecule is an asymmetric top.
 Rotational symmetry number  1.
 Warning -- assumption of classical behavior for rotation
           may cause significant error
 Rotational temperatures (Kelvin)      0.02029     0.01207     0.01192
 Rotational constants (GHZ):           0.42275     0.25158     0.24842
 Zero-point vibrational energy     865075.4 (Joules/Mol)
                                  206.75799 (Kcal/Mol)
 Warning -- explicit consideration of  29 degrees of freedom as
           vibrations may cause significant error
 Vibrational temperatures:     26.57    54.23    73.93    82.26   118.14
          (Kelvin)            119.74   145.30   183.51   217.73   263.42
                              291.53   334.57   375.98   412.47   454.05
                              461.95   510.04   544.83   606.91   616.00
                              636.65   685.19   732.73   743.65   746.16
                              786.72   811.44   817.28   874.48   906.60
                              980.65  1013.37  1043.98  1069.62  1105.65
                             1122.71  1135.86  1141.55  1201.59  1240.50
                             1266.23  1286.65  1303.62  1341.31  1347.68
                             1366.56  1396.26  1437.83  1461.39  1471.14
                             1512.30  1550.92  1558.06  1591.93  1602.93
                             1647.32  1681.80  1688.62  1724.76  1763.09
                             1781.04  1807.57  1828.97  1889.38  1896.96
                             1928.33  1936.35  1951.80  1975.72  1990.93
                             2001.38  2017.47  2023.55  2038.63  2042.54
                             2077.28  2079.18  2169.28  2172.92  2174.65
                             2182.03  2189.57  2192.36  2207.02  2209.71
                             2214.86  2230.41  2323.37  2372.50  2398.71
                             2512.20  2554.80  4351.39  4371.53  4383.78
                             4399.81  4409.47  4414.86  4428.62  4470.57
                             4474.41  4478.44  4486.56  4524.08  4548.11
                             4587.47  4603.03  4622.61  4641.70  4662.40
                             5169.08

 Zero-point correction=                           0.329490 (Hartree/Particle)
 Thermal correction to Energy=                    0.347733
 Thermal correction to Enthalpy=                  0.348677
 Thermal correction to Gibbs Free Energy=         0.281630
 Sum of electronic and zero-point Energies=           -897.527674
 Sum of electronic and thermal Energies=              -897.509431
 Sum of electronic and thermal Enthalpies=            -897.508487
 Sum of electronic and thermal Free Energies=         -897.575534

                     E (Thermal)             CV                S
                      KCal/Mol        Cal/Mol-Kelvin    Cal/Mol-Kelvin
 Total                  218.206             70.360            141.113
 Electronic               0.000              0.000              0.000
 Translational            0.889              2.981             42.713
 Rotational               0.889              2.981             33.764
 Vibrational            216.428             64.399             64.635
 Vibration     1          0.593              1.986              6.792
 Vibration     2          0.594              1.982              5.377
 Vibration     3          0.596              1.977              4.763
 Vibration     4          0.596              1.975              4.552
 Vibration     5          0.600              1.961              3.840
 Vibration     6          0.600              1.961              3.813
 Vibration     7          0.604              1.948              3.435
 Vibration     8          0.611              1.926              2.983
 Vibration     9          0.619              1.901              2.655
 Vibration    10          0.631              1.863              2.297
 Vibration    11          0.639              1.836              2.109
 Vibration    12          0.653              1.791              1.859
 Vibration    13          0.669              1.744              1.653
 Vibration    14          0.684              1.698              1.493
 Vibration    15          0.703              1.644              1.333
 Vibration    16          0.707              1.633              1.305
 Vibration    17          0.730              1.566              1.146
 Vibration    18          0.749              1.516              1.044
 Vibration    19          0.784              1.423              0.886
 Vibration    20          0.790              1.409              0.865
 Vibration    21          0.802              1.377              0.819
 Vibration    22          0.833              1.303              0.720
 Vibration    23          0.864              1.229              0.635
 Vibration    24          0.872              1.213              0.617
 Vibration    25          0.874              1.209              0.613
 Vibration    26          0.902              1.147              0.551
 Vibration    27          0.920              1.109              0.516
 Vibration    28          0.924              1.100              0.508
 Vibration    29          0.967              1.015              0.436

 Optimization completed.
    -- Stationary point found.
 Normal termination of Gaussian 16 at Sat Dec 12 16:41:16 2020.

 ----------------------------------------------------------------------
 # B3LYP/6-311++G(d,p) empiricaldispersion=gd3bj scf=xqc pop=npa geom=c
 heck
 ----------------------------------------------------------------------

 ---------------------------------------
 CID_31482684_JID_10854_Energie_neutraal
 ---------------------------------------
 Structure from the checkpoint file:  "JID_10854.chk"
 Charge =  0 Multiplicity = 1

 SCF Done:  E(RB3LYP) =  -898.103262117     A.U. after   15 cycles
 Normal termination of Gaussian 16 at Sat Dec 12 16:50:49 2020.

 ----------------------------------------------------------------------
 # B3LYP/6-311++G(d,p) empiricaldispersion=gd3bj scf=xqc pop=npa geom=c
 heck
 ----------------------------------------------------------------------

 -------------------------------------
 CID_31482684_JID_10854_Energie_kation
 -------------------------------------
 Structure from the checkpoint file:  "JID_10854.chk"
 Charge =  1 Multiplicity = 2

 SCF Done:  E(UB3LYP) =  -897.796430364     A.U. after   30 cycles
 Normal termination of Gaussian 16 at Sat Dec 12 17:16:56 2020.
 Gaussian 16:  ES64L-G16RevA.03 25-Dec-2016

 ----------------------------------------------------------------------
 # B3LYP/6-311++G(d,p) empiricaldispersion=gd3bj scf=xqc pop=npa geom=c
 heck
 ----------------------------------------------------------------------

 ------------------------------------
 CID_31482684_JID_10854_Energie_anion
 ------------------------------------
 Structure from the checkpoint file:  "JID_10854.chk"
 Charge = -1 Multiplicity = 2

                         Standard orientation:
 ---------------------------------------------------------------------
 Center     Atomic      Atomic             Coordinates (Angstroms)
 Number     Number       Type             X           Y           Z
 ---------------------------------------------------------------------
      1          6           0        4.836643    1.664486   -0.300245
      2          6           0        3.957034    1.270902    0.890019
      3          6           0        2.454382    1.488152    0.654377
      4          6           0        1.855763    0.715413   -0.529825
      5          6           0        2.052504   -0.805877   -0.457186
      6          7           0        1.591894   -1.397294    0.796213
      7          6           0        0.446688   -2.069583    1.081226
      8          8           0        0.236424   -2.549375    2.192013
      9          6           0       -0.599744   -2.243889   -0.030562
     10          7           0       -1.085774   -1.001166   -0.630509
     11          6           0       -1.773172   -0.060077    0.136847
     12          6           0       -2.020115   -0.243775    1.507960
     13          6           0       -2.703049    0.736744    2.216833
     14          6           0       -3.153495    1.909467    1.593109
     15          6           0       -2.916285    2.093783    0.241580
     16          6           0       -2.230342    1.120048   -0.503863
     17          7           0       -2.030072    1.347789   -1.855385
     18          6           0       -1.410029    0.442946   -2.535719
     19          6           0       -0.875148   -0.816194   -1.997338
     20          8           0       -0.264017   -1.630588   -2.688507
     21          1           0        4.639190    1.038576   -1.177741
     22          1           0        5.899818    1.563497   -0.056782
     23          1           0        4.657016    2.706525   -0.591686
     24          1           0        4.151266    0.220568    1.151418
     25          1           0        4.256855    1.853908    1.770075
     26          1           0        1.903131    1.218637    1.564673
     27          1           0        2.270628    2.558939    0.495746
     28          1           0        0.785905    0.941536   -0.583031
     29          1           0        2.292881    1.061931   -1.474592
     30          1           0        1.547663   -1.295189   -1.292118
     31          1           0        3.116352   -1.049160   -0.556311
     32          1           0        2.199677   -1.315302    1.602380
     33          1           0       -0.197020   -2.835968   -0.854634
     34          1           0       -1.432394   -2.784710    0.423023
     35          1           0       -1.669557   -1.130389    2.021157
     36          1           0       -2.885392    0.583546    3.276305
     37          1           0       -3.683850    2.663778    2.165390
     38          1           0       -3.248775    2.981236   -0.286610
     39          1           0       -1.244791    0.597163   -3.600209
 ---------------------------------------------------------------------

 SCF Done:  E(UB3LYP) =  -898.134246368     A.U. after   21 cycles

 The electronic state is 2-A.
 Alpha  occ. eigenvalues --  -18.98543 -18.94129 -14.23896 -14.22477 -14.14029
 Alpha  occ. eigenvalues --  -10.17101 -10.11589 -10.10636 -10.09707 -10.09129
 Alpha  occ. eigenvalues --  -10.08790 -10.08440 -10.07660 -10.06642 -10.06166
 Alpha  occ. eigenvalues --  -10.04042 -10.03675 -10.03574 -10.03117 -10.03011
 Alpha  occ. eigenvalues --   -0.93764  -0.90098  -0.83169  -0.82331  -0.77378
 Alpha  occ. eigenvalues --   -0.71895  -0.70971  -0.66099  -0.63243  -0.61115
 Alpha  occ. eigenvalues --   -0.60528  -0.60010  -0.54537  -0.51361  -0.50096
 Alpha  occ. eigenvalues --   -0.49176  -0.47602  -0.46171  -0.42099  -0.40345
 Alpha  occ. eigenvalues --   -0.40246  -0.38551  -0.37148  -0.36759  -0.36209
 Alpha  occ. eigenvalues --   -0.34299  -0.33946  -0.32840  -0.32487  -0.32165
 Alpha  occ. eigenvalues --   -0.30805  -0.30214  -0.29827  -0.29062  -0.28229
 Alpha  occ. eigenvalues --   -0.27965  -0.27790  -0.27036  -0.26797  -0.24533
 Alpha  occ. eigenvalues --   -0.24408  -0.23815  -0.23151  -0.22766  -0.22482
 Alpha  occ. eigenvalues --   -0.20132  -0.18010  -0.15790  -0.15531  -0.14690
 Alpha  occ. eigenvalues --   -0.11428  -0.09497  -0.09113   0.02945
 Alpha virt. eigenvalues --    0.05803   0.07760   0.08211   0.08859   0.09461
 Alpha virt. eigenvalues --    0.10460   0.10771   0.11117   0.11298   0.11513
 Alpha virt. eigenvalues --    0.12014   0.12240   0.12300   0.12823   0.12984

  Beta  occ. eigenvalues --  -18.98543 -18.93874 -14.23896 -14.22282 -14.13494
  Beta  occ. eigenvalues --  -10.17087 -10.11477 -10.10634 -10.09719 -10.09129
  Beta  occ. eigenvalues --  -10.08790 -10.08378 -10.07659 -10.06641 -10.06234
  Beta  occ. eigenvalues --  -10.04132 -10.03661 -10.03354 -10.02796 -10.02760
  Beta  occ. eigenvalues --   -0.93753  -0.89672  -0.82912  -0.82186  -0.76547
  Beta  occ. eigenvalues --   -0.71893  -0.70653  -0.66093  -0.63118  -0.60861
  Beta  occ. eigenvalues --   -0.60242  -0.59915  -0.54519  -0.50704  -0.49961
  Beta  occ. eigenvalues --   -0.48814  -0.47535  -0.46038  -0.41891  -0.40327
  Beta  occ. eigenvalues --   -0.39985  -0.38530  -0.37143  -0.36477  -0.36130
  Beta  occ. eigenvalues --   -0.34234  -0.33569  -0.32724  -0.32404  -0.32102
  Beta  occ. eigenvalues --   -0.30706  -0.30138  -0.29699  -0.28927  -0.28086
  Beta  occ. eigenvalues --   -0.27819  -0.27356  -0.26728  -0.26641  -0.24526
  Beta  occ. eigenvalues --   -0.23930  -0.23558  -0.22883  -0.22566  -0.22386
  Beta  occ. eigenvalues --   -0.18191  -0.17024  -0.15753  -0.15426  -0.14288
  Beta  occ. eigenvalues --   -0.10150  -0.08965  -0.07784
  Beta virt. eigenvalues --    0.05797   0.07748   0.08199   0.08831   0.09346
  Beta virt. eigenvalues --    0.09451   0.10476   0.10803   0.11156   0.11301
  Beta virt. eigenvalues --    0.11550   0.12163   0.12287   0.12475   0.12843

 Mulliken charges and spin densities:
               1          2
     1  C   -0.606716  -0.001173
     2  C   -0.187955   0.002119
     3  C   -0.449999   0.014251
     4  C    0.102864  -0.005030
     5  C   -0.406096   0.010706
     6  N   -0.180427   0.001402
     7  C   -0.118457   0.010943
     8  O   -0.298465   0.000973
     9  C   -0.185097  -0.039778
    10  N    0.187984   0.047588
    11  C   -0.068743   0.075569
    12  C    0.052800  -0.013327
    13  C   -0.386766   0.199165
    14  C   -0.428439  -0.069108
    15  C   -0.056886   0.168631
    16  C   -0.308900  -0.062516
    17  N   -0.057288   0.228815
    18  C   -0.105560   0.271392
    19  C   -0.188267   0.134308
    20  O   -0.370278   0.081445
    21  H    0.144553   0.000053
    22  H    0.124000   0.000010
    23  H    0.132643   0.000099
    24  H    0.090224   0.000102
    25  H    0.153626   0.000204
    26  H    0.172792   0.000161
    27  H    0.154657   0.000941
    28  H    0.115071  -0.040736
    29  H    0.165123   0.008946
    30  H    0.191314  -0.000033
    31  H    0.183919   0.000455
    32  H    0.307726   0.000833
    33  H    0.219538  -0.005689
    34  H    0.177579   0.029413
    35  H    0.175568  -0.005374
    36  H    0.135121  -0.012626
    37  H    0.109593   0.004633
    38  H    0.150544  -0.012290
    39  H    0.157097  -0.025480
 Sum of Mulliken charges =  -1.00000   1.00000

 Dipole moment (field-independent basis, Debye):
    X=              7.4613    Y=              1.1426    Z=              3.2696  Tot=              8.2260
 Quadrupole moment (field-independent basis, Debye-Ang):
   XX=           -144.1632   YY=           -145.0186   ZZ=           -159.7023
   XY=              7.0699   XZ=             -3.7666   YZ=              4.2797

 Summary of Natural Population Analysis:

                                       Natural Population
                Natural  -----------------------------------------------
    Atom  No    Charge         Core      Valence    Rydberg      Total
 -----------------------------------------------------------------------
      C    1   -0.28851      0.99967     2.28424    0.00460     3.28851
      C    2   -0.19141      0.99965     2.18518    0.00659     3.19141
      C    3   -0.19243      0.99963     2.18530    0.00750     3.19243
      C    4   -0.19862      0.99962     2.19201    0.00699     3.19862
      C    5   -0.09934      0.99961     2.09020    0.00953     3.09934
      N    6   -0.31789      0.99966     2.80705    0.01119     3.81789
      C    7    0.34253      0.99967     1.63597    0.02182     2.65747
      O    8   -0.33345      0.99988     3.32694    0.00664     4.33345
      C    9   -0.13730      0.99957     2.12861    0.00912     3.13730
      N   10   -0.21381      0.99960     2.70374    0.01048     3.71381
      C   11    0.09230      0.99947     1.89675    0.01149     2.90770
      C   12   -0.13806      0.99954     2.13091    0.00761     3.13806
      C   13   -0.05766      0.99959     2.04853    0.00955     3.05766
      C   14   -0.14411      0.99957     2.13510    0.00944     3.14411
      C   15   -0.05040      0.99954     2.04109    0.00977     3.05040
      C   16    0.03323      0.99947     1.95127    0.01603     2.96677
      N   17   -0.15176      0.99968     2.64016    0.01193     3.65176
      C   18    0.06912      0.99960     1.91682    0.01446     2.93088
      C   19    0.32084      0.99962     1.65727    0.02228     2.67916
      O   20   -0.32173      0.99988     3.31570    0.00615     4.32173
      H   21    0.09766      0.00000     0.40137    0.00097     0.40234
      H   22    0.09464      0.00000     0.40450    0.00086     0.40536
      H   23    0.09552      0.00000     0.40349    0.00099     0.40448
      H   24    0.08837      0.00000     0.41043    0.00120     0.41163
      H   25    0.09294      0.00000     0.40591    0.00115     0.40706
      H   26    0.10143      0.00000     0.39752    0.00105     0.39857
      H   27    0.09686      0.00000     0.40211    0.00103     0.40314
      H   28    0.11557      0.00000     0.38288    0.00156     0.38443
      H   29    0.09624      0.00000     0.40277    0.00099     0.40376
      H   30    0.12242      0.00000     0.37609    0.00149     0.37758
      H   31    0.08690      0.00000     0.41199    0.00112     0.41310
      H   32    0.18947      0.00000     0.30870    0.00183     0.31053
      H   33    0.12619      0.00000     0.37237    0.00144     0.37381
      H   34    0.10814      0.00000     0.39071    0.00114     0.39186
      H   35    0.10906      0.00000     0.38918    0.00177     0.39094
      H   36    0.09021      0.00000     0.40913    0.00066     0.40979
      H   37    0.09172      0.00000     0.40722    0.00106     0.40828
      H   38    0.09691      0.00000     0.40162    0.00147     0.40309
      H   39    0.07822      0.00000     0.42011    0.00167     0.42178
 =======================================================================
   * Total *    0.00001     19.99251    52.77094    0.23655    72.99999

 Normal termination of Gaussian 16 at Sat Dec 12 17:35:25 2020.
