 Gaussian 16, Revision A.03,

 -----------------------------------------------------------
 # opt freq B3LYP/6-31G(d) empiricaldispersion=gd3bj scf=xqc
 -----------------------------------------------------------

 ------------------------------
 CID_144205502_JID_897_neutraal
 ------------------------------
 Symbolic Z-matrix:
 Charge =  0 Multiplicity = 1

 SCF Done:  E(RB3LYP) =  -514.345119963     A.U. after   15 cycles
 SCF Done:  E(RB3LYP) =  -514.349353655     A.U. after   13 cycles
 SCF Done:  E(RB3LYP) =  -514.349482066     A.U. after   13 cycles
 SCF Done:  E(RB3LYP) =  -514.350394694     A.U. after   12 cycles
 SCF Done:  E(RB3LYP) =  -514.350482774     A.U. after   12 cycles
 SCF Done:  E(RB3LYP) =  -514.348233369     A.U. after   14 cycles
 SCF Done:  E(RB3LYP) =  -514.350479322     A.U. after   11 cycles
 SCF Done:  E(RB3LYP) =  -514.350507065     A.U. after    7 cycles
 SCF Done:  E(RB3LYP) =  -514.350514758     A.U. after   10 cycles
 SCF Done:  E(RB3LYP) =  -514.350517928     A.U. after   10 cycles
 SCF Done:  E(RB3LYP) =  -514.356415176     A.U. after   13 cycles
 SCF Done:  E(RB3LYP) =  -514.356442039     A.U. after   12 cycles
 SCF Done:  E(RB3LYP) =  -514.356450863     A.U. after   11 cycles
 SCF Done:  E(RB3LYP) =  -514.356452053     A.U. after    9 cycles
 SCF Done:  E(RB3LYP) =  -514.356452962     A.U. after    9 cycles
 SCF Done:  E(RB3LYP) =  -514.356453088     A.U. after    8 cycles
 Optimization completed.
    -- Stationary point found.
 Normal termination of Gaussian 16 at Tue Dec  8 13:45:52 2020.

 --------------------------------------------------------------------
 #N Geom=AllCheck Guess=TCheck SCRF=Check GenChk RB3LYP/6-31G(d) Freq
 --------------------------------------------------------------------

 Structure from the checkpoint file:  "JID_897.chk"
 ------------------------------
 CID_144205502_JID_897_neutraal
 ------------------------------
 Charge =  0 Multiplicity = 1

 SCF Done:  E(RB3LYP) =  -514.356453088     A.U. after    1 cycles

  Exact polarizability:  96.853 -14.748 103.713   2.378  -0.242  50.895
 Approx polarizability: 126.128 -31.788 182.849  12.598  -8.574  88.832

                      1                      2                      3
                      A                      A                      A
 Frequencies --     40.8365                58.5832                95.2140
 Red. masses --      4.3559                 4.8908                 3.2003
 Frc consts  --      0.0043                 0.0099                 0.0171
 IR Inten    --      1.6464                 0.2633                 4.7026

                      4                      5                      6
                      A                      A                      A
 Frequencies --    123.2048               187.7728               194.0976
 Red. masses --      1.2897                 3.1269                 3.8234
 Frc consts  --      0.0115                 0.0650                 0.0849
 IR Inten    --      0.9030                 0.7083                 2.6583

                      7                      8                      9
                      A                      A                      A
 Frequencies --    240.1075               270.3362               309.6519
 Red. masses --      3.3140                 1.0676                 4.3974
 Frc consts  --      0.1126                 0.0460                 0.2484
 IR Inten    --      2.7585                 0.1767                 0.4420

                     10                     11                     12
                      A                      A                      A
 Frequencies --    331.8544               391.2667               440.8288
 Red. masses --      5.1116                 3.4919                 3.4093
 Frc consts  --      0.3317                 0.3150                 0.3904
 IR Inten    --      0.4067                 3.0572                 3.0588

                     13                     14                     15
                      A                      A                      A
 Frequencies --    481.8707               559.4273               674.7694
 Red. masses --      4.2082                 3.4198                 4.4831
 Frc consts  --      0.5757                 0.6306                 1.2027
 IR Inten    --      1.2893                 1.0561                 6.7733

                     16                     17                     18
                      A                      A                      A
 Frequencies --    691.6748               718.1151               783.2252
 Red. masses --      3.6646                 1.2972                 5.7979
 Frc consts  --      1.0329                 0.3941                 2.0955
 IR Inten    --      0.7504                 3.4445                 1.0733

                     19                     20                     21
                      A                      A                      A
 Frequencies --    840.4571               845.0150               887.6488
 Red. masses --      1.3993                 4.3845                 1.2557
 Frc consts  --      0.5823                 1.8446                 0.5829
 IR Inten    --     59.0927                39.0969                11.8560

                     22                     23                     24
                      A                      A                      A
 Frequencies --    933.0245               993.8737              1056.7551
 Red. masses --      3.0350                 1.7624                 2.6006
 Frc consts  --      1.5567                 1.0257                 1.7111
 IR Inten    --     12.0359                 9.7336                16.3031

                     25                     26                     27
                      A                      A                      A
 Frequencies --   1076.2767              1119.3106              1187.0260
 Red. masses --      1.6138                 3.7048                 2.8609
 Frc consts  --      1.1014                 2.7347                 2.3751
 IR Inten    --      1.2356                44.7375                62.8431

                     28                     29                     30
                      A                      A                      A
 Frequencies --   1188.3713              1234.2059              1340.0835
 Red. masses --      1.2726                 1.5085                 1.6025
 Frc consts  --      1.0588                 1.3539                 1.6955
 IR Inten    --      0.9688                26.1541               117.8506

                     31                     32                     33
                      A                      A                      A
 Frequencies --   1360.2343              1421.3719              1443.7435
 Red. masses --      3.2034                 7.4213                 1.2325
 Frc consts  --      3.4922                 8.8338                 1.5136
 IR Inten    --     56.3028                93.4645                 2.7772

                     34                     35                     36
                      A                      A                      A
 Frequencies --   1455.9840              1505.5269              1508.7480
 Red. masses --      1.2987                 1.0734                 1.1751
 Frc consts  --      1.6221                 1.4335                 1.5760
 IR Inten    --     12.5960                 3.0386                 7.7581

                     37                     38                     39
                      A                      A                      A
 Frequencies --   1513.1917              1517.8691              1538.1448
 Red. masses --      1.0789                 1.0472                 1.0500
 Frc consts  --      1.4555                 1.4215                 1.4636
 IR Inten    --      6.3101                 6.3319                16.6702

                     40                     41                     42
                      A                      A                      A
 Frequencies --   1637.1905              1686.6542              1734.5274
 Red. masses --     10.6532                 4.7564                 7.0217
 Frc consts  --     16.8239                 7.9722                12.4468
 IR Inten    --    228.2673                34.1487                39.9482

                     43                     44                     45
                      A                      A                      A
 Frequencies --   3035.2962              3047.1195              3095.3991
 Red. masses --      1.0337                 1.0428                 1.0974
 Frc consts  --      5.6110                 5.7047                 6.1950
 IR Inten    --     38.2427                14.8547                13.3118

                     46                     47                     48
                      A                      A                      A
 Frequencies --   3097.1281              3165.5472              3170.5119
 Red. masses --      1.1069                 1.1011                 1.0977
 Frc consts  --      6.2555                 6.5011                 6.5009
 IR Inten    --     37.3415                17.5616                 5.7065

                     49                     50                     51
                      A                      A                      A
 Frequencies --   3216.4866              3229.5611              3316.0298
 Red. masses --      1.0879                 1.0608                 1.1154
 Frc consts  --      6.6313                 6.5188                 7.2261
 IR Inten    --      1.6968                 4.0356                 0.9075

 - Thermochemistry -
 -------------------
 Temperature   298.150 Kelvin.  Pressure   1.00000 Atm.
 Atom     1 has atomic number  6 and mass  12.00000

 Molecular mass:   143.05824 amu.
 Principal axes and moments of inertia in atomic units:
                           1         2         3
     Eigenvalues --   879.393161843.384312539.15879
           X            0.99833  -0.05745  -0.00578
           Y            0.05751   0.99829   0.01079
           Z            0.00515  -0.01110   0.99993
 This molecule is an asymmetric top.
 Rotational symmetry number  1.
 Warning -- assumption of classical behavior for rotation
           may cause significant error
 Rotational temperatures (Kelvin)      0.09849     0.04699     0.03411
 Rotational constants (GHZ):           2.05226     0.97904     0.71076
 Zero-point vibrational energy     394714.7 (Joules/Mol)
                                   94.33909 (Kcal/Mol)
 Warning -- explicit consideration of  14 degrees of freedom as
           vibrations may cause significant error
 Vibrational temperatures:     58.75    84.29   136.99   177.26   270.16
          (Kelvin)            279.26   345.46   388.95   445.52   477.46
                              562.95   634.25   693.30   804.89   970.84
                              995.17  1033.21  1126.89  1209.23  1215.79
                             1277.13  1342.41  1429.96  1520.43  1548.52
                             1610.44  1707.87  1709.80  1775.75  1928.08
                             1957.07  2045.04  2077.22  2094.84  2166.12
                             2170.75  2177.15  2183.88  2213.05  2355.55
                             2426.72  2495.60  4367.11  4384.13  4453.59
                             4456.08  4554.52  4561.66  4627.81  4646.62
                             4771.03

 Zero-point correction=                           0.150339 (Hartree/Particle)
 Thermal correction to Energy=                    0.161089
 Thermal correction to Enthalpy=                  0.162033
 Thermal correction to Gibbs Free Energy=         0.113206
 Sum of electronic and zero-point Energies=           -514.206114
 Sum of electronic and thermal Energies=              -514.195364
 Sum of electronic and thermal Enthalpies=            -514.194420
 Sum of electronic and thermal Free Energies=         -514.243247

                     E (Thermal)             CV                S
                      KCal/Mol        Cal/Mol-Kelvin    Cal/Mol-Kelvin
 Total                  101.085             37.770            102.766
 Electronic               0.000              0.000              0.000
 Translational            0.889              2.981             40.785
 Rotational               0.889              2.981             29.799
 Vibrational             99.307             31.808             32.181
 Vibration     1          0.594              1.981              5.218
 Vibration     2          0.596              1.974              4.504
 Vibration     3          0.603              1.953              3.550
 Vibration     4          0.610              1.930              3.049
 Vibration     5          0.632              1.857              2.250
 Vibration     6          0.635              1.848              2.188
 Vibration     7          0.657              1.779              1.802
 Vibration     8          0.674              1.728              1.594
 Vibration     9          0.699              1.655              1.364
 Vibration    10          0.714              1.612              1.251
 Vibration    11          0.759              1.489              0.995
 Vibration    12          0.801              1.381              0.824
 Vibration    13          0.838              1.290              0.705
 Vibration    14          0.915              1.119              0.525

 Optimization completed.
    -- Stationary point found.
 Normal termination of Gaussian 16 at Tue Dec  8 13:49:58 2020.

 ----------------------------------------------------------------------
 # B3LYP/6-311++G(d,p) empiricaldispersion=gd3bj scf=xqc pop=npa geom=c
 heck
 ----------------------------------------------------------------------

 --------------------------------------
 CID_144205502_JID_897_Energie_neutraal
 --------------------------------------
 Structure from the checkpoint file:  "JID_897.chk"
 Charge =  0 Multiplicity = 1

 SCF Done:  E(RB3LYP) =  -514.511814110     A.U. after   16 cycles
 Normal termination of Gaussian 16 at Tue Dec  8 13:52:51 2020.

 ----------------------------------------------------------------------
 # B3LYP/6-311++G(d,p) empiricaldispersion=gd3bj scf=xqc pop=npa geom=c
 heck
 ----------------------------------------------------------------------

 ------------------------------------
 CID_144205502_JID_897_Energie_kation
 ------------------------------------
 Structure from the checkpoint file:  "JID_897.chk"
 Charge =  1 Multiplicity = 2

 SCF Done:  E(UB3LYP) =  -514.191387566     A.U. after   23 cycles
 Normal termination of Gaussian 16 at Tue Dec  8 13:57:05 2020.
 Gaussian 16:  ES64L-G16RevA.03 25-Dec-2016

 ----------------------------------------------------------------------
 # B3LYP/6-311++G(d,p) empiricaldispersion=gd3bj scf=xqc pop=npa geom=c
 heck
 ----------------------------------------------------------------------

 -----------------------------------
 CID_144205502_JID_897_Energie_anion
 -----------------------------------
 Structure from the checkpoint file:  "JID_897.chk"
 Charge = -1 Multiplicity = 2

                         Standard orientation:
 ---------------------------------------------------------------------
 Center     Atomic      Atomic             Coordinates (Angstroms)
 Number     Number       Type             X           Y           Z
 ---------------------------------------------------------------------
      1          6           0       -2.095322    2.020967    0.152469
      2          6           0       -0.712691    1.455267    0.100162
      3          6           0       -0.337163    0.169996    0.024136
      4          6           0        1.065982   -0.289285   -0.027535
      5          6           0        1.465186   -1.563470   -0.161719
      6          8           0        1.900069    0.791465    0.031163
      7          6           0        3.294592    0.547419   -0.055360
      8          7           0       -1.378670   -0.873209   -0.012812
      9          8           0       -2.279004   -0.747930   -0.841595
     10          8           0       -1.297913   -1.791654    0.801290
     11          1           0       -2.868012    1.265395    0.296321
     12          1           0       -2.316523    2.544864   -0.787092
     13          1           0       -2.161224    2.765877    0.954169
     14          1           0        0.105680    2.167021    0.143904
     15          1           0        2.510849   -1.830584   -0.232881
     16          1           0        0.746609   -2.368857   -0.176529
     17          1           0        3.635766   -0.091374    0.768812
     18          1           0        3.554801    0.074849   -1.010808
     19          1           0        3.774028    1.524857    0.014000
 ---------------------------------------------------------------------

 SCF Done:  E(UB3LYP) =  -514.529066939     A.U. after   30 cycles

 The electronic state is 2-A.
 Alpha  occ. eigenvalues --  -19.02976 -18.92276 -18.92266 -14.29187 -10.11661
 Alpha  occ. eigenvalues --  -10.09694 -10.04371 -10.02322 -10.00930 -10.00809
 Alpha  occ. eigenvalues --   -1.00311  -0.94669  -0.83150  -0.67829  -0.62347
 Alpha  occ. eigenvalues --   -0.59016  -0.56563  -0.48729  -0.44638  -0.40119
 Alpha  occ. eigenvalues --   -0.36245  -0.35743  -0.34881  -0.33109  -0.30823
 Alpha  occ. eigenvalues --   -0.30155  -0.28274  -0.27234  -0.26743  -0.23709
 Alpha  occ. eigenvalues --   -0.23441  -0.22724  -0.20850  -0.13908  -0.11499
 Alpha  occ. eigenvalues --   -0.10052  -0.08552  -0.07380   0.05527
 Alpha virt. eigenvalues --    0.07662   0.10022   0.10597   0.11506   0.12199
 Alpha virt. eigenvalues --    0.12676   0.13385   0.13843   0.14471   0.15982
 Alpha virt. eigenvalues --    0.16735   0.17821   0.18849   0.19566   0.20229

  Beta  occ. eigenvalues --  -19.02977 -18.91797 -18.91780 -14.28399 -10.11657
  Beta  occ. eigenvalues --  -10.09655 -10.04415 -10.02350 -10.00874 -10.00378
  Beta  occ. eigenvalues --   -0.99133  -0.94659  -0.82228  -0.67476  -0.62010
  Beta  occ. eigenvalues --   -0.58899  -0.56181  -0.47819  -0.44372  -0.39761
  Beta  occ. eigenvalues --   -0.35749  -0.35460  -0.34641  -0.31729  -0.30518
  Beta  occ. eigenvalues --   -0.29121  -0.27280  -0.26653  -0.26143  -0.23610
  Beta  occ. eigenvalues --   -0.23306  -0.22489  -0.20710  -0.13398  -0.09592
  Beta  occ. eigenvalues --   -0.08297  -0.07904  -0.06339
  Beta virt. eigenvalues --    0.07591   0.09961   0.10524   0.11390   0.12300
  Beta virt. eigenvalues --    0.12667   0.13293   0.13772   0.14427   0.15300
  Beta virt. eigenvalues --    0.16349   0.16771   0.17909   0.18808   0.19554

 Mulliken charges and spin densities:
               1          2
     1  C   -0.718413  -0.038396
     2  C    0.212575   0.318572
     3  C   -0.756210  -0.107323
     4  C    1.022722   0.029096
     5  C   -0.802514   0.077757
     6  O   -0.149173   0.001014
     7  C   -0.271914  -0.009419
     8  N   -0.253820   0.251996
     9  O   -0.182238   0.192017
    10  O   -0.208342   0.183914
    11  H    0.152386   0.016600
    12  H    0.122045   0.017659
    13  H    0.088241   0.005972
    14  H    0.160956  -0.007565
    15  H    0.073048  -0.006114
    16  H    0.145655   0.048228
    17  H    0.133672  -0.001898
    18  H    0.111470   0.025129
    19  H    0.119851   0.002760
 Sum of Mulliken charges =  -1.00000   1.00000

 Dipole moment (field-independent basis, Debye):
    X=              6.7600    Y=              4.0382    Z=              0.2939  Tot=              7.8798
 Quadrupole moment (field-independent basis, Debye-Ang):
   XX=            -77.5448   YY=            -77.2222   ZZ=            -70.9550
   XY=             -6.4230   XZ=             -2.0697   YZ=              1.8566

 Summary of Natural Population Analysis:

                                       Natural Population
                Natural  -----------------------------------------------
    Atom  No    Charge         Core      Valence    Rydberg      Total
 -----------------------------------------------------------------------
      C    1   -0.30443      0.99965     2.29952    0.00525     3.30443
      C    2    0.01212      0.99950     1.98067    0.00772     2.98788
      C    3    0.00189      0.99932     1.98209    0.01670     2.99811
      C    4    0.15812      0.99939     1.82674    0.01574     2.84188
      C    5   -0.25519      0.99955     2.24933    0.00632     3.25519
      O    6   -0.28049      0.99986     3.27054    0.01010     4.28049
      C    7   -0.09816      0.99961     2.09068    0.00787     3.09816
      N    8    0.32311      0.99972     2.14907    0.02811     3.17689
      O    9   -0.19740      0.99990     3.18926    0.00824     4.19740
      O   10   -0.20301      0.99990     3.19496    0.00815     4.20301
      H   11    0.11322      0.00000     0.38563    0.00115     0.38678
      H   12    0.10116      0.00000     0.39767    0.00117     0.39884
      H   13    0.09067      0.00000     0.40824    0.00109     0.40933
      H   14    0.08909      0.00000     0.40921    0.00169     0.41091
      H   15    0.08499      0.00000     0.41401    0.00100     0.41501
      H   16    0.11653      0.00000     0.38208    0.00140     0.38347
      H   17    0.08132      0.00000     0.41715    0.00153     0.41868
      H   18    0.08111      0.00000     0.41700    0.00189     0.41889
      H   19    0.08534      0.00000     0.41383    0.00083     0.41466
 =======================================================================
   * Total *   -0.00000      9.99639    27.87768    0.12593    38.00000

 Normal termination of Gaussian 16 at Tue Dec  8 14:07:59 2020.
