 Gaussian 16, Revision A.03,

 -----------------------------------------------------------
 # opt freq B3LYP/6-31G(d) empiricaldispersion=gd3bj scf=xqc
 -----------------------------------------------------------

 ------------------------------
 CID_12339514_JID_4999_neutraal
 ------------------------------
 Symbolic Z-matrix:
 Charge =  0 Multiplicity = 1

 SCF Done:  E(RB3LYP) =  -597.302963323     A.U. after   13 cycles
 SCF Done:  E(RB3LYP) =  -597.306998563     A.U. after   10 cycles
 SCF Done:  E(RB3LYP) =  -597.307313401     A.U. after   10 cycles
 SCF Done:  E(RB3LYP) =  -597.307915160     A.U. after   10 cycles
 SCF Done:  E(RB3LYP) =  -597.308207183     A.U. after   10 cycles
 SCF Done:  E(RB3LYP) =  -597.308468167     A.U. after   10 cycles
 SCF Done:  E(RB3LYP) =  -597.308595647     A.U. after   10 cycles
 SCF Done:  E(RB3LYP) =  -597.309407930     A.U. after   10 cycles
 SCF Done:  E(RB3LYP) =  -597.307504871     A.U. after   11 cycles
 SCF Done:  E(RB3LYP) =  -597.307174916     A.U. after   11 cycles
 SCF Done:  E(RB3LYP) =  -597.320043611     A.U. after   10 cycles
 SCF Done:  E(RB3LYP) =  -597.320072994     A.U. after    9 cycles
 SCF Done:  E(RB3LYP) =  -597.320088278     A.U. after    9 cycles
 SCF Done:  E(RB3LYP) =  -597.320091671     A.U. after    8 cycles
 SCF Done:  E(RB3LYP) =  -597.320092600     A.U. after    8 cycles
 SCF Done:  E(RB3LYP) =  -597.320092668     A.U. after    6 cycles
 Optimization completed.
    -- Stationary point found.
 Normal termination of Gaussian 16 at Thu Dec 10 11:17:44 2020.

 --------------------------------------------------------------------
 #N Geom=AllCheck Guess=TCheck SCRF=Check GenChk RB3LYP/6-31G(d) Freq
 --------------------------------------------------------------------

 Structure from the checkpoint file:  "JID_4999.chk"
 ------------------------------
 CID_12339514_JID_4999_neutraal
 ------------------------------
 Charge =  0 Multiplicity = 1

 SCF Done:  E(RB3LYP) =  -597.320092668     A.U. after    1 cycles

  Exact polarizability: 144.710   0.566 136.759  -2.901   0.658 113.286
 Approx polarizability: 181.939  -2.144 187.769  -5.410  -0.046 179.639

                      1                      2                      3
                      A                      A                      A
 Frequencies --     44.2347                90.5523               105.9314
 Red. masses --      2.6482                 3.0636                 2.7475
 Frc consts  --      0.0031                 0.0148                 0.0182
 IR Inten    --      0.2031                 0.1332                 0.9707

                      4                      5                      6
                      A                      A                      A
 Frequencies --    150.7777               185.7710               240.3413
 Red. masses --      3.0932                 2.6673                 1.2025
 Frc consts  --      0.0414                 0.0542                 0.0409
 IR Inten    --      0.8866                 0.5106                 0.0802

                      7                      8                      9
                      A                      A                      A
 Frequencies --    257.1108               264.0542               275.5812
 Red. masses --      1.7611                 2.3379                 1.5884
 Frc consts  --      0.0686                 0.0960                 0.0711
 IR Inten    --      1.0185                 0.1112                 1.8946

                     10                     11                     12
                      A                      A                      A
 Frequencies --    292.2254               322.9172               343.9237
 Red. masses --      2.2674                 2.1775                 1.9345
 Frc consts  --      0.1141                 0.1338                 0.1348
 IR Inten    --      0.6197                 1.4512                 5.3024

                     13                     14                     15
                      A                      A                      A
 Frequencies --    355.7570               379.4581               384.3116
 Red. masses --      2.3957                 1.4395                 1.9432
 Frc consts  --      0.1786                 0.1221                 0.1691
 IR Inten    --      4.6256                24.7752                 5.7038

                     16                     17                     18
                      A                      A                      A
 Frequencies --    435.2380               447.9061               468.1334
 Red. masses --      2.3159                 2.3553                 2.6726
 Frc consts  --      0.2585                 0.2784                 0.3451
 IR Inten    --      4.4594                 8.0255                 1.7828

                     19                     20                     21
                      A                      A                      A
 Frequencies --    493.9277               497.3961               510.4274
 Red. masses --      2.2795                 1.9584                 2.4067
 Frc consts  --      0.3277                 0.2855                 0.3694
 IR Inten    --      0.8867                 5.8925                 1.8863

                     22                     23                     24
                      A                      A                      A
 Frequencies --    549.3065               592.2534               697.8265
 Red. masses --      2.4110                 2.3200                 3.3012
 Frc consts  --      0.4286                 0.4795                 0.9471
 IR Inten    --      4.9292                 4.0583                 1.4467

                     25                     26                     27
                      A                      A                      A
 Frequencies --    784.1775               813.4364               836.5085
 Red. masses --      2.7999                 3.0930                 1.6904
 Frc consts  --      1.0144                 1.2058                 0.6969
 IR Inten    --      3.8128                 0.6013                11.6076

                     28                     29                     30
                      A                      A                      A
 Frequencies --    854.9226               857.7548               888.4198
 Red. masses --      2.9078                 2.6461                 2.1200
 Frc consts  --      1.2522                 1.1471                 0.9859
 IR Inten    --      3.6013                 0.2921                17.2783

                     31                     32                     33
                      A                      A                      A
 Frequencies --    914.3497               936.5334               943.8428
 Red. masses --      2.4445                 2.0732                 1.8966
 Frc consts  --      1.2041                 1.0714                 0.9954
 IR Inten    --     69.7177                22.0311                29.2491

                     34                     35                     36
                      A                      A                      A
 Frequencies --    953.2871               972.2927               976.7080
 Red. masses --      1.6949                 1.7780                 1.8824
 Frc consts  --      0.9075                 0.9903                 1.0580
 IR Inten    --     43.8475                 1.0548                 2.9205

                     37                     38                     39
                      A                      A                      A
 Frequencies --    984.5753              1026.0186              1040.5409
 Red. masses --      1.8621                 1.7967                 1.8222
 Frc consts  --      1.0635                 1.1144                 1.1624
 IR Inten    --     10.0623                15.2255                35.4201

                     40                     41                     42
                      A                      A                      A
 Frequencies --   1042.5317              1071.1221              1078.8794
 Red. masses --      1.7341                 1.7789                 1.8756
 Frc consts  --      1.1105                 1.2025                 1.2863
 IR Inten    --     22.5775                13.0414                 3.3036

                     43                     44                     45
                      A                      A                      A
 Frequencies --   1103.3841              1126.6705              1132.7448
 Red. masses --      2.3260                 1.9377                 2.3242
 Frc consts  --      1.6685                 1.4492                 1.7571
 IR Inten    --     34.5105                19.3548                34.4283

                     46                     47                     48
                      A                      A                      A
 Frequencies --   1160.6109              1170.1075              1187.0798
 Red. masses --      1.5003                 1.8021                 2.2483
 Frc consts  --      1.1907                 1.4537                 1.8666
 IR Inten    --     27.1267                13.6094                 9.2415

                     49                     50                     51
                      A                      A                      A
 Frequencies --   1199.5921              1227.0024              1245.2655
 Red. masses --      1.3868                 2.8737                 1.5332
 Frc consts  --      1.1758                 2.5491                 1.4008
 IR Inten    --      8.7748                12.5805                15.1809

                     52                     53                     54
                      A                      A                      A
 Frequencies --   1259.8299              1272.6330              1298.0428
 Red. masses --      2.1384                 2.3744                 1.2629
 Frc consts  --      1.9997                 2.2658                 1.2537
 IR Inten    --      5.4907                 2.7863                 3.7997

                     55                     56                     57
                      A                      A                      A
 Frequencies --   1307.4983              1331.3325              1350.0452
 Red. masses --      1.4313                 1.4271                 1.4644
 Frc consts  --      1.4416                 1.4903                 1.5726
 IR Inten    --      3.6516                20.2042                13.3900

                     58                     59                     60
                      A                      A                      A
 Frequencies --   1357.3711              1369.0169              1376.3706
 Red. masses --      1.3164                 1.3085                 1.3484
 Frc consts  --      1.4290                 1.4449                 1.5050
 IR Inten    --      3.3933                10.4670                 3.1359

                     61                     62                     63
                      A                      A                      A
 Frequencies --   1385.3460              1398.8926              1405.4800
 Red. masses --      1.3255                 1.3430                 1.3833
 Frc consts  --      1.4988                 1.5485                 1.6100
 IR Inten    --      3.8312                 4.4754                16.8037

                     64                     65                     66
                      A                      A                      A
 Frequencies --   1408.2807              1410.7821              1418.7037
 Red. masses --      1.3550                 1.5655                 1.3393
 Frc consts  --      1.5833                 1.8358                 1.5882
 IR Inten    --     11.1084                 6.7562                 5.8930

                     67                     68                     69
                      A                      A                      A
 Frequencies --   1431.1373              1443.3789              1445.9550
 Red. masses --      1.3885                 1.3221                 1.3811
 Frc consts  --      1.6756                 1.6229                 1.7013
 IR Inten    --     13.9140                11.4445                 7.0968

                     70                     71                     72
                      A                      A                      A
 Frequencies --   1486.7353              1499.5379              1507.4474
 Red. masses --      1.1804                 1.0824                 1.0730
 Frc consts  --      1.5372                 1.4340                 1.4366
 IR Inten    --      1.2660                 2.7006                 0.2750

                     73                     74                     75
                      A                      A                      A
 Frequencies --   1515.3535              1522.1289              1522.6218
 Red. masses --      1.0877                 1.0789                 1.0753
 Frc consts  --      1.4716                 1.4728                 1.4688
 IR Inten    --      2.9357                 5.1073                 1.7660

                     76                     77                     78
                      A                      A                      A
 Frequencies --   1523.0810              1526.4492              1531.2309
 Red. masses --      1.0555                 1.0760                 1.0850
 Frc consts  --      1.4426                 1.4772                 1.4988
 IR Inten    --     18.5702                 2.1854                 3.8666

                     79                     80                     81
                      A                      A                      A
 Frequencies --   1535.1115              1538.2720              1539.1825
 Red. masses --      1.0889                 1.0500                 1.1020
 Frc consts  --      1.5119                 1.4639                 1.5382
 IR Inten    --      1.5997                 3.6694                12.3201

                     82                     83                     84
                      A                      A                      A
 Frequencies --   1696.3265              2937.4438              2947.0135
 Red. masses --      1.0912                 1.0673                 1.0667
 Frc consts  --      1.8500                 5.4257                 5.4583
 IR Inten    --     22.4170                28.7197               121.3179

                     85                     86                     87
                      A                      A                      A
 Frequencies --   2984.9535              3004.8792              3018.6040
 Red. masses --      1.0714                 1.0830                 1.0680
 Frc consts  --      5.6246                 5.7614                 5.7335
 IR Inten    --     57.6733                34.0523                30.2316

                     88                     89                     90
                      A                      A                      A
 Frequencies --   3029.0118              3034.5937              3037.7395
 Red. masses --      1.0627                 1.0579                 1.0579
 Frc consts  --      5.7447                 5.7396                 5.7520
 IR Inten    --     43.6336                17.0400                17.4270

                     91                     92                     93
                      A                      A                      A
 Frequencies --   3042.1125              3047.2015              3070.4949
 Red. masses --      1.0459                 1.0635                 1.0934
 Frc consts  --      5.7031                 5.8184                 6.0734
 IR Inten    --     52.0927                 9.4550                49.2337

                     94                     95                     96
                      A                      A                      A
 Frequencies --   3074.7259              3076.2061              3077.9891
 Red. masses --      1.1009                 1.0920                 1.0949
 Frc consts  --      6.1321                 6.0886                 6.1117
 IR Inten    --      2.6187                30.4524                44.1673

                     97                     98                     99
                      A                      A                      A
 Frequencies --   3081.6167              3086.5181              3092.5190
 Red. masses --      1.0772                 1.1022                 1.0931
 Frc consts  --      6.0270                 6.1865                 6.1594
 IR Inten    --     72.5413                34.4205                59.0163

                    100                    101                    102
                      A                      A                      A
 Frequencies --   3093.8093              3106.3848              3125.4432
 Red. masses --      1.0981                 1.0976                 1.1034
 Frc consts  --      6.1927                 6.2401                 6.3502
 IR Inten    --     45.5824                46.0203                40.2297

                    103                    104                    105
                      A                      A                      A
 Frequencies --   3129.6842              3426.0978              3513.7889
 Red. masses --      1.1031                 1.0492                 1.0913
 Frc consts  --      6.3658                 7.2562                 7.9385
 IR Inten    --     24.8639                 5.5405                 2.4875

 - Thermochemistry -
 -------------------
 Temperature   298.150 Kelvin.  Pressure   1.00000 Atm.
 Atom     1 has atomic number  6 and mass  12.00000

 Molecular mass:   197.18920 amu.
 Principal axes and moments of inertia in atomic units:
                           1         2         3
     Eigenvalues --  1873.212773094.835154177.93581
           X            0.99991   0.01287  -0.00398
           Y           -0.01282   0.99985   0.01201
           Z            0.00413  -0.01196   0.99992
 This molecule is an asymmetric top.
 Rotational symmetry number  1.
 Warning -- assumption of classical behavior for rotation
           may cause significant error
 Rotational temperatures (Kelvin)      0.04624     0.02799     0.02073
 Rotational constants (GHZ):           0.96345     0.58315     0.43197
 Zero-point vibrational energy     906566.8 (Joules/Mol)
                                  216.67466 (Kcal/Mol)
 Warning -- explicit consideration of  23 degrees of freedom as
           vibrations may cause significant error
 Vibrational temperatures:     63.64   130.28   152.41   216.94   267.28
          (Kelvin)            345.80   369.93   379.92   396.50   420.45
                              464.61   494.83   511.86   545.96   552.94
                              626.21   644.44   673.54   710.65   715.64
                              734.39   790.33   852.12  1004.02  1128.26
                             1170.35  1203.55  1230.04  1234.12  1278.24
                             1315.55  1347.46  1357.98  1371.57  1398.91
                             1405.27  1416.58  1476.21  1497.11  1499.97
                             1541.11  1552.27  1587.52  1621.03  1629.77
                             1669.86  1683.52  1707.94  1725.95  1765.38
                             1791.66  1812.61  1831.04  1867.59  1881.20
                             1915.49  1942.41  1952.95  1969.71  1980.29
                             1993.20  2012.69  2022.17  2026.20  2029.80
                             2041.20  2059.09  2076.70  2080.41  2139.08
                             2157.50  2168.88  2180.26  2190.00  2190.71
                             2191.37  2196.22  2203.10  2208.68  2213.23
                             2214.54  2440.64  4226.33  4240.10  4294.68
                             4323.35  4343.10  4358.07  4366.10  4370.63
                             4376.92  4384.24  4417.76  4423.84  4425.97
                             4428.54  4433.76  4440.81  4449.45  4451.30
                             4469.39  4496.82  4502.92  4929.39  5055.56

 Zero-point correction=                           0.345293 (Hartree/Particle)
 Thermal correction to Energy=                    0.358951
 Thermal correction to Enthalpy=                  0.359896
 Thermal correction to Gibbs Free Energy=         0.306220
 Sum of electronic and zero-point Energies=           -596.974800
 Sum of electronic and thermal Energies=              -596.961141
 Sum of electronic and thermal Enthalpies=            -596.960197
 Sum of electronic and thermal Free Energies=         -597.013873

                     E (Thermal)             CV                S
                      KCal/Mol        Cal/Mol-Kelvin    Cal/Mol-Kelvin
 Total                  225.245             56.146            112.971
 Electronic               0.000              0.000              0.000
 Translational            0.889              2.981             41.742
 Rotational               0.889              2.981             31.560
 Vibrational            223.468             50.184             39.668
 Vibration     1          0.595              1.980              5.060
 Vibration     2          0.602              1.956              3.648
 Vibration     3          0.605              1.944              3.342
 Vibration     4          0.618              1.902              2.662
 Vibration     5          0.632              1.859              2.270
 Vibration     6          0.657              1.779              1.800
 Vibration     7          0.667              1.751              1.681
 Vibration     8          0.671              1.739              1.635
 Vibration     9          0.677              1.719              1.561
 Vibration    10          0.688              1.688              1.461
 Vibration    11          0.708              1.630              1.295
 Vibration    12          0.723              1.588              1.194
 Vibration    13          0.731              1.563              1.141
 Vibration    14          0.749              1.514              1.041
 Vibration    15          0.753              1.504              1.022
 Vibration    16          0.796              1.393              0.842
 Vibration    17          0.807              1.366              0.802
 Vibration    18          0.825              1.321              0.743
 Vibration    19          0.850              1.263              0.673
 Vibration    20          0.853              1.256              0.665
 Vibration    21          0.866              1.227              0.633
 Vibration    22          0.905              1.141              0.546
 Vibration    23          0.950              1.048              0.463

 Optimization completed.
    -- Stationary point found.
 Normal termination of Gaussian 16 at Thu Dec 10 11:30:37 2020.

 ----------------------------------------------------------------------
 # B3LYP/6-311++G(d,p) empiricaldispersion=gd3bj scf=xqc pop=npa geom=c
 heck
 ----------------------------------------------------------------------

 --------------------------------------
 CID_12339514_JID_4999_Energie_neutraal
 --------------------------------------
 Structure from the checkpoint file:  "JID_4999.chk"
 Charge =  0 Multiplicity = 1

 SCF Done:  E(RB3LYP) =  -597.489413818     A.U. after   14 cycles
 Normal termination of Gaussian 16 at Thu Dec 10 11:35:55 2020.

 ----------------------------------------------------------------------
 # B3LYP/6-311++G(d,p) empiricaldispersion=gd3bj scf=xqc pop=npa geom=c
 heck
 ----------------------------------------------------------------------

 ------------------------------------
 CID_12339514_JID_4999_Energie_kation
 ------------------------------------
 Structure from the checkpoint file:  "JID_4999.chk"
 Charge =  1 Multiplicity = 2

 SCF Done:  E(UB3LYP) =  -597.213431486     A.U. after   23 cycles
 Normal termination of Gaussian 16 at Thu Dec 10 11:47:11 2020.
 Gaussian 16:  ES64L-G16RevA.03 25-Dec-2016

 ----------------------------------------------------------------------
 # B3LYP/6-311++G(d,p) empiricaldispersion=gd3bj scf=xqc pop=npa geom=c
 heck
 ----------------------------------------------------------------------

 -----------------------------------
 CID_12339514_JID_4999_Energie_anion
 -----------------------------------
 Structure from the checkpoint file:  "JID_4999.chk"
 Charge = -1 Multiplicity = 2

                         Standard orientation:
 ---------------------------------------------------------------------
 Center     Atomic      Atomic             Coordinates (Angstroms)
 Number     Number       Type             X           Y           Z
 ---------------------------------------------------------------------
      1          6           0       -2.302960    1.611258    1.348118
      2          6           0       -1.533737    1.159793    0.102856
      3          6           0       -2.094464   -0.192715   -0.402703
      4          7           0       -1.380408   -1.367344    0.108835
      5          6           0       -0.276413   -1.729983   -0.782238
      6          6           0        1.010671   -0.908626   -0.622822
      7          6           0        1.880175   -1.356599    0.568697
      8          6           0        3.221514   -0.606776    0.561911
      9          6           0        3.017694    0.910799    0.451322
     10          6           0        2.075676    1.243573   -0.716867
     11          7           0        0.781848    0.551376   -0.637741
     12          6           0       -0.045168    1.039241    0.476101
     13          6           0       -2.277697   -2.498787    0.314829
     14          7           0       -1.762759    2.130696   -0.979949
     15          1           0       -1.873676    2.527430    1.774422
     16          1           0       -2.269566    0.833394    2.118810
     17          1           0       -3.348704    1.811082    1.093486
     18          1           0       -3.145914   -0.258359   -0.106758
     19          1           0       -2.087203   -0.185828   -1.505176
     20          1           0       -0.604650   -1.671357   -1.836984
     21          1           0       -0.009628   -2.775519   -0.591347
     22          1           0        1.596213   -1.118401   -1.530892
     23          1           0        2.055777   -2.438024    0.503478
     24          1           0        1.345223   -1.186193    1.510378
     25          1           0        3.810168   -0.948202   -0.302706
     26          1           0        3.807540   -0.853842    1.455521
     27          1           0        3.980174    1.420117    0.314330
     28          1           0        2.586107    1.295733    1.385056
     29          1           0        2.551949    0.953618   -1.663847
     30          1           0        1.887066    2.321717   -0.771354
     31          1           0        0.301781    2.044276    0.745597
     32          1           0        0.053167    0.419307    1.375443
     33          1           0       -2.751371   -2.862955   -0.617361
     34          1           0       -1.723717   -3.331783    0.760322
     35          1           0       -3.073847   -2.212787    1.009180
     36          1           0       -1.530751    3.066267   -0.642743
     37          1           0       -1.078660    1.920159   -1.710102
 ---------------------------------------------------------------------

 SCF Done:  E(UB3LYP) =  -597.474203837     A.U. after   29 cycles

 The electronic state is 2-A.
 Alpha  occ. eigenvalues --  -14.20850 -14.20100 -14.18716 -10.10056 -10.09569
 Alpha  occ. eigenvalues --  -10.09201 -10.09149 -10.08755 -10.08690 -10.08135
 Alpha  occ. eigenvalues --  -10.06323 -10.06064 -10.05958 -10.05914  -0.84259
 Alpha  occ. eigenvalues --   -0.81363  -0.78688  -0.69004  -0.66901  -0.65522
 Alpha  occ. eigenvalues --   -0.60566  -0.59809  -0.58403  -0.52775  -0.52082
 Alpha  occ. eigenvalues --   -0.48763  -0.45659  -0.44174  -0.39794  -0.38453
 Alpha  occ. eigenvalues --   -0.37984  -0.37660  -0.36072  -0.34765  -0.34399
 Alpha  occ. eigenvalues --   -0.33678  -0.32457  -0.31603  -0.31130  -0.29920
 Alpha  occ. eigenvalues --   -0.29171  -0.28142  -0.27603  -0.27053  -0.25812
 Alpha  occ. eigenvalues --   -0.25391  -0.24280  -0.24176  -0.22865  -0.22569
 Alpha  occ. eigenvalues --   -0.21790  -0.21307  -0.14679  -0.12393  -0.11186
 Alpha  occ. eigenvalues --    0.04400
 Alpha virt. eigenvalues --    0.06441   0.06656   0.07564   0.08241   0.08603
 Alpha virt. eigenvalues --    0.09344   0.09491   0.10074   0.10707   0.10964
 Alpha virt. eigenvalues --    0.11705   0.11905   0.12095   0.12394   0.13078

  Beta  occ. eigenvalues --  -14.20840 -14.20102 -14.18697 -10.10054 -10.09562
  Beta  occ. eigenvalues --  -10.09178 -10.09136 -10.08736 -10.08681 -10.08120
  Beta  occ. eigenvalues --  -10.06303 -10.06045 -10.05936 -10.05897  -0.84243
  Beta  occ. eigenvalues --   -0.81346  -0.78660  -0.68973  -0.66870  -0.65491
  Beta  occ. eigenvalues --   -0.60528  -0.59774  -0.58370  -0.52730  -0.52032
  Beta  occ. eigenvalues --   -0.48714  -0.45621  -0.44137  -0.39757  -0.38423
  Beta  occ. eigenvalues --   -0.37956  -0.37629  -0.36045  -0.34730  -0.34361
  Beta  occ. eigenvalues --   -0.33643  -0.32429  -0.31578  -0.31094  -0.29893
  Beta  occ. eigenvalues --   -0.29147  -0.28119  -0.27578  -0.27016  -0.25781
  Beta  occ. eigenvalues --   -0.25364  -0.24250  -0.24152  -0.22840  -0.22545
  Beta  occ. eigenvalues --   -0.21759  -0.21265  -0.14659  -0.12344  -0.11175
  Beta virt. eigenvalues --    0.06467   0.07256   0.07469   0.08014   0.08872
  Beta virt. eigenvalues --    0.09145   0.09673   0.09841   0.10368   0.11134
  Beta virt. eigenvalues --    0.11394   0.11962   0.12241   0.12348   0.12696

 Mulliken charges and spin densities:
               1          2
     1  C    0.452672  -0.905787
     2  C   -0.014522   0.344246
     3  C    0.169407  -0.823185
     4  N    0.079955   0.179447
     5  C   -0.026536  -0.813547
     6  C   -0.653508   0.739927
     7  C   -0.276495   0.174267
     8  C    1.380904  -1.988703
     9  C   -0.079893  -0.201192
    10  C   -0.005617   0.050441
    11  N    0.189047   0.059131
    12  C   -0.557177  -0.671308
    13  C    0.471888  -0.714687
    14  N   -0.270016   0.069024
    15  H   -0.305646   0.447150
    16  H   -0.087300   0.238192
    17  H    0.093430   0.063853
    18  H    0.109325   0.048706
    19  H    0.084567   0.032266
    20  H    0.109035   0.010998
    21  H   -0.117628   0.291853
    22  H   -0.401702   0.558362
    23  H   -0.254262   0.411729
    24  H   -0.054821   0.191035
    25  H    0.079248   0.044021
    26  H   -0.277145   0.444806
    27  H   -0.601494   0.796769
    28  H   -0.058952   0.178721
    29  H   -0.112095   0.265725
    30  H   -0.346874   0.513480
    31  H    0.188829   0.014922
    32  H    0.340037  -0.175355
    33  H   -0.039556   0.154871
    34  H   -0.286052   0.426928
    35  H   -0.097801   0.229054
    36  H    0.024381   0.211115
    37  H    0.152370   0.102725
 Sum of Mulliken charges =  -1.00000   1.00000

 Dipole moment (field-independent basis, Debye):
    X=             -2.6344    Y=             -0.5663    Z=             -0.8167  Tot=              2.8157
 Quadrupole moment (field-independent basis, Debye-Ang):
   XX=           -156.8230   YY=           -148.3269   ZZ=           -124.8233
   XY=             -0.1875   XZ=             -0.9068   YZ=              2.4804

 Summary of Natural Population Analysis:

                                       Natural Population
                Natural  -----------------------------------------------
    Atom  No    Charge         Core      Valence    Rydberg      Total
 -----------------------------------------------------------------------
      C    1   -0.28770      0.99962     2.28119    0.00689     3.28770
      C    2    0.04238      0.99956     1.94404    0.01402     2.95762
      C    3   -0.07870      0.99955     2.06777    0.01138     3.07870
      N    4   -0.28763      0.99971     2.77623    0.01169     3.78763
      C    5   -0.08014      0.99958     2.06836    0.01221     3.08014
      C    6   -0.00439      0.99956     1.99122    0.01361     3.00439
      C    7   -0.19898      0.99960     2.19067    0.00870     3.19898
      C    8   -0.18829      0.99963     2.18023    0.00844     3.18829
      C    9   -0.20035      0.99962     2.19275    0.00798     3.20035
      C   10   -0.07929      0.99961     2.06754    0.01214     3.07929
      N   11   -0.29167      0.99972     2.77809    0.01386     3.79167
      C   12   -0.09776      0.99953     2.08473    0.01350     3.09776
      C   13   -0.17117      0.99965     2.16337    0.00815     3.17117
      N   14   -0.42716      0.99976     2.91736    0.01005     3.92716
      H   15    0.09857      0.00000     0.40038    0.00105     0.40143
      H   16    0.10281      0.00000     0.39607    0.00112     0.39719
      H   17    0.10210      0.00000     0.39694    0.00096     0.39790
      H   18    0.09676      0.00000     0.40196    0.00128     0.40324
      H   19    0.08932      0.00000     0.40903    0.00165     0.41068
      H   20    0.08302      0.00000     0.41552    0.00145     0.41698
      H   21    0.09842      0.00000     0.40004    0.00154     0.40158
      H   22    0.09433      0.00000     0.40393    0.00174     0.40567
      H   23    0.10023      0.00000     0.39849    0.00128     0.39977
      H   24    0.09776      0.00000     0.40059    0.00165     0.40224
      H   25    0.09181      0.00000     0.40669    0.00150     0.40819
      H   26    0.09852      0.00000     0.40034    0.00114     0.40148
      H   27    0.10052      0.00000     0.39790    0.00158     0.39948
      H   28    0.09446      0.00000     0.40418    0.00136     0.40554
      H   29    0.09164      0.00000     0.40693    0.00143     0.40836
      H   30    0.09637      0.00000     0.40229    0.00134     0.40363
      H   31    0.09727      0.00000     0.40097    0.00176     0.40273
      H   32    0.09623      0.00000     0.40124    0.00252     0.40377
      H   33    0.07854      0.00000     0.42034    0.00113     0.42146
      H   34    0.09649      0.00000     0.40230    0.00121     0.40351
      H   35    0.09454      0.00000     0.40452    0.00094     0.40546
      H   36    0.17213      0.00000     0.32603    0.00184     0.32787
      H   37    0.17902      0.00000     0.31866    0.00232     0.32098
 =======================================================================
   * Total *   -0.00000     13.99469    40.81889    0.18641    55.00000

 Normal termination of Gaussian 16 at Thu Dec 10 12:01:06 2020.
