 Gaussian 16, Revision A.03,

 -----------------------------------------------------------
 # opt freq B3LYP/6-31G(d) empiricaldispersion=gd3bj scf=xqc
 -----------------------------------------------------------

 ------------------------------
 CID_19428991_JID_8179_neutraal
 ------------------------------
 Symbolic Z-matrix:
 Charge =  0 Multiplicity = 1

 SCF Done:  E(RB3LYP) =  -883.590303582     A.U. after   14 cycles
 SCF Done:  E(RB3LYP) =  -883.595961461     A.U. after   13 cycles
 SCF Done:  E(RB3LYP) =  -883.595779163     A.U. after   14 cycles
 SCF Done:  E(RB3LYP) =  -883.598365088     A.U. after   13 cycles
 SCF Done:  E(RB3LYP) =  -883.597905285     A.U. after   14 cycles
 SCF Done:  E(RB3LYP) =  -883.598710093     A.U. after   13 cycles
 SCF Done:  E(RB3LYP) =  -883.599815974     A.U. after   13 cycles
 SCF Done:  E(RB3LYP) =  -883.599587635     A.U. after   12 cycles
 SCF Done:  E(RB3LYP) =  -883.599992009     A.U. after   12 cycles
 SCF Done:  E(RB3LYP) =  -883.600174799     A.U. after   12 cycles
 SCF Done:  E(RB3LYP) =  -883.600303281     A.U. after    8 cycles
 SCF Done:  E(RB3LYP) =  -883.600290412     A.U. after   11 cycles
 SCF Done:  E(RB3LYP) =  -883.600246200     A.U. after   12 cycles
 SCF Done:  E(RB3LYP) =  -883.600288819     A.U. after   12 cycles
 SCF Done:  E(RB3LYP) =  -883.600291632     A.U. after    9 cycles
 SCF Done:  E(RB3LYP) =  -883.600291336     A.U. after    7 cycles
 Optimization completed.
    -- Stationary point found.
 Normal termination of Gaussian 16 at Sun Dec 13 16:38:48 2020.

 --------------------------------------------------------------------
 #N Geom=AllCheck Guess=TCheck SCRF=Check GenChk RB3LYP/6-31G(d) Freq
 --------------------------------------------------------------------

 Structure from the checkpoint file:  "JID_8179.chk"
 ------------------------------
 CID_19428991_JID_8179_neutraal
 ------------------------------
 Charge =  0 Multiplicity = 1

 SCF Done:  E(RB3LYP) =  -883.600291336     A.U. after    1 cycles

  Exact polarizability: 160.450 -18.992 149.648  13.441  13.292 130.078
 Approx polarizability: 235.482 -21.181 208.588  24.230  35.682 204.570

 ******    1 imaginary frequencies (negative Signs) ******

                      1                      2                      3
                      A                      A                      A
 Frequencies --     -4.8942                32.9492                35.8674
 Red. masses --      4.1016                 3.0528                 3.7071
 Frc consts  --      0.0001                 0.0020                 0.0028
 IR Inten    --      0.3566                 1.2662                 0.1838

                      4                      5                      6
                      A                      A                      A
 Frequencies --     45.1050                67.9953                92.0464
 Red. masses --      4.6111                 4.5879                 7.4028
 Frc consts  --      0.0055                 0.0125                 0.0370
 IR Inten    --      1.5624                 0.9980                 1.0678

                      7                      8                      9
                      A                      A                      A
 Frequencies --     94.6915               115.7358               127.9972
 Red. masses --      3.3711                 5.8856                 5.9498
 Frc consts  --      0.0178                 0.0464                 0.0574
 IR Inten    --      0.1290                 0.8719                 2.5861

                     10                     11                     12
                      A                      A                      A
 Frequencies --    147.9003               168.5709               169.5598
 Red. masses --      5.2451                 1.6073                 1.0596
 Frc consts  --      0.0676                 0.0269                 0.0179
 IR Inten    --      4.0793                 0.6734                 0.4736

                     13                     14                     15
                      A                      A                      A
 Frequencies --    175.1048               200.1304               232.4939
 Red. masses --      1.8200                 4.0431                 1.1241
 Frc consts  --      0.0329                 0.0954                 0.0358
 IR Inten    --      1.1107                 1.4828                 0.3255

                     16                     17                     18
                      A                      A                      A
 Frequencies --    254.7623               278.0228               309.9946
 Red. masses --      2.5322                 3.6939                 2.7764
 Frc consts  --      0.0968                 0.1682                 0.1572
 IR Inten    --      3.9122                 1.5076                 3.4838

                     19                     20                     21
                      A                      A                      A
 Frequencies --    336.6408               349.1509               357.3347
 Red. masses --      3.3709                 3.0571                 3.0939
 Frc consts  --      0.2251                 0.2196                 0.2328
 IR Inten    --      4.1938                 8.3629                16.1442

                     22                     23                     24
                      A                      A                      A
 Frequencies --    373.7246               378.4200               379.9460
 Red. masses --      2.4242                 2.2087                 2.1760
 Frc consts  --      0.1995                 0.1864                 0.1851
 IR Inten    --     21.0682                25.8165                27.4148

                     25                     26                     27
                      A                      A                      A
 Frequencies --    398.4771               442.7026               464.2182
 Red. masses --      2.4179                 2.8097                 2.5443
 Frc consts  --      0.2262                 0.3244                 0.3230
 IR Inten    --     28.2104                 4.3195                 5.9115

                     28                     29                     30
                      A                      A                      A
 Frequencies --    490.1597               517.3346               556.6042
 Red. masses --      3.7517                 3.8871                 3.9594
 Frc consts  --      0.5311                 0.6129                 0.7227
 IR Inten    --     24.6774                 0.4852                 7.3141

                     31                     32                     33
                      A                      A                      A
 Frequencies --    584.1719               610.4051               649.8640
 Red. masses --      3.2161                 4.0777                 1.3807
 Frc consts  --      0.6466                 0.8952                 0.3435
 IR Inten    --      4.4375                 3.0118                26.1130

                     34                     35                     36
                      A                      A                      A
 Frequencies --    651.5119               689.3097               782.6284
 Red. masses --      1.4148                 4.2633                 2.7434
 Frc consts  --      0.3538                 1.1935                 0.9901
 IR Inten    --      2.6157                 2.7290                 7.2395

                     37                     38                     39
                      A                      A                      A
 Frequencies --    822.1159               828.3252               834.2017
 Red. masses --      2.8885                 2.5905                 3.2549
 Frc consts  --      1.1503                 1.0472                 1.3345
 IR Inten    --      6.4632                19.6701                 3.4305

                     40                     41                     42
                      A                      A                      A
 Frequencies --    861.4502               884.0248               917.4209
 Red. masses --      4.8600                 2.6383                 2.6038
 Frc consts  --      2.1249                 1.2148                 1.2912
 IR Inten    --      6.9865                 4.3667                21.5405

                     43                     44                     45
                      A                      A                      A
 Frequencies --    949.4035               959.5029               965.1214
 Red. masses --      2.3249                 2.1160                 1.3377
 Frc consts  --      1.2347                 1.1478                 0.7342
 IR Inten    --     48.4301                 2.8709                39.1587

                     46                     47                     48
                      A                      A                      A
 Frequencies --    969.6524               985.8607              1000.5626
 Red. masses --      1.3437                 2.2824                 2.1031
 Frc consts  --      0.7444                 1.3070                 1.2405
 IR Inten    --     33.3638                32.4788                58.1898

                     49                     50                     51
                      A                      A                      A
 Frequencies --   1025.3097              1031.6715              1042.2069
 Red. masses --      1.5551                 1.5481                 1.8595
 Frc consts  --      0.9632                 0.9708                 1.1901
 IR Inten    --      2.6692                 9.3029                86.0845

                     52                     53                     54
                      A                      A                      A
 Frequencies --   1045.9119              1086.1739              1086.5473
 Red. masses --      1.6223                 1.5335                 1.5489
 Frc consts  --      1.0456                 1.0659                 1.0774
 IR Inten    --     18.6807                 9.2245                 5.8904

                     55                     56                     57
                      A                      A                      A
 Frequencies --   1087.3207              1119.8513              1154.3687
 Red. masses --      2.1795                 4.2961                 2.2535
 Frc consts  --      1.5182                 3.1743                 1.7693
 IR Inten    --     56.9074               115.8007                 9.8789

                     58                     59                     60
                      A                      A                      A
 Frequencies --   1176.2207              1191.8325              1210.9898
 Red. masses --      2.8918                 1.9723                 3.3353
 Frc consts  --      2.3572                 1.6506                 2.8818
 IR Inten    --    204.1754                62.7563               298.8020

                     61                     62                     63
                      A                      A                      A
 Frequencies --   1266.5848              1295.8096              1336.4483
 Red. masses --      1.1879                 1.3570                 1.2286
 Frc consts  --      1.1228                 1.3425                 1.2929
 IR Inten    --      7.9167                22.7453                16.5492

                     64                     65                     66
                      A                      A                      A
 Frequencies --   1351.9373              1357.8392              1366.2963
 Red. masses --      2.6062                 2.0738                 2.0117
 Frc consts  --      2.8065                 2.2527                 2.2126
 IR Inten    --     52.0700                60.9844               106.2473

                     67                     68                     69
                      A                      A                      A
 Frequencies --   1384.6406              1413.2911              1433.7666
 Red. masses --      1.4033                 1.3940                 1.2523
 Frc consts  --      1.5851                 1.6405                 1.5168
 IR Inten    --     17.5392                 5.9418                 4.2217

                     70                     71                     72
                      A                      A                      A
 Frequencies --   1435.3823              1439.5942              1444.4482
 Red. masses --      1.2733                 1.2305                 1.4318
 Frc consts  --      1.5457                 1.5024                 1.7601
 IR Inten    --      5.7381                 5.0210                14.6160

                     73                     74                     75
                      A                      A                      A
 Frequencies --   1461.6497              1463.3000              1464.8104
 Red. masses --      1.2358                 1.2448                 1.2235
 Frc consts  --      1.5556                 1.5704                 1.5468
 IR Inten    --      1.7541                 7.8175                25.0712

                     76                     77                     78
                      A                      A                      A
 Frequencies --   1489.5599              1502.8809              1502.9267
 Red. masses --      1.4190                 1.0448                 1.0446
 Frc consts  --      1.8551                 1.3904                 1.3902
 IR Inten    --     14.8220                 4.0146                 9.5562

                     79                     80                     81
                      A                      A                      A
 Frequencies --   1509.5176              1518.6091              1519.3451
 Red. masses --      1.0893                 1.0595                 1.0544
 Frc consts  --      1.4624                 1.4396                 1.4340
 IR Inten    --      5.0406                 7.5121                10.9295

                     82                     83                     84
                      A                      A                      A
 Frequencies --   1521.1675              1527.7990              1548.1415
 Red. masses --      1.0829                 1.0639                 1.0639
 Frc consts  --      1.4764                 1.4631                 1.5023
 IR Inten    --     25.0186                 4.6064                 8.3855

                     85                     86                     87
                      A                      A                      A
 Frequencies --   1718.5740              1719.9950              1779.7861
 Red. masses --      5.2431                 5.1388                10.4249
 Frc consts  --      9.1237                 8.9571                19.4562
 IR Inten    --     23.2688                20.9052               186.1852

                     88                     89                     90
                      A                      A                      A
 Frequencies --   1797.1637              3047.6553              3052.6813
 Red. masses --     11.5528                 1.0647                 1.0428
 Frc consts  --     21.9842                 5.8266                 5.7258
 IR Inten    --    207.5455                15.3281                25.6719

                     91                     92                     93
                      A                      A                      A
 Frequencies --   3056.4153              3058.2388              3093.5959
 Red. masses --      1.0362                 1.0358                 1.0631
 Frc consts  --      5.7033                 5.7081                 5.9943
 IR Inten    --     14.8412                16.0814                48.8137

                     94                     95                     96
                      A                      A                      A
 Frequencies --   3102.2928              3111.8124              3112.3834
 Red. masses --      1.0876                 1.0996                 1.0941
 Frc consts  --      6.1670                 6.2733                 6.2444
 IR Inten    --      3.5438                15.1736                 7.6380

                     97                     98                     99
                      A                      A                      A
 Frequencies --   3114.7751              3118.5891              3124.7110
 Red. masses --      1.0998                 1.0933                 1.0915
 Frc consts  --      6.2869                 6.2645                 6.2791
 IR Inten    --     12.2989                16.9238                25.2388

                    100                    101                    102
                      A                      A                      A
 Frequencies --   3140.7827              3141.0925              3141.4885
 Red. masses --      1.1003                 1.1036                 1.1039
 Frc consts  --      6.3949                 6.4156                 6.4186
 IR Inten    --     20.2663                13.4718                17.7539

                    103                    104                    105
                      A                      A                      A
 Frequencies --   3157.5937              3178.0301              3178.8860
 Red. masses --      1.1027                 1.0638                 1.0633
 Frc consts  --      6.4779                 6.3303                 6.3305
 IR Inten    --      9.1352                 0.7782                17.8395

                    106                    107                    108
                      A                      A                      A
 Frequencies --   3275.0205              3281.8658              3743.8942
 Red. masses --      1.1135                 1.1114                 1.0661
 Frc consts  --      7.0368                 7.0526                 8.8043
 IR Inten    --      4.0700                 6.1635                19.9452

 - Thermochemistry -
 -------------------
 Temperature   298.150 Kelvin.  Pressure   1.00000 Atm.
 Atom     1 has atomic number  6 and mass  12.00000

 Molecular mass:   256.13107 amu.
 Principal axes and moments of inertia in atomic units:
                           1         2         3
     Eigenvalues --  4129.967134341.875196530.30974
           X            0.82299  -0.56765   0.02139
           Y            0.56761   0.82326   0.00836
           Z           -0.02235   0.00526   0.99974
 This molecule is an asymmetric top.
 Rotational symmetry number  1.
 Warning -- assumption of classical behavior for rotation
           may cause significant error
 Rotational temperatures (Kelvin)      0.02097     0.01995     0.01326
 Rotational constants (GHZ):           0.43699     0.41566     0.27636
    1 imaginary frequencies ignored.
 Zero-point vibrational energy     840978.6 (Joules/Mol)
                                  200.99872 (Kcal/Mol)
 Warning -- explicit consideration of  31 degrees of freedom as
           vibrations may cause significant error
 Vibrational temperatures:     47.41    51.61    64.90    97.83   132.43
          (Kelvin)            136.24   166.52   184.16   212.80   242.54
                              243.96   251.94   287.94   334.51   366.55
                              400.01   446.01   484.35   502.35   514.12
                              537.71   544.46   546.66   573.32   636.95
                              667.91   705.23   744.33   800.83   840.49
                              878.24   935.01   937.38   991.76  1126.03
                             1182.84  1191.78  1200.23  1239.43  1271.91
                             1319.96  1365.98  1380.51  1388.59  1395.11
                             1418.43  1439.59  1475.19  1484.35  1499.50
                             1504.83  1562.76  1563.30  1564.41  1611.22
                             1660.88  1692.32  1714.78  1742.34  1822.33
                             1864.38  1922.85  1945.14  1953.63  1965.80
                             1992.19  2033.41  2062.87  2065.20  2071.25
                             2078.24  2102.99  2105.36  2107.54  2143.14
                             2162.31  2162.38  2171.86  2184.94  2186.00
                             2188.62  2198.16  2227.43  2472.64  2474.69
                             2560.72  2585.72  4384.90  4392.13  4397.50
                             4400.12  4450.99  4463.51  4477.20  4478.03
                             4481.47  4486.95  4495.76  4518.89  4519.33
                             4519.90  4543.07  4572.48  4573.71  4712.02
                             4721.87  5386.63

 Zero-point correction=                           0.320312 (Hartree/Particle)
 Thermal correction to Energy=                    0.339722
 Thermal correction to Enthalpy=                  0.340666
 Thermal correction to Gibbs Free Energy=         0.272286
 Sum of electronic and zero-point Energies=           -883.279979
 Sum of electronic and thermal Energies=              -883.260570
 Sum of electronic and thermal Enthalpies=            -883.259625
 Sum of electronic and thermal Free Energies=         -883.328005

                     E (Thermal)             CV                S
                      KCal/Mol        Cal/Mol-Kelvin    Cal/Mol-Kelvin
 Total                  213.179             72.082            143.917
 Electronic               0.000              0.000              0.000
 Translational            0.889              2.981             42.522
 Rotational               0.889              2.981             33.126
 Vibrational            211.401             66.121             68.270
 Vibration     1          0.594              1.983              5.643
 Vibration     2          0.594              1.982              5.475
 Vibration     3          0.595              1.979              5.021
 Vibration     4          0.598              1.969              4.211
 Vibration     5          0.602              1.955              3.616
 Vibration     6          0.603              1.953              3.561
 Vibration     7          0.608              1.936              3.170
 Vibration     8          0.611              1.925              2.976
 Vibration     9          0.617              1.905              2.699
 Vibration    10          0.625              1.881              2.451
 Vibration    11          0.625              1.880              2.440
 Vibration    12          0.627              1.873              2.380
 Vibration    13          0.638              1.840              2.132
 Vibration    14          0.653              1.791              1.860
 Vibration    15          0.665              1.755              1.697
 Vibration    16          0.679              1.714              1.546
 Vibration    17          0.699              1.655              1.362
 Vibration    18          0.717              1.602              1.228
 Vibration    19          0.726              1.577              1.170
 Vibration    20          0.733              1.560              1.134
 Vibration    21          0.745              1.526              1.064
 Vibration    22          0.749              1.516              1.045
 Vibration    23          0.750              1.513              1.039
 Vibration    24          0.765              1.473              0.968
 Vibration    25          0.802              1.377              0.818
 Vibration    26          0.822              1.329              0.754
 Vibration    27          0.846              1.272              0.683
 Vibration    28          0.872              1.212              0.616
 Vibration    29          0.912              1.125              0.531
 Vibration    30          0.941              1.066              0.478
 Vibration    31          0.969              1.010              0.432

                           ! Non-Optimized Parameters !
 Normal termination of Gaussian 16 at Sun Dec 13 16:58:13 2020.

 ----------------------------------------------------------------------
 # B3LYP/6-311++G(d,p) empiricaldispersion=gd3bj scf=xqc pop=npa geom=c
 heck
 ----------------------------------------------------------------------

 --------------------------------------
 CID_19428991_JID_8179_Energie_neutraal
 --------------------------------------
 Structure from the checkpoint file:  "JID_8179.chk"
 Charge =  0 Multiplicity = 1

 SCF Done:  E(RB3LYP) =  -883.865349237     A.U. after   16 cycles
 Normal termination of Gaussian 16 at Sun Dec 13 17:07:25 2020.

 ----------------------------------------------------------------------
 # B3LYP/6-311++G(d,p) empiricaldispersion=gd3bj scf=xqc pop=npa geom=c
 heck
 ----------------------------------------------------------------------

 ------------------------------------
 CID_19428991_JID_8179_Energie_kation
 ------------------------------------
 Structure from the checkpoint file:  "JID_8179.chk"
 Charge =  1 Multiplicity = 2

 SCF Done:  E(UB3LYP) =  -883.536607939     A.U. after   29 cycles
 Normal termination of Gaussian 16 at Sun Dec 13 17:29:59 2020.
 Gaussian 16:  ES64L-G16RevA.03 25-Dec-2016

 ----------------------------------------------------------------------
 # B3LYP/6-311++G(d,p) empiricaldispersion=gd3bj scf=xqc pop=npa geom=c
 heck
 ----------------------------------------------------------------------

 -----------------------------------
 CID_19428991_JID_8179_Energie_anion
 -----------------------------------
 Structure from the checkpoint file:  "JID_8179.chk"
 Charge = -1 Multiplicity = 2

                         Standard orientation:
 ---------------------------------------------------------------------
 Center     Atomic      Atomic             Coordinates (Angstroms)
 Number     Number       Type             X           Y           Z
 ---------------------------------------------------------------------
      1          6           0       -2.715900    2.430760    0.309808
      2          6           0       -2.194247    1.057233   -0.140236
      3          6           0       -1.507923    1.124457   -1.518528
      4          6           0       -0.244085    1.971634   -1.667813
      5          8           0        0.942573    1.213576   -1.341323
      6          6           0        1.582726    1.492390   -0.191139
      7          8           0        1.227218    2.353743    0.596505
      8          6           0        2.784854    0.638960    0.035266
      9          6           0        3.147022   -0.298010   -0.848720
     10          6           0        3.517472    0.911073    1.320232
     11          6           0       -1.346031    0.479496    0.997015
     12          8           0       -2.215403    0.079876    2.016380
     13          8           0       -0.452375   -0.612888    0.643300
     14          6           0       -0.933364   -1.737450    0.059784
     15          8           0       -2.055465   -1.857820   -0.389831
     16          6           0        0.079719   -2.834310   -0.001309
     17          6           0        1.257989   -2.729385    0.624788
     18          6           0       -0.350256   -4.042866   -0.787158
     19          1           0       -1.894461    3.135215    0.486893
     20          1           0       -3.283941    2.338395    1.239350
     21          1           0       -3.374125    2.861189   -0.452925
     22          1           0       -3.044433    0.379959   -0.254257
     23          1           0       -1.293089    0.115219   -1.881015
     24          1           0       -2.251107    1.541640   -2.210927
     25          1           0       -0.107718    2.250323   -2.716039
     26          1           0       -0.264467    2.876474   -1.058767
     27          1           0        4.020615   -0.921107   -0.677677
     28          1           0        2.579874   -0.471234   -1.755195
     29          1           0        3.845206    1.954956    1.371907
     30          1           0        2.858989    0.752376    2.182017
     31          1           0        4.390313    0.259823    1.417887
     32          1           0       -0.629031    1.224902    1.349557
     33          1           0       -1.686876   -0.065390    2.816568
     34          1           0        1.985012   -3.536414    0.588407
     35          1           0        1.526207   -1.841576    1.182766
     36          1           0       -1.269426   -4.469111   -0.371306
     37          1           0       -0.578073   -3.772793   -1.824530
     38          1           0        0.430274   -4.808625   -0.784902
 ---------------------------------------------------------------------

 SCF Done:  E(UB3LYP) =  -883.871859544     A.U. after   28 cycles

 The electronic state is 2-A.
 Alpha  occ. eigenvalues --  -19.02512 -19.02348 -19.01885 -18.95763 -18.95455
 Alpha  occ. eigenvalues --  -10.15514 -10.14070 -10.14068 -10.10784 -10.06449
 Alpha  occ. eigenvalues --  -10.05933 -10.05681 -10.04028 -10.03977 -10.03427
 Alpha  occ. eigenvalues --  -10.03308 -10.01962 -10.01869  -0.97216  -0.96288
 Alpha  occ. eigenvalues --   -0.92181  -0.87396  -0.86741  -0.70430  -0.66789
 Alpha  occ. eigenvalues --   -0.66487  -0.62948  -0.58423  -0.56250  -0.55307
 Alpha  occ. eigenvalues --   -0.54267  -0.50185  -0.47342  -0.45256  -0.43048
 Alpha  occ. eigenvalues --   -0.42124  -0.39438  -0.36610  -0.35866  -0.34651
 Alpha  occ. eigenvalues --   -0.34212  -0.33790  -0.33382  -0.31937  -0.31300
 Alpha  occ. eigenvalues --   -0.30854  -0.29862  -0.29121  -0.28667  -0.28636
 Alpha  occ. eigenvalues --   -0.28311  -0.26870  -0.26665  -0.26237  -0.25551
 Alpha  occ. eigenvalues --   -0.24638  -0.23317  -0.22941  -0.22658  -0.22582
 Alpha  occ. eigenvalues --   -0.21066  -0.20505  -0.19294  -0.17519  -0.16676
 Alpha  occ. eigenvalues --   -0.13852  -0.13730  -0.12814  -0.12058   0.04798
 Alpha virt. eigenvalues --    0.07653   0.08024   0.08671   0.09026   0.09474
 Alpha virt. eigenvalues --    0.10025   0.10921   0.11111   0.11644   0.12685
 Alpha virt. eigenvalues --    0.12826   0.12894   0.13379   0.13570   0.14132

  Beta  occ. eigenvalues --  -19.02498 -19.02315 -19.01853 -18.95561 -18.95255
  Beta  occ. eigenvalues --  -10.15512 -10.13889 -10.13865 -10.10787 -10.06450
  Beta  occ. eigenvalues --  -10.05926 -10.05680 -10.04038 -10.03986 -10.03303
  Beta  occ. eigenvalues --  -10.03181 -10.01749 -10.01634  -0.97095  -0.96095
  Beta  occ. eigenvalues --   -0.92035  -0.87097  -0.86492  -0.70398  -0.66437
  Beta  occ. eigenvalues --   -0.66143  -0.62900  -0.58359  -0.56115  -0.55094
  Beta  occ. eigenvalues --   -0.54044  -0.49915  -0.46889  -0.44923  -0.43005
  Beta  occ. eigenvalues --   -0.41959  -0.39309  -0.36522  -0.35732  -0.34434
  Beta  occ. eigenvalues --   -0.34012  -0.33558  -0.33145  -0.31595  -0.30919
  Beta  occ. eigenvalues --   -0.30710  -0.29670  -0.28958  -0.28573  -0.28507
  Beta  occ. eigenvalues --   -0.28192  -0.26800  -0.26355  -0.25929  -0.25440
  Beta  occ. eigenvalues --   -0.24527  -0.23232  -0.22785  -0.22500  -0.22401
  Beta  occ. eigenvalues --   -0.20995  -0.20313  -0.19227  -0.16936  -0.16093
  Beta  occ. eigenvalues --   -0.13624  -0.12647  -0.12309  -0.10763
  Beta virt. eigenvalues --    0.07697   0.08272   0.08896   0.09209   0.09876
  Beta virt. eigenvalues --    0.09970   0.10501   0.10871   0.11044   0.12001
  Beta virt. eigenvalues --    0.12608   0.12775   0.13011   0.13359   0.13489

 Mulliken charges and spin densities:
               1          2
     1  C   -0.668196  -0.002492
     2  C    0.543364   0.025245
     3  C   -0.270238  -0.052462
     4  C   -0.264429   0.008881
     5  O    0.067511  -0.000630
     6  C   -0.752757   0.109915
     7  O   -0.250996   0.070031
     8  C    1.023062   0.023015
     9  C   -0.804533   0.297428
    10  C   -0.639770  -0.000007
    11  C   -0.757826  -0.011578
    12  O   -0.182078  -0.004828
    13  O    0.178098  -0.007496
    14  C   -0.470495   0.102276
    15  O   -0.254730   0.072990
    16  C    0.995465   0.004741
    17  C   -0.991327   0.265212
    18  C   -0.629673   0.021643
    19  H    0.148467  -0.000269
    20  H    0.152323   0.002880
    21  H    0.111893   0.002067
    22  H    0.296791  -0.001577
    23  H    0.206285  -0.001180
    24  H    0.103140   0.037065
    25  H    0.139667   0.008170
    26  H    0.179098  -0.004074
    27  H    0.098183  -0.018622
    28  H    0.147752  -0.010321
    29  H    0.124321   0.022094
    30  H    0.144734   0.005408
    31  H    0.109764   0.003264
    32  H    0.294225  -0.009652
    33  H    0.212071   0.035440
    34  H    0.095039  -0.014089
    35  H    0.163838   0.000472
    36  H    0.143187   0.011849
    37  H    0.145254   0.009600
    38  H    0.113517  -0.000408
 Sum of Mulliken charges =  -1.00000   1.00000

 Dipole moment (field-independent basis, Debye):
    X=             -1.6984    Y=              2.2829    Z=             -0.1603  Tot=              2.8499
 Quadrupole moment (field-independent basis, Debye-Ang):
   XX=           -146.0766   YY=           -141.5465   ZZ=           -116.8269
   XY=            -10.9698   XZ=              2.4789   YZ=             -3.4513

 Summary of Natural Population Analysis:

                                       Natural Population
                Natural  -----------------------------------------------
    Atom  No    Charge         Core      Valence    Rydberg      Total
 -----------------------------------------------------------------------
      C    1   -0.28792      0.99965     2.28362    0.00464     3.28792
      C    2   -0.13310      0.99957     2.12236    0.01118     3.13310
      C    3   -0.19930      0.99960     2.19226    0.00744     3.19930
      C    4   -0.01769      0.99956     2.00829    0.00984     3.01769
      O    5   -0.28358      0.99986     3.27410    0.00962     4.28358
      C    6    0.42419      0.99961     1.55138    0.02483     2.57581
      O    7   -0.31936      0.99987     3.31441    0.00507     4.31936
      C    8   -0.05441      0.99948     2.04309    0.01184     3.05441
      C    9   -0.11057      0.99954     2.10471    0.00632     3.11057
      C   10   -0.29182      0.99964     2.28726    0.00492     3.29182
      C   11    0.20981      0.99952     1.77081    0.01987     2.79019
      O   12   -0.36415      0.99988     3.35896    0.00531     4.36415
      O   13   -0.29376      0.99986     3.28366    0.01024     4.29376
      C   14    0.41523      0.99961     1.55909    0.02607     2.58477
      O   15   -0.30355      0.99987     3.29890    0.00477     4.30355
      C   16   -0.05536      0.99948     2.04575    0.01012     3.05536
      C   17   -0.11784      0.99953     2.10991    0.00840     3.11784
      C   18   -0.29135      0.99964     2.28688    0.00483     3.29135
      H   19    0.09947      0.00000     0.39951    0.00101     0.40053
      H   20    0.10372      0.00000     0.39548    0.00079     0.39628
      H   21    0.09296      0.00000     0.40620    0.00084     0.40704
      H   22    0.11624      0.00000     0.38238    0.00137     0.38376
      H   23    0.11529      0.00000     0.38367    0.00104     0.38471
      H   24    0.09279      0.00000     0.40574    0.00147     0.40721
      H   25    0.08375      0.00000     0.41520    0.00105     0.41625
      H   26    0.09708      0.00000     0.40160    0.00132     0.40292
      H   27    0.08182      0.00000     0.41720    0.00099     0.41818
      H   28    0.09796      0.00000     0.40115    0.00089     0.40204
      H   29    0.10072      0.00000     0.39791    0.00137     0.39928
      H   30    0.10157      0.00000     0.39718    0.00124     0.39843
      H   31    0.09256      0.00000     0.40656    0.00088     0.40744
      H   32    0.09169      0.00000     0.40680    0.00151     0.40831
      H   33    0.22867      0.00000     0.26830    0.00303     0.27133
      H   34    0.08075      0.00000     0.41837    0.00088     0.41925
      H   35    0.10184      0.00000     0.39727    0.00090     0.39816
      H   36    0.10268      0.00000     0.39626    0.00105     0.39732
      H   37    0.10095      0.00000     0.39805    0.00100     0.39905
      H   38    0.09202      0.00000     0.40717    0.00082     0.40798
 =======================================================================
   * Total *    0.00000     17.99377    50.79745    0.20878    69.00000

 Normal termination of Gaussian 16 at Sun Dec 13 17:51:02 2020.
