 Gaussian 16, Revision A.03,

 -----------------------------------------------------------
 # opt freq B3LYP/6-31G(d) empiricaldispersion=gd3bj scf=xqc
 -----------------------------------------------------------

 -----------------------------
 CID_21793077_JID_896_neutraal
 -----------------------------
 Symbolic Z-matrix:
 Charge =  0 Multiplicity = 1

 SCF Done:  E(RB3LYP) =  -778.080146638     A.U. after   15 cycles
 SCF Done:  E(RB3LYP) =  -778.084789281     A.U. after   12 cycles
 SCF Done:  E(RB3LYP) =  -778.085176159     A.U. after   11 cycles
 SCF Done:  E(RB3LYP) =  -778.085196385     A.U. after   10 cycles
 SCF Done:  E(RB3LYP) =  -778.085199800     A.U. after    9 cycles
 SCF Done:  E(RB3LYP) =  -778.085200343     A.U. after    8 cycles
 SCF Done:  E(RB3LYP) =  -778.085200838     A.U. after    8 cycles
 SCF Done:  E(RB3LYP) =  -778.085201239     A.U. after    7 cycles
 SCF Done:  E(RB3LYP) =  -778.085201420     A.U. after    7 cycles
 SCF Done:  E(RB3LYP) =  -778.085201543     A.U. after    7 cycles
 Optimization completed.
    -- Stationary point found.
 Normal termination of Gaussian 16 at Tue Dec  8 13:10:48 2020.

 --------------------------------------------------------------------
 #N Geom=AllCheck Guess=TCheck SCRF=Check GenChk RB3LYP/6-31G(d) Freq
 --------------------------------------------------------------------

 Structure from the checkpoint file:  "JID_896.chk"
 -----------------------------
 CID_21793077_JID_896_neutraal
 -----------------------------
 Charge =  0 Multiplicity = 1

 SCF Done:  E(RB3LYP) =  -778.085201543     A.U. after    1 cycles

  Exact polarizability: 148.382  -2.546  99.733   0.001  -0.001  44.124
 Approx polarizability: 245.550 -14.124 187.999   0.001  -0.004  69.736

                      1                      2                      3
                      A                      A                      A
 Frequencies --    117.8170               142.3441               186.7925
 Red. masses --      2.0591                 1.3729                 6.8802
 Frc consts  --      0.0168                 0.0164                 0.1414
 IR Inten    --      0.3058                 0.0110                 0.1458

                      4                      5                      6
                      A                      A                      A
 Frequencies --    250.7342               301.5917               399.9966
 Red. masses --      3.2830                 3.8072                 6.3280
 Frc consts  --      0.1216                 0.2040                 0.5965
 IR Inten    --      0.4571                 0.4338                 0.4509

                      7                      8                      9
                      A                      A                      A
 Frequencies --    430.7553               474.9458               498.6856
 Red. masses --      4.2692                 5.6456                10.9371
 Frc consts  --      0.4667                 0.7503                 1.6025
 IR Inten    --      1.8880                 0.1621                 4.0047

                     10                     11                     12
                      A                      A                      A
 Frequencies --    511.1513               595.6624               660.7694
 Red. masses --      4.1472                 3.7325                 5.2790
 Frc consts  --      0.6384                 0.7803                 1.3580
 IR Inten    --      7.7293                 2.6261                 4.4325

                     13                     14                     15
                      A                      A                      A
 Frequencies --    684.5657               737.7337               775.4783
 Red. masses --      6.8261                 7.7782                 3.6990
 Frc consts  --      1.8847                 2.4942                 1.3106
 IR Inten    --      3.4959                16.3269                15.0122

                     16                     17                     18
                      A                      A                      A
 Frequencies --    837.2789               887.5735               933.7300
 Red. masses --      1.4083                 7.1110                 1.5062
 Frc consts  --      0.5817                 3.3006                 0.7737
 IR Inten    --      9.4668                18.6946                 7.0666

                     19                     20                     21
                      A                      A                      A
 Frequencies --    984.9104              1018.3609              1073.2743
 Red. masses --      1.4745                 1.6229                 1.4282
 Frc consts  --      0.8427                 0.9916                 0.9693
 IR Inten    --      0.5345                 1.1717                 1.6890

                     22                     23                     24
                      A                      A                      A
 Frequencies --   1130.0151              1145.0530              1175.9193
 Red. masses --      4.2817                 2.6035                 3.7277
 Frc consts  --      3.2213                 2.0112                 3.0370
 IR Inten    --      9.6235                 2.9979                24.8634

                     25                     26                     27
                      A                      A                      A
 Frequencies --   1248.0469              1276.4790              1288.7161
 Red. masses --      1.7006                 5.0195                 4.1142
 Frc consts  --      1.5607                 4.8187                 4.0258
 IR Inten    --      6.1666                 7.5338                 1.3984

                     28                     29                     30
                      A                      A                      A
 Frequencies --   1370.5095              1423.6085              1443.8082
 Red. masses --      1.9288                 2.7557                 1.2423
 Frc consts  --      2.1346                 3.2905                 1.5258
 IR Inten    --     14.6869               110.1947                 1.5721

                     31                     32                     33
                      A                      A                      A
 Frequencies --   1472.0584              1505.4721              1517.9112
 Red. masses --      2.1067                 1.0418                 1.1133
 Frc consts  --      2.6897                 1.3912                 1.5112
 IR Inten    --     17.2004                 8.9882                 9.7993

                     34                     35                     36
                      A                      A                      A
 Frequencies --   1569.0780              1618.5268              1626.9633
 Red. masses --      6.0309                 5.9624                 6.0955
 Frc consts  --      8.7482                 9.2026                 9.5064
 IR Inten    --     45.8331                31.8496                37.4854

                     37                     38                     39
                      A                      A                      A
 Frequencies --   3049.2214              3103.3148              3135.7009
 Red. masses --      1.0363                 1.1015                 1.1015
 Frc consts  --      5.6772                 6.2499                 6.3809
 IR Inten    --     25.5194                11.4316                10.8903

                     40                     41                     42
                      A                      A                      A
 Frequencies --   3168.7649              3203.6121              3218.5274
 Red. masses --      1.0909                 1.0912                 1.0932
 Frc consts  --      6.4537                 6.5986                 6.6721
 IR Inten    --     22.2231                25.1400                 6.2044

 - Thermochemistry -
 -------------------
 Temperature   298.150 Kelvin.  Pressure   1.00000 Atm.
 Atom     1 has atomic number  6 and mass  12.00000

 Molecular mass:   150.02517 amu.
 Principal axes and moments of inertia in atomic units:
                           1         2         3
     Eigenvalues --   602.523742010.259032601.54061
           X            0.99977   0.02133   0.00000
           Y           -0.02133   0.99977  -0.00000
           Z           -0.00000   0.00000   1.00000
 This molecule is an asymmetric top.
 Rotational symmetry number  1.
 Warning -- assumption of classical behavior for rotation
           may cause significant error
 Rotational temperatures (Kelvin)      0.14375     0.04309     0.03329
 Rotational constants (GHZ):           2.99530     0.89777     0.69372
 Zero-point vibrational energy     312198.2 (Joules/Mol)
                                   74.61715 (Kcal/Mol)
 Warning -- explicit consideration of  11 degrees of freedom as
           vibrations may cause significant error
 Vibrational temperatures:    169.51   204.80   268.75   360.75   433.92
          (Kelvin)            575.51   619.76   683.34   717.50   735.43
                              857.03   950.70   984.94  1061.43  1115.74
                             1204.66  1277.02  1343.43  1417.07  1465.19
                             1544.20  1625.84  1647.48  1691.89  1795.66
                             1836.57  1854.17  1971.86  2048.26  2077.32
                             2117.96  2166.04  2183.94  2257.55  2328.70
                             2340.84  4387.15  4464.98  4511.57  4559.15
                             4609.28  4630.74

 Zero-point correction=                           0.118910 (Hartree/Particle)
 Thermal correction to Energy=                    0.126874
 Thermal correction to Enthalpy=                  0.127818
 Thermal correction to Gibbs Free Energy=         0.085870
 Sum of electronic and zero-point Energies=           -777.966292
 Sum of electronic and thermal Energies=              -777.958328
 Sum of electronic and thermal Enthalpies=            -777.957384
 Sum of electronic and thermal Free Energies=         -777.999331

                     E (Thermal)             CV                S
                      KCal/Mol        Cal/Mol-Kelvin    Cal/Mol-Kelvin
 Total                   79.614             30.528             88.287
 Electronic               0.000              0.000              0.000
 Translational            0.889              2.981             40.927
 Rotational               0.889              2.981             29.534
 Vibrational             77.837             24.567             17.825
 Vibration     1          0.608              1.935              3.136
 Vibration     2          0.616              1.911              2.772
 Vibration     3          0.632              1.858              2.259
 Vibration     4          0.663              1.762              1.725
 Vibration     5          0.694              1.671              1.408
 Vibration     6          0.766              1.470              0.963
 Vibration     7          0.792              1.403              0.856
 Vibration     8          0.832              1.306              0.724
 Vibration     9          0.854              1.253              0.661
 Vibration    10          0.866              1.225              0.631
 Vibration    11          0.953              1.041              0.457

 Optimization completed.
    -- Stationary point found.
 Normal termination of Gaussian 16 at Tue Dec  8 13:23:31 2020.

 ----------------------------------------------------------------------
 # B3LYP/6-311++G(d,p) empiricaldispersion=gd3bj scf=xqc pop=npa geom=c
 heck
 ----------------------------------------------------------------------

 -------------------------------------
 CID_21793077_JID_896_Energie_neutraal
 -------------------------------------
 Structure from the checkpoint file:  "JID_896.chk"
 Charge =  0 Multiplicity = 1

 SCF Done:  E(RB3LYP) =  -778.207318052     A.U. after   16 cycles
 Normal termination of Gaussian 16 at Tue Dec  8 13:27:01 2020.

 ----------------------------------------------------------------------
 # B3LYP/6-311++G(d,p) empiricaldispersion=gd3bj scf=xqc pop=npa geom=c
 heck
 ----------------------------------------------------------------------

 -----------------------------------
 CID_21793077_JID_896_Energie_kation
 -----------------------------------
 Structure from the checkpoint file:  "JID_896.chk"
 Charge =  1 Multiplicity = 2

 SCF Done:  E(UB3LYP) =  -777.889253539     A.U. after   24 cycles
 Normal termination of Gaussian 16 at Tue Dec  8 13:31:39 2020.
 Gaussian 16:  ES64L-G16RevA.03 25-Dec-2016

 ----------------------------------------------------------------------
 # B3LYP/6-311++G(d,p) empiricaldispersion=gd3bj scf=xqc pop=npa geom=c
 heck
 ----------------------------------------------------------------------

 ----------------------------------
 CID_21793077_JID_896_Energie_anion
 ----------------------------------
 Structure from the checkpoint file:  "JID_896.chk"
 Charge = -1 Multiplicity = 2

                         Standard orientation:
 ---------------------------------------------------------------------
 Center     Atomic      Atomic             Coordinates (Angstroms)
 Number     Number       Type             X           Y           Z
 ---------------------------------------------------------------------
      1          6           0        3.354210    0.484747    0.000181
      2          6           0        1.865726    0.333744   -0.000040
      3          6           0        0.926206    1.318427   -0.000121
      4          6           0       -0.418937    0.815571   -0.000040
      5          6           0       -1.670040    1.443697   -0.000027
      6          7           0       -2.809290    0.749203    0.000032
      7          6           0       -2.706050   -0.590328    0.000090
      8          7           0       -1.584485   -1.318238    0.000074
      9          6           0       -0.466343   -0.600131    0.000025
     10         16           0        1.152011   -1.286883   -0.000109
     11          1           0        3.621577    1.545461   -0.000966
     12          1           0        3.806010    0.017419   -0.882839
     13          1           0        3.805509    0.019474    0.884553
     14          1           0        1.178318    2.373545   -0.000182
     15          1           0       -1.755886    2.529663   -0.000070
     16          1           0       -3.639911   -1.146564    0.000104
 ---------------------------------------------------------------------

 SCF Done:  E(UB3LYP) =  -778.203807493     A.U. after   33 cycles
 SCF Done:  E(UB3LYP) =  -778.203807493     a.u. after    1 cycles

 The electronic state is 2-A.
 Alpha  occ. eigenvalues --  -88.71871 -14.14577 -14.13794 -10.07992 -10.05117
 Alpha  occ. eigenvalues --  -10.04967 -10.03953 -10.02781 -10.01803 -10.01712
 Alpha  occ. eigenvalues --   -7.80539  -5.76823  -5.76505  -5.76092  -0.81534
 Alpha  occ. eigenvalues --   -0.72935  -0.70676  -0.62521  -0.58882  -0.55493
 Alpha  occ. eigenvalues --   -0.47618  -0.45896  -0.40305  -0.36012  -0.33566
 Alpha  occ. eigenvalues --   -0.31941  -0.30229  -0.28281  -0.26998  -0.25321
 Alpha  occ. eigenvalues --   -0.24442  -0.22883  -0.19788  -0.19771  -0.16388
 Alpha  occ. eigenvalues --   -0.13754  -0.10644  -0.09007  -0.08190   0.06522
 Alpha virt. eigenvalues --    0.08264   0.10482   0.11084   0.11467   0.12162
 Alpha virt. eigenvalues --    0.12898   0.13503   0.14653   0.15623   0.16030
 Alpha virt. eigenvalues --    0.16036   0.16801   0.17958   0.18340   0.18743

  Beta  occ. eigenvalues --  -88.71871 -14.14727 -14.13454 -10.08073 -10.05158
  Beta  occ. eigenvalues --  -10.04647 -10.03463 -10.02274 -10.01785 -10.01601
  Beta  occ. eigenvalues --   -7.80539  -5.76832  -5.76514  -5.76074  -0.81108
  Beta  occ. eigenvalues --   -0.72662  -0.70106  -0.62076  -0.58715  -0.55088
  Beta  occ. eigenvalues --   -0.46956  -0.45628  -0.39880  -0.35796  -0.33169
  Beta  occ. eigenvalues --   -0.31747  -0.29691  -0.28170  -0.26040  -0.25050
  Beta  occ. eigenvalues --   -0.24177  -0.22779  -0.19633  -0.18865  -0.14701
  Beta  occ. eigenvalues --   -0.13536  -0.09993  -0.08878  -0.06272
  Beta virt. eigenvalues --    0.08243   0.10430   0.11186   0.11409   0.12082
  Beta virt. eigenvalues --    0.13087   0.13371   0.13600   0.14697   0.15504
  Beta virt. eigenvalues --    0.15953   0.16390   0.17447   0.17876   0.18510

 Mulliken charges and spin densities:
               1          2
     1  C   -0.236161  -0.047935
     2  C    0.186712   0.218417
     3  C   -0.129168   0.050933
     4  C    0.273732   0.099372
     5  C   -0.621074   0.362761
     6  N   -0.133320  -0.086295
     7  C   -0.046091   0.259032
     8  N   -0.111087   0.131731
     9  C   -0.147171  -0.080581
    10  S   -0.657379   0.009550
    11  H    0.129236   0.000584
    12  H    0.078094   0.067275
    13  H    0.078347   0.067146
    14  H    0.088416  -0.003692
    15  H    0.100121  -0.029477
    16  H    0.146793  -0.018820
 Sum of Mulliken charges =  -1.00000   1.00000

 Dipole moment (field-independent basis, Debye):
    X=              4.1484    Y=              1.1199    Z=              0.0003  Tot=              4.2969
 Quadrupole moment (field-independent basis, Debye-Ang):
   XX=            -99.4080   YY=            -78.9020   ZZ=            -74.7933
   XY=              3.2925   XZ=              0.0021   YZ=             -0.0001

 Summary of Natural Population Analysis:

                                       Natural Population
                Natural  -----------------------------------------------
    Atom  No    Charge         Core      Valence    Rydberg      Total
 -----------------------------------------------------------------------
      C    1   -0.30101      0.99962     2.29596    0.00543     3.30101
      C    2   -0.00376      0.99949     1.99123    0.01304     3.00376
      C    3   -0.13501      0.99944     2.12764    0.00793     3.13501
      C    4   -0.06652      0.99944     2.05780    0.00928     3.06652
      C    5    0.13257      0.99956     1.85288    0.01499     2.86743
      N    6   -0.28498      0.99972     2.77339    0.01186     3.78498
      C    7    0.17672      0.99967     1.80278    0.02082     2.82328
      N    8   -0.22494      0.99964     2.71272    0.01257     3.72494
      C    9    0.02213      0.99944     1.95677    0.02166     2.97787
      S   10    0.15172      4.99942     2.82744    0.02143     7.84828
      H   11    0.09871      0.00000     0.40049    0.00080     0.40129
      H   12    0.10129      0.00000     0.39756    0.00115     0.39871
      H   13    0.10130      0.00000     0.39755    0.00115     0.39870
      H   14    0.09478      0.00000     0.40413    0.00109     0.40522
      H   15    0.07083      0.00000     0.42746    0.00171     0.42917
      H   16    0.06616      0.00000     0.43248    0.00136     0.43384
 =======================================================================
   * Total *    0.00000     13.99546    24.85828    0.14626    39.00000

 Normal termination of Gaussian 16 at Tue Dec  8 13:41:05 2020.
