 Gaussian 16, Revision A.03,

 -----------------------------------------------------------
 # opt freq B3LYP/6-31G(d) empiricaldispersion=gd3bj scf=xqc
 -----------------------------------------------------------

 -------------------------------
 CID_154207168_JID_2867_neutraal
 -------------------------------
 Symbolic Z-matrix:
 Charge =  0 Multiplicity = 1

 SCF Done:  E(RB3LYP) =  -537.306533593     A.U. after   13 cycles
 SCF Done:  E(RB3LYP) =  -537.317280425     A.U. after   12 cycles
 SCF Done:  E(RB3LYP) =  -537.319740298     A.U. after   13 cycles
 SCF Done:  E(RB3LYP) =  -537.320277985     A.U. after   12 cycles
 SCF Done:  E(RB3LYP) =  -537.321108839     A.U. after   11 cycles
 SCF Done:  E(RB3LYP) =  -537.321423310     A.U. after   11 cycles
 SCF Done:  E(RB3LYP) =  -537.321605608     A.U. after   11 cycles
 SCF Done:  E(RB3LYP) =  -537.321704478     A.U. after   10 cycles
 SCF Done:  E(RB3LYP) =  -537.321770812     A.U. after   11 cycles
 SCF Done:  E(RB3LYP) =  -537.321801074     A.U. after   11 cycles
 SCF Done:  E(RB3LYP) =  -537.321911566     A.U. after   11 cycles
 SCF Done:  E(RB3LYP) =  -537.321916501     A.U. after   10 cycles
 SCF Done:  E(RB3LYP) =  -537.321917837     A.U. after   10 cycles
 SCF Done:  E(RB3LYP) =  -537.321919647     A.U. after    9 cycles
 SCF Done:  E(RB3LYP) =  -537.321919623     A.U. after    7 cycles
 SCF Done:  E(RB3LYP) =  -537.321919559     A.U. after    7 cycles
 Optimization completed.
    -- Stationary point found.
 Normal termination of Gaussian 16 at Wed Dec  9 18:12:42 2020.

 --------------------------------------------------------------------
 #N Geom=AllCheck Guess=TCheck SCRF=Check GenChk RB3LYP/6-31G(d) Freq
 --------------------------------------------------------------------

 Structure from the checkpoint file:  "JID_2867.chk"
 -------------------------------
 CID_154207168_JID_2867_neutraal
 -------------------------------
 Charge =  0 Multiplicity = 1

 SCF Done:  E(RB3LYP) =  -537.321919559     A.U. after    1 cycles

  Exact polarizability: 130.071  -6.391 102.241  -0.225  -0.210  86.315
 Approx polarizability: 177.635 -14.666 152.395  -3.021  -0.102 128.315

                      1                      2                      3
                      A                      A                      A
 Frequencies --     46.3104               146.8683               214.6685
 Red. masses --      3.0495                 1.8851                 3.2032
 Frc consts  --      0.0039                 0.0240                 0.0870
 IR Inten    --      0.7059                 0.2333                 3.7446

                      4                      5                      6
                      A                      A                      A
 Frequencies --    248.5895               256.2455               269.3175
 Red. masses --      2.5126                 1.8682                 1.8698
 Frc consts  --      0.0915                 0.0723                 0.0799
 IR Inten    --     13.0773                 5.3521                 8.9556

                      7                      8                      9
                      A                      A                      A
 Frequencies --    296.5708               306.8099               334.6824
 Red. masses --      2.6557                 1.2842                 2.2808
 Frc consts  --      0.1376                 0.0712                 0.1505
 IR Inten    --      7.2230                78.5659                 6.0861

                     10                     11                     12
                      A                      A                      A
 Frequencies --    349.3332               369.5341               385.7359
 Red. masses --      4.2693                 1.5036                 2.2661
 Frc consts  --      0.3070                 0.1210                 0.1987
 IR Inten    --      6.7410                 8.4915                 4.9410

                     13                     14                     15
                      A                      A                      A
 Frequencies --    420.9579               440.7287               455.1864
 Red. masses --      1.2563                 2.5953                 3.3729
 Frc consts  --      0.1312                 0.2970                 0.4117
 IR Inten    --     15.3655                 9.4534                11.0829

                     16                     17                     18
                      A                      A                      A
 Frequencies --    480.6106               508.0265               591.8378
 Red. masses --      4.2814                 4.2051                 3.5515
 Frc consts  --      0.5827                 0.6394                 0.7329
 IR Inten    --      4.6954                 1.6257                 5.1490

                     19                     20                     21
                      A                      A                      A
 Frequencies --    635.2005               652.2666               711.7283
 Red. masses --      3.6066                 4.0833                 3.8657
 Frc consts  --      0.8574                 1.0236                 1.1537
 IR Inten    --      0.5316                 2.2891                 9.5525

                     22                     23                     24
                      A                      A                      A
 Frequencies --    789.0991               816.4948               819.8869
 Red. masses --      2.5793                 1.4171                 1.6001
 Frc consts  --      0.9463                 0.5566                 0.6337
 IR Inten    --     54.7280                51.9046               153.3012

                     25                     26                     27
                      A                      A                      A
 Frequencies --    869.2304               903.2272               908.4836
 Red. masses --      1.8718                 1.8774                 1.8888
 Frc consts  --      0.8333                 0.9024                 0.9185
 IR Inten    --     22.6920                 1.2378                 0.7269

                     28                     29                     30
                      A                      A                      A
 Frequencies --    938.5540               992.6582              1009.7759
 Red. masses --      1.6063                 2.1048                 2.2418
 Frc consts  --      0.8336                 1.2220                 1.3468
 IR Inten    --      3.7737                 1.9712                 5.5238

                     31                     32                     33
                      A                      A                      A
 Frequencies --   1039.5936              1045.1836              1084.8175
 Red. masses --      2.4726                 2.1915                 1.9484
 Frc consts  --      1.5745                 1.4105                 1.3510
 IR Inten    --      4.1104                 1.9040                47.7820

                     34                     35                     36
                      A                      A                      A
 Frequencies --   1098.4629              1108.0498              1119.1753
 Red. masses --      1.8580                 2.0411                 2.8331
 Frc consts  --      1.3209                 1.4765                 2.0907
 IR Inten    --      5.2348                14.8124                16.9645

                     37                     38                     39
                      A                      A                      A
 Frequencies --   1152.6151              1159.0386              1183.9870
 Red. masses --      1.2115                 2.8109                 2.1093
 Frc consts  --      0.9483                 2.2248                 1.7422
 IR Inten    --      4.4579                93.7328                 1.1567

                     40                     41                     42
                      A                      A                      A
 Frequencies --   1204.2089              1214.0314              1258.3780
 Red. masses --      2.0056                 2.0901                 1.3030
 Frc consts  --      1.7136                 1.8150                 1.2156
 IR Inten    --      5.6172                 0.9821                 7.4019

                     43                     44                     45
                      A                      A                      A
 Frequencies --   1280.7870              1293.1051              1315.5222
 Red. masses --      1.3473                 1.4365                 1.4879
 Frc consts  --      1.3022                 1.4152                 1.5171
 IR Inten    --      8.3729                 9.0473                 0.3274

                     46                     47                     48
                      A                      A                      A
 Frequencies --   1318.1810              1336.1019              1353.0166
 Red. masses --      1.4016                 1.3668                 1.4337
 Frc consts  --      1.4349                 1.4376                 1.5464
 IR Inten    --      9.5764                 8.9071                 5.8775

                     49                     50                     51
                      A                      A                      A
 Frequencies --   1361.3422              1383.0591              1397.7353
 Red. masses --      1.6320                 1.9028                 1.6691
 Frc consts  --      1.7820                 2.1445                 1.9212
 IR Inten    --      1.5333                32.0727                 0.0328

                     52                     53                     54
                      A                      A                      A
 Frequencies --   1431.0485              1438.3730              1504.1353
 Red. masses --      1.8563                 1.2333                 1.0856
 Frc consts  --      2.2397                 1.5034                 1.4470
 IR Inten    --     19.8318                 2.7168                 3.8375

                     55                     56                     57
                      A                      A                      A
 Frequencies --   1510.2678              1521.3822              1526.8473
 Red. masses --      1.0758                 1.0830                 1.0925
 Frc consts  --      1.4458                 1.4769                 1.5007
 IR Inten    --      0.4549                 1.1563                 2.4419

                     58                     59                     60
                      A                      A                      A
 Frequencies --   1538.5665              1545.1333              1550.3695
 Red. masses --      1.0496                 1.0613                 1.0921
 Frc consts  --      1.4639                 1.4929                 1.5466
 IR Inten    --      5.3030                 3.6150                 4.9052

                     61                     62                     63
                      A                      A                      A
 Frequencies --   1700.2779              1746.6718              3030.0625
 Red. masses --      1.2921                 3.9202                 1.0674
 Frc consts  --      2.2008                 7.0466                 5.7738
 IR Inten    --     17.9647                 8.4517                15.7957

                     64                     65                     66
                      A                      A                      A
 Frequencies --   3034.2153              3038.9236              3040.4611
 Red. masses --      1.0641                 1.0436                 1.0678
 Frc consts  --      5.7719                 5.6784                 5.8161
 IR Inten    --     27.7699                33.8302                35.2752

                     67                     68                     69
                      A                      A                      A
 Frequencies --   3047.1851              3052.5926              3081.2254
 Red. masses --      1.0634                 1.0625                 1.1013
 Frc consts  --      5.8174                 5.8335                 6.1605
 IR Inten    --     49.6243                47.1620                 7.7867

                     70                     71                     72
                      A                      A                      A
 Frequencies --   3085.8312              3094.1952              3101.4862
 Red. masses --      1.0987                 1.0998                 1.0998
 Frc consts  --      6.1644                 6.2038                 6.2329
 IR Inten    --      5.1162                24.4625                49.9518

                     73                     74                     75
                      A                      A                      A
 Frequencies --   3106.2138              3114.7414              3142.1338
 Red. masses --      1.1009                 1.0948                 1.0996
 Frc consts  --      6.2584                 6.2578                 6.3965
 IR Inten    --     48.6549                17.8028                15.3695

                     76                     77                     78
                      A                      A                      A
 Frequencies --   3494.6176              3592.8925              3724.6249
 Red. masses --      1.0463                 1.0971                 1.0658
 Frc consts  --      7.5288                 8.3440                 8.7111
 IR Inten    --      2.3185                 5.1465                 5.3849

 - Thermochemistry -
 -------------------
 Temperature   298.150 Kelvin.  Pressure   1.00000 Atm.
 Atom     1 has atomic number  6 and mass  12.00000

 Molecular mass:   168.12626 amu.
 Principal axes and moments of inertia in atomic units:
                           1         2         3
     Eigenvalues --  1154.659112298.029742710.95157
           X            0.99996   0.00784   0.00416
           Y           -0.00784   0.99997   0.00009
           Z           -0.00416  -0.00012   0.99999
 This molecule is an asymmetric top.
 Rotational symmetry number  1.
 Warning -- assumption of classical behavior for rotation
           may cause significant error
 Rotational temperatures (Kelvin)      0.07501     0.03769     0.03195
 Rotational constants (GHZ):           1.56301     0.78534     0.66572
 Zero-point vibrational energy     655969.2 (Joules/Mol)
                                  156.78040 (Kcal/Mol)
 Warning -- explicit consideration of  18 degrees of freedom as
           vibrations may cause significant error
 Vibrational temperatures:     66.63   211.31   308.86   357.66   368.68
          (Kelvin)            387.49   426.70   441.43   481.53   502.61
                              531.68   554.99   605.66   634.11   654.91
                              691.49   730.94   851.52   913.91   938.47
                             1024.02  1135.34  1174.75  1179.63  1250.63
                             1299.54  1307.11  1350.37  1428.21  1452.84
                             1495.74  1503.79  1560.81  1580.44  1594.24
                             1610.24  1658.36  1667.60  1703.49  1732.59
                             1746.72  1810.53  1842.77  1860.49  1892.74
                             1896.57  1922.35  1946.69  1958.67  1989.91
                             2011.03  2058.96  2069.50  2164.12  2172.94
                             2188.93  2196.79  2213.65  2223.10  2230.64
                             2446.32  2513.07  4359.58  4365.56  4372.33
                             4374.55  4384.22  4392.00  4433.20  4439.82
                             4451.86  4462.35  4469.15  4481.42  4520.83
                             5027.98  5169.37  5358.90

 Zero-point correction=                           0.249845 (Hartree/Particle)
 Thermal correction to Energy=                    0.261114
 Thermal correction to Enthalpy=                  0.262058
 Thermal correction to Gibbs Free Energy=         0.213909
 Sum of electronic and zero-point Energies=           -537.072074
 Sum of electronic and thermal Energies=              -537.060806
 Sum of electronic and thermal Enthalpies=            -537.059862
 Sum of electronic and thermal Free Energies=         -537.108010

                     E (Thermal)             CV                S
                      KCal/Mol        Cal/Mol-Kelvin    Cal/Mol-Kelvin
 Total                  163.851             46.479            101.337
 Electronic               0.000              0.000              0.000
 Translational            0.889              2.981             41.267
 Rotational               0.889              2.981             30.354
 Vibrational            162.074             40.518             29.717
 Vibration     1          0.595              1.979              4.969
 Vibration     2          0.617              1.906              2.712
 Vibration     3          0.645              1.819              2.004
 Vibration     4          0.662              1.765              1.741
 Vibration     5          0.666              1.752              1.687
 Vibration     6          0.674              1.730              1.601
 Vibration     7          0.690              1.680              1.436
 Vibration     8          0.697              1.661              1.379
 Vibration     9          0.716              1.606              1.237
 Vibration    10          0.727              1.577              1.169
 Vibration    11          0.742              1.535              1.082
 Vibration    12          0.754              1.501              1.017
 Vibration    13          0.783              1.425              0.889
 Vibration    14          0.801              1.381              0.824
 Vibration    15          0.814              1.349              0.780
 Vibration    16          0.837              1.293              0.708
 Vibration    17          0.863              1.232              0.638
 Vibration    18          0.949              1.049              0.464

 Optimization completed.
    -- Stationary point found.
 Normal termination of Gaussian 16 at Wed Dec  9 18:20:46 2020.

 ----------------------------------------------------------------------
 # B3LYP/6-311++G(d,p) empiricaldispersion=gd3bj scf=xqc pop=npa geom=c
 heck
 ----------------------------------------------------------------------

 ---------------------------------------
 CID_154207168_JID_2867_Energie_neutraal
 ---------------------------------------
 Structure from the checkpoint file:  "JID_2867.chk"
 Charge =  0 Multiplicity = 1

 SCF Done:  E(RB3LYP) =  -537.485140675     A.U. after   13 cycles
 Normal termination of Gaussian 16 at Wed Dec  9 18:24:20 2020.

 ----------------------------------------------------------------------
 # B3LYP/6-311++G(d,p) empiricaldispersion=gd3bj scf=xqc pop=npa geom=c
 heck
 ----------------------------------------------------------------------

 -------------------------------------
 CID_154207168_JID_2867_Energie_kation
 -------------------------------------
 Structure from the checkpoint file:  "JID_2867.chk"
 Charge =  1 Multiplicity = 2

 SCF Done:  E(UB3LYP) =  -537.186764060     A.U. after   23 cycles
 Normal termination of Gaussian 16 at Wed Dec  9 18:31:41 2020.
 Gaussian 16:  ES64L-G16RevA.03 25-Dec-2016

 ----------------------------------------------------------------------
 # B3LYP/6-311++G(d,p) empiricaldispersion=gd3bj scf=xqc pop=npa geom=c
 heck
 ----------------------------------------------------------------------

 ------------------------------------
 CID_154207168_JID_2867_Energie_anion
 ------------------------------------
 Structure from the checkpoint file:  "JID_2867.chk"
 Charge = -1 Multiplicity = 2

                         Standard orientation:
 ---------------------------------------------------------------------
 Center     Atomic      Atomic             Coordinates (Angstroms)
 Number     Number       Type             X           Y           Z
 ---------------------------------------------------------------------
      1          6           0        2.003800    1.606865    0.009195
      2          6           0        0.697470    0.806332    0.010466
      3          6           0       -0.040423    1.019501   -1.341376
      4          6           0       -1.350337    0.191920   -1.398099
      5          6           0       -1.674358   -0.364950   -0.002717
      6          6           0       -1.664514    0.786508    1.013240
      7          6           0       -0.225966    1.349065    1.136779
      8          6           0       -0.577052   -1.356452    0.388867
      9          6           0        0.794334   -0.718048    0.187825
     10          7           0        1.769902   -1.542847    0.117259
     11          7           0        3.079555   -1.136910   -0.127861
     12          8           0       -2.908375   -1.076544    0.010662
     13          1           0        1.774247    2.668664   -0.140485
     14          1           0        2.675259    1.296533   -0.794942
     15          1           0        2.530677    1.529409    0.968844
     16          1           0        0.627524    0.749750   -2.165919
     17          1           0       -0.253931    2.091629   -1.441601
     18          1           0       -2.186465    0.811836   -1.747863
     19          1           0       -1.261095   -0.648319   -2.094706
     20          1           0       -2.363346    1.568632    0.685913
     21          1           0       -2.030334    0.409243    1.973668
     22          1           0       -0.234560    2.443731    1.078516
     23          1           0        0.210048    1.091154    2.108960
     24          1           0       -0.720234   -1.653193    1.436759
     25          1           0       -0.656449   -2.264594   -0.215423
     26          1           0        3.359087   -0.300245    0.377390
     27          1           0        3.679798   -1.905419    0.152517
     28          1           0       -3.607155   -0.442601   -0.217780
 ---------------------------------------------------------------------

 SCF Done:  E(UB3LYP) =  -537.471388414     A.U. after   31 cycles

 The electronic state is 2-A.
 Alpha  occ. eigenvalues --  -19.02021 -14.22738 -14.22385 -10.12189 -10.09995
 Alpha  occ. eigenvalues --  -10.08954 -10.06717 -10.06518 -10.06217 -10.06169
 Alpha  occ. eigenvalues --  -10.06033 -10.05897  -0.92466  -0.87522  -0.76270
 Alpha  occ. eigenvalues --   -0.70048  -0.67091  -0.64302  -0.60701  -0.56612
 Alpha  occ. eigenvalues --   -0.51840  -0.49406  -0.48032  -0.43298  -0.40383
 Alpha  occ. eigenvalues --   -0.39239  -0.37919  -0.37489  -0.33547  -0.32748
 Alpha  occ. eigenvalues --   -0.31753  -0.30420  -0.30229  -0.28962  -0.28524
 Alpha  occ. eigenvalues --   -0.27540  -0.26546  -0.26031  -0.24948  -0.24269
 Alpha  occ. eigenvalues --   -0.21812  -0.21193  -0.20379  -0.16808  -0.15181
 Alpha  occ. eigenvalues --   -0.11991   0.04556
 Alpha virt. eigenvalues --    0.06195   0.07794   0.08541   0.09150   0.09540
 Alpha virt. eigenvalues --    0.10070   0.10434   0.11043   0.11923   0.12150
 Alpha virt. eigenvalues --    0.12677   0.13079   0.13503   0.13996   0.14233

  Beta  occ. eigenvalues --  -19.01997 -14.22705 -14.22372 -10.12192 -10.09995
  Beta  occ. eigenvalues --  -10.08951 -10.06696 -10.06493 -10.06195 -10.06160
  Beta  occ. eigenvalues --  -10.06006 -10.05859  -0.92425  -0.87492  -0.76242
  Beta  occ. eigenvalues --   -0.70003  -0.67056  -0.64256  -0.60655  -0.56543
  Beta  occ. eigenvalues --   -0.51774  -0.49356  -0.47970  -0.43241  -0.40348
  Beta  occ. eigenvalues --   -0.39187  -0.37857  -0.37459  -0.33498  -0.32707
  Beta  occ. eigenvalues --   -0.31708  -0.30387  -0.30201  -0.28927  -0.28485
  Beta  occ. eigenvalues --   -0.27495  -0.26513  -0.25995  -0.24919  -0.24230
  Beta  occ. eigenvalues --   -0.21754  -0.21165  -0.20341  -0.16782  -0.15139
  Beta  occ. eigenvalues --   -0.11957
  Beta virt. eigenvalues --    0.07061   0.07522   0.08566   0.09054   0.09537
  Beta virt. eigenvalues --    0.10074   0.10287   0.11098   0.11308   0.12194
  Beta virt. eigenvalues --    0.12658   0.13057   0.13690   0.14057   0.14156

 Mulliken charges and spin densities:
               1          2
     1  C    1.755237  -2.207201
     2  C   -1.329023   2.601163
     3  C   -0.236366  -0.235281
     4  C    0.906588  -1.214110
     5  C   -1.706649   1.227460
     6  C    0.880838  -1.320195
     7  C   -0.370311  -0.072775
     8  C    2.224056  -2.246756
     9  C   -0.794680  -0.345845
    10  N   -0.085166   0.039408
    11  N   -0.271691  -0.023495
    12  O   -0.217588   0.029830
    13  H   -0.115103   0.270196
    14  H   -0.033620   0.185060
    15  H   -0.580296   0.736653
    16  H    0.046810   0.120036
    17  H   -0.209995   0.372677
    18  H   -0.408490   0.588199
    19  H    0.103429   0.062904
    20  H   -0.418563   0.593806
    21  H    0.012162   0.162773
    22  H   -0.247616   0.419411
    23  H   -0.052409   0.215486
    24  H    0.145297   0.067912
    25  H    0.184822   0.020884
    26  H   -0.136228   0.387707
    27  H    0.041184   0.221188
    28  H   -0.086630   0.342908
 Sum of Mulliken charges =  -1.00000   1.00000

 Dipole moment (field-independent basis, Debye):
    X=              0.0324    Y=             -2.7880    Z=             -0.5273  Tot=              2.8376
 Quadrupole moment (field-independent basis, Debye-Ang):
   XX=           -137.1076   YY=           -119.4597   ZZ=           -104.5516
   XY=              2.8935   XZ=             -5.0608   YZ=             -0.1759

 Summary of Natural Population Analysis:

                                       Natural Population
                Natural  -----------------------------------------------
    Atom  No    Charge         Core      Valence    Rydberg      Total
 -----------------------------------------------------------------------
      C    1   -0.28972      0.99963     2.28191    0.00819     3.28972
      C    2   -0.06214      0.99952     2.04893    0.01368     3.06214
      C    3   -0.18604      0.99959     2.17669    0.00976     3.18604
      C    4   -0.20030      0.99958     2.19022    0.01051     3.20030
      C    5    0.13372      0.99945     1.85087    0.01596     2.86628
      C    6   -0.20189      0.99957     2.19168    0.01063     3.20189
      C    7   -0.18691      0.99959     2.17708    0.01024     3.18691
      C    8   -0.20785      0.99954     2.19747    0.01084     3.20785
      C    9    0.12614      0.99952     1.85607    0.01827     2.87386
      N   10   -0.15561      0.99958     2.64041    0.01562     3.65561
      N   11   -0.31644      0.99974     2.80474    0.01195     3.81644
      O   12   -0.37489      0.99988     3.36834    0.00667     4.37489
      H   13    0.10435      0.00000     0.39426    0.00138     0.39565
      H   14    0.10551      0.00000     0.39280    0.00170     0.39449
      H   15    0.10065      0.00000     0.39734    0.00200     0.39935
      H   16    0.10163      0.00000     0.39712    0.00124     0.39837
      H   17    0.10191      0.00000     0.39657    0.00151     0.39809
      H   18    0.10207      0.00000     0.39607    0.00186     0.39793
      H   19    0.10024      0.00000     0.39860    0.00115     0.39976
      H   20    0.10085      0.00000     0.39674    0.00241     0.39915
      H   21    0.10270      0.00000     0.39612    0.00118     0.39730
      H   22    0.10379      0.00000     0.39446    0.00175     0.39621
      H   23    0.10050      0.00000     0.39796    0.00154     0.39950
      H   24    0.10664      0.00000     0.39213    0.00123     0.39336
      H   25    0.11239      0.00000     0.38619    0.00141     0.38761
      H   26    0.17419      0.00000     0.32316    0.00264     0.32581
      H   27    0.17541      0.00000     0.32217    0.00241     0.32459
      H   28    0.22907      0.00000     0.26768    0.00324     0.27093
 =======================================================================
   * Total *    0.00000     11.99521    33.83380    0.17100    46.00000

 Normal termination of Gaussian 16 at Wed Dec  9 18:41:29 2020.
