 Gaussian 16, Revision A.03,

 -----------------------------------------------------------
 # opt freq B3LYP/6-31G(d) empiricaldispersion=gd3bj scf=xqc
 -----------------------------------------------------------

 -----------------------------
 CID_78917454_JID_805_neutraal
 -----------------------------
 Symbolic Z-matrix:
 Charge =  0 Multiplicity = 1

 SCF Done:  E(RB3LYP) =  -446.299319054     A.U. after   13 cycles
 SCF Done:  E(RB3LYP) =  -446.301052669     A.U. after   11 cycles
 SCF Done:  E(RB3LYP) =  -446.299422194     A.U. after   11 cycles
 SCF Done:  E(RB3LYP) =  -446.301096563     A.U. after   11 cycles
 SCF Done:  E(RB3LYP) =  -446.302300917     A.U. after   11 cycles
 SCF Done:  E(RB3LYP) =  -446.302556070     A.U. after   10 cycles
 SCF Done:  E(RB3LYP) =  -446.302617651     A.U. after   10 cycles
 SCF Done:  E(RB3LYP) =  -446.302660626     A.U. after    9 cycles
 SCF Done:  E(RB3LYP) =  -446.302686224     A.U. after    9 cycles
 SCF Done:  E(RB3LYP) =  -446.302702620     A.U. after    9 cycles
 SCF Done:  E(RB3LYP) =  -446.302711193     A.U. after    9 cycles
 SCF Done:  E(RB3LYP) =  -446.302714407     A.U. after    9 cycles
 SCF Done:  E(RB3LYP) =  -446.302716666     A.U. after    9 cycles
 SCF Done:  E(RB3LYP) =  -446.302717505     A.U. after    8 cycles
 SCF Done:  E(RB3LYP) =  -446.302717653     A.U. after    7 cycles
 SCF Done:  E(RB3LYP) =  -446.302717684     A.U. after    6 cycles
 Optimization completed.
    -- Stationary point found.
 Normal termination of Gaussian 16 at Tue Dec  8 13:25:47 2020.

 --------------------------------------------------------------------
 #N Geom=AllCheck Guess=TCheck SCRF=Check GenChk RB3LYP/6-31G(d) Freq
 --------------------------------------------------------------------

 Structure from the checkpoint file:  "JID_805.chk"
 -----------------------------
 CID_78917454_JID_805_neutraal
 -----------------------------
 Charge =  0 Multiplicity = 1

 SCF Done:  E(RB3LYP) =  -446.302717684     A.U. after    1 cycles

  Exact polarizability: 113.906   1.910  92.165   0.398  -1.246  83.090
 Approx polarizability: 132.886   2.492 126.433  -0.157  -0.547 129.043

                      1                      2                      3
                      A                      A                      A
 Frequencies --     30.0024                54.6301                78.2624
 Red. masses --      1.7244                 2.8376                 2.5418
 Frc consts  --      0.0009                 0.0050                 0.0092
 IR Inten    --      0.1135                 0.1563                 1.1145

                      4                      5                      6
                      A                      A                      A
 Frequencies --    128.7144               183.2264               209.9423
 Red. masses --      2.2739                 1.3901                 1.4689
 Frc consts  --      0.0222                 0.0275                 0.0381
 IR Inten    --      2.4765                 0.2750                 1.1531

                      7                      8                      9
                      A                      A                      A
 Frequencies --    211.8701               232.1901               270.1070
 Red. masses --      1.9525                 1.4390                 1.7021
 Frc consts  --      0.0516                 0.0457                 0.0732
 IR Inten    --      1.3458                 0.5269                 1.3176

                     10                     11                     12
                      A                      A                      A
 Frequencies --    283.7442               309.4797               330.8659
 Red. masses --      1.5457                 2.2356                 2.6801
 Frc consts  --      0.0733                 0.1262                 0.1729
 IR Inten    --      1.2218                 0.1247                 2.4745

                     13                     14                     15
                      A                      A                      A
 Frequencies --    349.1706               368.4088               385.1810
 Red. masses --      2.1857                 1.9388                 2.7649
 Frc consts  --      0.1570                 0.1550                 0.2417
 IR Inten    --      2.0478                 0.2055                 2.0357

                     16                     17                     18
                      A                      A                      A
 Frequencies --    408.5961               465.1141               563.3006
 Red. masses --      2.5919                 2.1760                 3.3398
 Frc consts  --      0.2549                 0.2774                 0.6244
 IR Inten    --      1.8023                 0.9340                 9.0143

                     19                     20                     21
                      A                      A                      A
 Frequencies --    614.6105               624.3740               755.4079
 Red. masses --      1.1311                 2.8872                 2.2152
 Frc consts  --      0.2517                 0.6631                 0.7448
 IR Inten    --     34.8678                 7.7014                 1.1810

                     22                     23                     24
                      A                      A                      A
 Frequencies --    786.1109               844.6750               854.1117
 Red. masses --      1.3212                 1.2550                 2.3939
 Frc consts  --      0.4810                 0.5276                 1.0289
 IR Inten    --      3.3367                72.5175                 5.7309

                     25                     26                     27
                      A                      A                      A
 Frequencies --    913.5443               940.8686               980.6329
 Red. masses --      1.9417                 1.8144                 1.6835
 Frc consts  --      0.9547                 0.9463                 0.9538
 IR Inten    --     13.0993                 9.3648                 2.4060

                     28                     29                     30
                      A                      A                      A
 Frequencies --    985.0998               996.7780              1015.1257
 Red. masses --      1.3910                 1.8076                 1.5691
 Frc consts  --      0.7953                 1.0582                 0.9527
 IR Inten    --     10.3678                 7.2124                12.2394

                     31                     32                     33
                      A                      A                      A
 Frequencies --   1034.1345              1069.1627              1112.2617
 Red. masses --      1.8435                 2.2651                 1.7586
 Frc consts  --      1.1616                 1.5256                 1.2819
 IR Inten    --     13.8182                10.2131                25.3978

                     34                     35                     36
                      A                      A                      A
 Frequencies --   1126.3274              1145.1713              1174.7876
 Red. masses --      1.5536                 2.1396                 2.5530
 Frc consts  --      1.1612                 1.6532                 2.0760
 IR Inten    --     11.1455                22.4082                36.0475

                     37                     38                     39
                      A                      A                      A
 Frequencies --   1186.2738              1200.2135              1219.3003
 Red. masses --      1.9504                 1.8657                 2.3059
 Frc consts  --      1.6171                 1.5835                 2.0198
 IR Inten    --     13.6791                 1.7876                 5.2941

                     40                     41                     42
                      A                      A                      A
 Frequencies --   1252.4625              1301.7966              1328.6619
 Red. masses --      2.2715                 1.3461                 1.3727
 Frc consts  --      2.0994                 1.3440                 1.4277
 IR Inten    --     12.0047                 1.7061                22.5269

                     43                     44                     45
                      A                      A                      A
 Frequencies --   1345.3414              1378.4042              1395.3552
 Red. masses --      1.2815                 1.3034                 1.3818
 Frc consts  --      1.3665                 1.4591                 1.5851
 IR Inten    --      5.7165                 0.7457                 9.0083

                     46                     47                     48
                      A                      A                      A
 Frequencies --   1407.1812              1428.9475              1432.6518
 Red. masses --      1.3512                 1.2744                 1.2208
 Frc consts  --      1.5764                 1.5332                 1.4763
 IR Inten    --     10.6134                13.0079                15.7763

                     49                     50                     51
                      A                      A                      A
 Frequencies --   1443.0701              1466.5806              1484.5399
 Red. masses --      1.2265                 1.3829                 1.1655
 Frc consts  --      1.5049                 1.7525                 1.5134
 IR Inten    --      1.8710                98.5168                 4.0353

                     52                     53                     54
                      A                      A                      A
 Frequencies --   1497.3165              1514.4695              1516.9666
 Red. masses --      1.1844                 1.0686                 1.0668
 Frc consts  --      1.5645                 1.4440                 1.4464
 IR Inten    --     20.0128                 1.6208                 1.6989

                     55                     56                     57
                      A                      A                      A
 Frequencies --   1522.6885              1527.9562              1532.8492
 Red. masses --      1.0539                 1.0535                 1.0847
 Frc consts  --      1.4397                 1.4491                 1.5017
 IR Inten    --     18.2698                 5.5991                 9.1644

                     58                     59                     60
                      A                      A                      A
 Frequencies --   1535.7998              1540.9344              1543.2361
 Red. masses --      1.0500                 1.0485                 1.0657
 Frc consts  --      1.4591                 1.4668                 1.4954
 IR Inten    --      2.9354                13.3632                 4.2736

                     61                     62                     63
                      A                      A                      A
 Frequencies --   1547.4353              1561.1098              2983.2188
 Red. masses --      1.0515                 1.0580                 1.0567
 Frc consts  --      1.4835                 1.5192                 5.5410
 IR Inten    --      5.6866                11.8559                85.7863

                     64                     65                     66
                      A                      A                      A
 Frequencies --   2995.7246              3003.6586              3042.3405
 Red. masses --      1.0721                 1.0800                 1.0372
 Frc consts  --      5.6686                 5.7406                 5.6563
 IR Inten    --     26.3489                51.3104                39.4771

                     67                     68                     69
                      A                      A                      A
 Frequencies --   3046.2198              3053.9429              3068.2917
 Red. masses --      1.0390                 1.0407                 1.0618
 Frc consts  --      5.6805                 5.7189                 5.8898
 IR Inten    --     26.2165                22.0401                11.4959

                     70                     71                     72
                      A                      A                      A
 Frequencies --   3083.5885              3086.3037              3094.0273
 Red. masses --      1.0926                 1.0772                 1.0996
 Frc consts  --      6.1208                 6.0454                 6.2021
 IR Inten    --     23.3952                39.4999                 1.5781

                     73                     74                     75
                      A                      A                      A
 Frequencies --   3106.5449              3109.1496              3118.7445
 Red. masses --      1.1017                 1.1007                 1.1026
 Frc consts  --      6.2645                 6.2690                 6.3188
 IR Inten    --     11.2487                68.4326                61.3199

                     76                     77                     78
                      A                      A                      A
 Frequencies --   3123.4644              3128.3541              3131.1562
 Red. masses --      1.0992                 1.1040                 1.0973
 Frc consts  --      6.3181                 6.3656                 6.3385
 IR Inten    --     28.5499                29.0339                46.1310

                     79                     80                     81
                      A                      A                      A
 Frequencies --   3150.5212              3508.2649              3541.1794
 Red. masses --      1.0985                 1.0651                 1.0735
 Frc consts  --      6.4240                 7.7237                 7.9313
 IR Inten    --     32.7176               217.6137                 6.7229

 - Thermochemistry -
 -------------------
 Temperature   298.150 Kelvin.  Pressure   1.00000 Atm.
 Atom     1 has atomic number  6 and mass  12.00000

 Molecular mass:   145.14666 amu.
 Principal axes and moments of inertia in atomic units:
                           1         2         3
     Eigenvalues --   822.329182426.260202806.08501
           X            1.00000  -0.00139   0.00246
           Y            0.00145   0.99962  -0.02760
           Z           -0.00242   0.02760   0.99962
 This molecule is an asymmetric top.
 Rotational symmetry number  1.
 Warning -- assumption of classical behavior for rotation
           may cause significant error
 Rotational temperatures (Kelvin)      0.10533     0.03570     0.03087
 Rotational constants (GHZ):           2.19467     0.74384     0.64315
 Zero-point vibrational energy     707724.1 (Joules/Mol)
                                  169.15012 (Kcal/Mol)
 Warning -- explicit consideration of  19 degrees of freedom as
           vibrations may cause significant error
 Vibrational temperatures:     43.17    78.60   112.60   185.19   263.62
          (Kelvin)            302.06   304.83   334.07   388.62   408.24
                              445.27   476.04   502.38   530.06   554.19
                              587.88   669.20   810.46   884.29   898.33
                             1086.86  1131.04  1215.30  1228.88  1314.39
                             1353.70  1410.91  1417.34  1434.14  1460.54
                             1487.89  1538.29  1600.30  1620.53  1647.65
                             1690.26  1706.78  1726.84  1754.30  1802.01
                             1872.99  1911.65  1935.65  1983.22  2007.60
                             2024.62  2055.94  2061.27  2076.26  2110.08
                             2135.92  2154.30  2178.98  2182.58  2190.81
                             2198.39  2205.43  2209.67  2217.06  2220.37
                             2226.41  2246.09  4292.19  4310.18  4321.59
                             4377.25  4382.83  4393.94  4414.59  4436.60
                             4440.50  4451.62  4469.63  4473.37  4487.18
                             4493.97  4501.00  4505.04  4532.90  5047.61
                             5094.97

 Zero-point correction=                           0.269558 (Hartree/Particle)
 Thermal correction to Energy=                    0.282384
 Thermal correction to Enthalpy=                  0.283329
 Thermal correction to Gibbs Free Energy=         0.230660
 Sum of electronic and zero-point Energies=           -446.033160
 Sum of electronic and thermal Energies=              -446.020333
 Sum of electronic and thermal Enthalpies=            -446.019389
 Sum of electronic and thermal Free Energies=         -446.072057

                     E (Thermal)             CV                S
                      KCal/Mol        Cal/Mol-Kelvin    Cal/Mol-Kelvin
 Total                  177.199             47.658            110.850
 Electronic               0.000              0.000              0.000
 Translational            0.889              2.981             40.829
 Rotational               0.889              2.981             30.105
 Vibrational            175.421             41.697             39.916
 Vibration     1          0.594              1.984              5.829
 Vibration     2          0.596              1.976              4.642
 Vibration     3          0.600              1.964              3.934
 Vibration     4          0.611              1.925              2.965
 Vibration     5          0.631              1.863              2.295
 Vibration     6          0.642              1.826              2.044
 Vibration     7          0.643              1.823              2.028
 Vibration     8          0.653              1.792              1.862
 Vibration     9          0.674              1.728              1.596
 Vibration    10          0.682              1.704              1.511
 Vibration    11          0.699              1.656              1.365
 Vibration    12          0.713              1.614              1.256
 Vibration    13          0.726              1.577              1.170
 Vibration    14          0.741              1.537              1.086
 Vibration    15          0.754              1.502              1.019
 Vibration    16          0.773              1.452              0.932
 Vibration    17          0.823              1.327              0.751
 Vibration    18          0.919              1.111              0.517
 Vibration    19          0.974              1.001              0.425

                           ! Non-Optimized Parameters !
 Normal termination of Gaussian 16 at Tue Dec  8 13:34:10 2020.

 ----------------------------------------------------------------------
 # B3LYP/6-311++G(d,p) empiricaldispersion=gd3bj scf=xqc pop=npa geom=c
 heck
 ----------------------------------------------------------------------

 -------------------------------------
 CID_78917454_JID_805_Energie_neutraal
 -------------------------------------
 Structure from the checkpoint file:  "JID_805.chk"
 Charge =  0 Multiplicity = 1

 SCF Done:  E(RB3LYP) =  -446.444135939     A.U. after   13 cycles
 Normal termination of Gaussian 16 at Tue Dec  8 13:39:34 2020.

 ----------------------------------------------------------------------
 # B3LYP/6-311++G(d,p) empiricaldispersion=gd3bj scf=xqc pop=npa geom=c
 heck
 ----------------------------------------------------------------------

 -----------------------------------
 CID_78917454_JID_805_Energie_kation
 -----------------------------------
 Structure from the checkpoint file:  "JID_805.chk"
 Charge =  1 Multiplicity = 2

 SCF Done:  E(UB3LYP) =  -446.119797860     A.U. after   21 cycles
 Normal termination of Gaussian 16 at Tue Dec  8 13:46:43 2020.
 Gaussian 16:  ES64L-G16RevA.03 25-Dec-2016

 ----------------------------------------------------------------------
 # B3LYP/6-311++G(d,p) empiricaldispersion=gd3bj scf=xqc pop=npa geom=c
 heck
 ----------------------------------------------------------------------

 ----------------------------------
 CID_78917454_JID_805_Energie_anion
 ----------------------------------
 Structure from the checkpoint file:  "JID_805.chk"
 Charge = -1 Multiplicity = 2

                         Standard orientation:
 ---------------------------------------------------------------------
 Center     Atomic      Atomic             Coordinates (Angstroms)
 Number     Number       Type             X           Y           Z
 ---------------------------------------------------------------------
      1          6           0        3.593153   -0.613542   -0.116029
      2          6           0        2.331986    0.085121    0.402661
      3          6           0        1.052389   -0.241359   -0.394303
      4          6           0        0.675288   -1.717336   -0.198432
      5          6           0       -0.111053    0.734394   -0.025490
      6          6           0        0.196326    2.154030   -0.519456
      7          6           0       -1.471528    0.304106   -0.653976
      8          7           0       -2.199745   -0.615910    0.224826
      9          6           0       -3.641489   -0.642943   -0.005461
     10          8           0       -0.277332    0.786914    1.388157
     11          1           0        3.535478   -1.703781   -0.027871
     12          1           0        4.474591   -0.289820    0.448968
     13          1           0        3.770883   -0.375820   -1.172571
     14          1           0        2.158555   -0.170744    1.454003
     15          1           0        2.511762    1.164703    0.385192
     16          1           0        1.266080   -0.087221   -1.463794
     17          1           0        0.336965   -1.890581    0.829990
     18          1           0       -0.111234   -2.038690   -0.891307
     19          1           0        1.531199   -2.373704   -0.378401
     20          1           0        0.266018    2.182971   -1.613825
     21          1           0       -0.602439    2.830185   -0.200037
     22          1           0        1.133809    2.532986   -0.106717
     23          1           0       -2.098485    1.197349   -0.748432
     24          1           0       -1.318660   -0.088533   -1.672467
     25          1           0       -1.824686   -1.555215    0.134120
     26          1           0       -3.925243   -0.904852   -1.039165
     27          1           0       -4.102951   -1.368098    0.672312
     28          1           0       -4.061424    0.343304    0.218800
     29          1           0       -1.073778    0.236796    1.555086
 ---------------------------------------------------------------------

 SCF Done:  E(UB3LYP) =  -446.429345796     A.U. after   26 cycles

 The electronic state is 2-A.
 Alpha  occ. eigenvalues --  -18.99674 -14.20366 -10.11873 -10.08810 -10.08213
 Alpha  occ. eigenvalues --  -10.06619 -10.05883 -10.05786 -10.05502 -10.05154
 Alpha  occ. eigenvalues --   -0.90906  -0.80242  -0.70629  -0.65461  -0.61789
 Alpha  occ. eigenvalues --   -0.59520  -0.54242  -0.53421  -0.48782  -0.44710
 Alpha  occ. eigenvalues --   -0.40365  -0.37949  -0.36566  -0.35903  -0.34579
 Alpha  occ. eigenvalues --   -0.32019  -0.31780  -0.30696  -0.29278  -0.28912
 Alpha  occ. eigenvalues --   -0.28219  -0.27322  -0.26620  -0.25926  -0.25224
 Alpha  occ. eigenvalues --   -0.23181  -0.22847  -0.21993  -0.19880  -0.15697
 Alpha  occ. eigenvalues --   -0.13896   0.04631
 Alpha virt. eigenvalues --    0.06689   0.07666   0.08182   0.09171   0.09523
 Alpha virt. eigenvalues --    0.09812   0.10910   0.11113   0.11554   0.12244
 Alpha virt. eigenvalues --    0.12436   0.13453   0.13794   0.14305   0.14936

  Beta  occ. eigenvalues --  -18.99667 -14.20346 -10.11869 -10.08786 -10.08158
  Beta  occ. eigenvalues --  -10.06608 -10.05859 -10.05779 -10.05490 -10.05120
  Beta  occ. eigenvalues --   -0.90888  -0.80208  -0.70605  -0.65434  -0.61747
  Beta  occ. eigenvalues --   -0.59454  -0.54183  -0.53324  -0.48734  -0.44676
  Beta  occ. eigenvalues --   -0.40317  -0.37903  -0.36533  -0.35860  -0.34523
  Beta  occ. eigenvalues --   -0.31993  -0.31743  -0.30653  -0.29246  -0.28869
  Beta  occ. eigenvalues --   -0.28187  -0.27284  -0.26588  -0.25882  -0.25191
  Beta  occ. eigenvalues --   -0.23153  -0.22822  -0.21961  -0.19858  -0.15682
  Beta  occ. eigenvalues --   -0.13845
  Beta virt. eigenvalues --    0.06816   0.07656   0.08178   0.08956   0.09514
  Beta virt. eigenvalues --    0.10043   0.10553   0.11163   0.11559   0.11901
  Beta virt. eigenvalues --    0.12681   0.12869   0.13805   0.14042   0.14566

 Mulliken charges and spin densities:
               1          2
     1  C    0.645472  -1.298824
     2  C   -1.125260   0.924239
     3  C    0.496139  -0.013977
     4  C    1.026225  -1.831662
     5  C   -1.000493   1.256151
     6  C    0.228962  -0.815363
     7  C    0.004063  -0.873223
     8  N   -0.528153   0.380515
     9  C    1.447353  -1.816391
    10  O   -0.161671  -0.003632
    11  H    0.047678   0.079071
    12  H   -0.074685   0.201746
    13  H   -0.278192   0.415850
    14  H    0.031072   0.143195
    15  H    0.137590  -0.039914
    16  H    0.146630   0.021778
    17  H    0.107762   0.069321
    18  H   -0.480242   0.639463
    19  H   -0.358263   0.496773
    20  H   -0.139313   0.280676
    21  H   -0.023629   0.172985
    22  H    0.046674   0.084289
    23  H    0.221682  -0.044142
    24  H   -0.331509   0.515569
    25  H    0.131772   0.111316
    26  H   -0.617831   0.767531
    27  H   -0.519990   0.654466
    28  H   -0.298806   0.436735
    29  H    0.218964   0.085457
 Sum of Mulliken charges =  -1.00000   1.00000

 Dipole moment (field-independent basis, Debye):
    X=              4.0532    Y=              3.3312    Z=              2.2057  Tot=              5.6913
 Quadrupole moment (field-independent basis, Debye-Ang):
   XX=           -137.8239   YY=           -105.1960   ZZ=           -102.3679
   XY=             -6.4796   XZ=             -1.1767   YZ=             -5.3850

 Summary of Natural Population Analysis:

                                       Natural Population
                Natural  -----------------------------------------------
    Atom  No    Charge         Core      Valence    Rydberg      Total
 -----------------------------------------------------------------------
      C    1   -0.28258      0.99967     2.27892    0.00399     3.28258
      C    2   -0.19063      0.99961     2.18207    0.00895     3.19063
      C    3   -0.11656      0.99955     2.10416    0.01285     3.11656
      C    4   -0.29322      0.99965     2.28600    0.00758     3.29322
      C    5    0.12915      0.99952     1.85422    0.01711     2.87085
      C    6   -0.28993      0.99961     2.28343    0.00688     3.28993
      C    7   -0.09703      0.99957     2.08549    0.01196     3.09703
      N    8   -0.35702      0.99974     2.84411    0.01318     3.85702
      C    9   -0.17301      0.99966     2.16483    0.00853     3.17301
      O   10   -0.39308      0.99989     3.38696    0.00623     4.39308
      H   11    0.09536      0.00000     0.40353    0.00110     0.40464
      H   12    0.09574      0.00000     0.40338    0.00088     0.40426
      H   13    0.09518      0.00000     0.40361    0.00121     0.40482
      H   14    0.10063      0.00000     0.39807    0.00130     0.39937
      H   15    0.09530      0.00000     0.40351    0.00118     0.40470
      H   16    0.09451      0.00000     0.40340    0.00210     0.40549
      H   17    0.09847      0.00000     0.39997    0.00156     0.40153
      H   18    0.09999      0.00000     0.39823    0.00178     0.40001
      H   19    0.10170      0.00000     0.39724    0.00106     0.39830
      H   20    0.09900      0.00000     0.40006    0.00093     0.40100
      H   21    0.10118      0.00000     0.39790    0.00092     0.39882
      H   22    0.10027      0.00000     0.39870    0.00103     0.39973
      H   23    0.09519      0.00000     0.40318    0.00163     0.40481
      H   24    0.09311      0.00000     0.40501    0.00187     0.40689
      H   25    0.18321      0.00000     0.31292    0.00388     0.31679
      H   26    0.08541      0.00000     0.41178    0.00281     0.41459
      H   27    0.09694      0.00000     0.40136    0.00170     0.40306
      H   28    0.09075      0.00000     0.40766    0.00159     0.40925
      H   29    0.24197      0.00000     0.25465    0.00338     0.25803
 =======================================================================
   * Total *   -0.00000      9.99647    30.87435    0.12918    41.00000

 Normal termination of Gaussian 16 at Tue Dec  8 13:56:08 2020.
