 Gaussian 16, Revision A.03,

 -----------------------------------------------------------
 # opt freq B3LYP/6-31G(d) empiricaldispersion=gd3bj scf=xqc
 -----------------------------------------------------------

 -------------------------------
 CID_147145722_JID_4798_neutraal
 -------------------------------
 Symbolic Z-matrix:
 Charge =  0 Multiplicity = 1

 SCF Done:  E(RB3LYP) =  -916.862015760     A.U. after   15 cycles
 SCF Done:  E(RB3LYP) =  -916.864983549     A.U. after   12 cycles
 SCF Done:  E(RB3LYP) =  -916.865663720     A.U. after   12 cycles
 SCF Done:  E(RB3LYP) =  -916.866301645     A.U. after   13 cycles
 SCF Done:  E(RB3LYP) =  -916.866480113     A.U. after   12 cycles
 SCF Done:  E(RB3LYP) =  -916.866892426     A.U. after   12 cycles
 SCF Done:  E(RB3LYP) =  -916.866941785     A.U. after   10 cycles
 SCF Done:  E(RB3LYP) =  -916.866960210     A.U. after   11 cycles
 SCF Done:  E(RB3LYP) =  -916.866960601     A.U. after   10 cycles
 SCF Done:  E(RB3LYP) =  -916.866963635     A.U. after   10 cycles
 SCF Done:  E(RB3LYP) =  -916.866963647     A.U. after    7 cycles
 Optimization completed.
    -- Stationary point found.
 Normal termination of Gaussian 16 at Thu Dec 10 10:39:07 2020.

 --------------------------------------------------------------------
 #N Geom=AllCheck Guess=TCheck SCRF=Check GenChk RB3LYP/6-31G(d) Freq
 --------------------------------------------------------------------

 Structure from the checkpoint file:  "JID_4798.chk"
 -------------------------------
 CID_147145722_JID_4798_neutraal
 -------------------------------
 Charge =  0 Multiplicity = 1

 SCF Done:  E(RB3LYP) =  -916.866963647     A.U. after    1 cycles

  Exact polarizability: 179.026  -0.643 151.334   1.740  -5.496  90.089
 Approx polarizability: 258.585  -0.625 270.684   9.648 -14.390 152.596

                      1                      2                      3
                      A                      A                      A
 Frequencies --     57.3724                89.6228               148.2961
 Red. masses --      4.7334                 3.9050                 4.1252
 Frc consts  --      0.0092                 0.0185                 0.0535
 IR Inten    --      1.2633                 0.7587                 1.0925

                      4                      5                      6
                      A                      A                      A
 Frequencies --    176.7845               231.1608               286.4346
 Red. masses --      4.6475                 5.3700                 1.0782
 Frc consts  --      0.0856                 0.1691                 0.0521
 IR Inten    --      2.5990                 0.9754                20.8219

                      7                      8                      9
                      A                      A                      A
 Frequencies --    291.9316               317.9172               353.6549
 Red. masses --      3.7639                 4.4553                 4.3789
 Frc consts  --      0.1890                 0.2653                 0.3227
 IR Inten    --      1.4145                 0.4991                 1.9099

                     10                     11                     12
                      A                      A                      A
 Frequencies --    398.7135               424.4007               436.4123
 Red. masses --      6.8961                 4.8298                 3.0543
 Frc consts  --      0.6459                 0.5125                 0.3427
 IR Inten    --      0.6076                 3.2935                 5.6596

                     13                     14                     15
                      A                      A                      A
 Frequencies --    490.3684               504.4342               527.9827
 Red. masses --      3.6335                 4.2487                 4.0340
 Frc consts  --      0.5148                 0.6370                 0.6626
 IR Inten    --      3.1800                 0.9367                 1.7689

                     16                     17                     18
                      A                      A                      A
 Frequencies --    574.0349               598.7788               631.5330
 Red. masses --      2.7526                 3.4030                 2.9028
 Frc consts  --      0.5344                 0.7189                 0.6821
 IR Inten    --    121.5519                 8.5566               181.1543

                     19                     20                     21
                      A                      A                      A
 Frequencies --    651.2624               685.0759               707.4669
 Red. masses --      2.5902                 2.5850                 3.1775
 Frc consts  --      0.6473                 0.7148                 0.9370
 IR Inten    --    109.2735                 4.1631                 2.1022

                     22                     23                     24
                      A                      A                      A
 Frequencies --    719.7998               777.1483               781.6452
 Red. masses --      5.1636                 2.1607                 1.9406
 Frc consts  --      1.5763                 0.7689                 0.6986
 IR Inten    --     23.7964                28.0985                10.5020

                     25                     26                     27
                      A                      A                      A
 Frequencies --    803.4263               828.1497               843.1417
 Red. masses --      1.6194                 2.5313                 1.5226
 Frc consts  --      0.6159                 1.0229                 0.6377
 IR Inten    --     26.3395                 7.9234                29.0896

                     28                     29                     30
                      A                      A                      A
 Frequencies --    906.7035               926.7203               935.1335
 Red. masses --      3.9601                 1.7037                 2.4076
 Frc consts  --      1.9182                 0.8621                 1.2405
 IR Inten    --     15.9897                 0.9455                 4.1108

                     31                     32                     33
                      A                      A                      A
 Frequencies --    971.0083               977.9432               985.3091
 Red. masses --      2.2802                 2.0864                 2.3118
 Frc consts  --      1.2667                 1.1756                 1.3223
 IR Inten    --      3.6084                 0.7751                 2.4352

                     34                     35                     36
                      A                      A                      A
 Frequencies --    992.3254              1002.8797              1061.3730
 Red. masses --      1.3178                 2.3941                 2.7616
 Frc consts  --      0.7646                 1.4187                 1.8330
 IR Inten    --      0.5763                 1.3855                11.2215

                     37                     38                     39
                      A                      A                      A
 Frequencies --   1101.2196              1118.1301              1169.5514
 Red. masses --      1.9663                 1.4690                 1.3070
 Frc consts  --      1.4049                 1.0820                 1.0533
 IR Inten    --      2.3116                 0.8358                 0.0679

                     40                     41                     42
                      A                      A                      A
 Frequencies --   1179.7365              1212.3685              1227.6603
 Red. masses --      1.1749                 1.0942                 1.4028
 Frc consts  --      0.9635                 0.9475                 1.2456
 IR Inten    --      3.9058                 2.3229                 3.6135

                     43                     44                     45
                      A                      A                      A
 Frequencies --   1233.1590              1282.9894              1292.1543
 Red. masses --      1.4534                 1.3492                 1.9369
 Frc consts  --      1.3022                 1.3085                 1.9054
 IR Inten    --     15.8437                 1.4835                28.5159

                     46                     47                     48
                      A                      A                      A
 Frequencies --   1324.2425              1342.1200              1350.4076
 Red. masses --      2.0802                 1.7857                 1.3731
 Frc consts  --      2.1493                 1.8951                 1.4753
 IR Inten    --     15.1947                20.4139                 3.0166

                     49                     50                     51
                      A                      A                      A
 Frequencies --   1373.3403              1405.0203              1456.2515
 Red. masses --      5.1150                 1.4821                 1.7065
 Frc consts  --      5.6839                 1.7239                 2.1322
 IR Inten    --     16.0929                 2.6894                 0.9666

                     52                     53                     54
                      A                      A                      A
 Frequencies --   1480.2154              1534.6452              1633.0453
 Red. masses --      3.0465                 3.1450                 6.1553
 Frc consts  --      3.9327                 4.3640                 9.6715
 IR Inten    --     10.9820                76.3909                12.6203

                     55                     56                     57
                      A                      A                      A
 Frequencies --   1662.7453              1666.2518              1694.9351
 Red. masses --      5.0872                 6.5800                 1.2257
 Frc consts  --      8.2867                10.7636                 2.0746
 IR Inten    --     71.4699                32.6545               123.9605

                     58                     59                     60
                      A                      A                      A
 Frequencies --   1729.6264              3013.7526              3056.5756
 Red. masses --      5.6377                 1.0832                 1.0843
 Frc consts  --      9.9370                 5.7966                 5.9683
 IR Inten    --      1.0540                21.0322                24.9425

                     61                     62                     63
                      A                      A                      A
 Frequencies --   3174.8581              3178.7714              3184.4343
 Red. masses --      1.0842                 1.0869                 1.0869
 Frc consts  --      6.4386                 6.4708                 6.4941
 IR Inten    --      1.2348                13.8537                10.9967

                     64                     65                     66
                      A                      A                      A
 Frequencies --   3186.7915              3196.9288              3199.4264
 Red. masses --      1.0904                 1.0944                 1.0952
 Frc consts  --      6.5245                 6.5903                 6.6053
 IR Inten    --     14.6372                 5.5167                45.1353

                     67                     68                     69
                      A                      A                      A
 Frequencies --   3207.8314              3548.8671              3647.2945
 Red. masses --      1.0980                 1.0479                 1.0979
 Frc consts  --      6.6572                 7.7761                 8.6050
 IR Inten    --     22.8795                12.6502                 7.6358

 - Thermochemistry -
 -------------------
 Temperature   298.150 Kelvin.  Pressure   1.00000 Atm.
 Atom     1 has atomic number  6 and mass  12.00000

 Molecular mass:   201.06122 amu.
 Principal axes and moments of inertia in atomic units:
                           1         2         3
     Eigenvalues --  1537.170663784.343644681.27841
           X            0.99999  -0.00444  -0.00091
           Y            0.00442   0.99985  -0.01666
           Z            0.00098   0.01665   0.99986
 This molecule is an asymmetric top.
 Rotational symmetry number  1.
 Warning -- assumption of classical behavior for rotation
           may cause significant error
 Rotational temperatures (Kelvin)      0.05635     0.02289     0.01850
 Rotational constants (GHZ):           1.17407     0.47690     0.38552
 Zero-point vibrational energy     527324.0 (Joules/Mol)
                                  126.03347 (Kcal/Mol)
 Warning -- explicit consideration of  17 degrees of freedom as
           vibrations may cause significant error
 Vibrational temperatures:     82.55   128.95   213.37   254.35   332.59
          (Kelvin)            412.12   420.02   457.41   508.83   573.66
                              610.62   627.90   705.53   725.77   759.65
                              825.91   861.51   908.64   937.02   985.67
                             1017.89  1035.63  1118.14  1124.61  1155.95
                             1191.52  1213.09  1304.54  1333.34  1345.45
                             1397.06  1407.04  1417.64  1427.73  1442.92
                             1527.08  1584.41  1608.74  1682.72  1697.38
                             1744.33  1766.33  1774.24  1845.94  1859.12
                             1905.29  1931.01  1942.94  1975.93  2021.51
                             2095.22  2129.70  2208.01  2349.59  2392.32
                             2397.36  2438.63  2488.55  4336.12  4397.73
                             4567.91  4573.54  4581.69  4585.08  4599.67
                             4603.26  4615.35  5106.03  5247.64

 Zero-point correction=                           0.200847 (Hartree/Particle)
 Thermal correction to Energy=                    0.212092
 Thermal correction to Enthalpy=                  0.213036
 Thermal correction to Gibbs Free Energy=         0.163722
 Sum of electronic and zero-point Energies=           -916.666117
 Sum of electronic and thermal Energies=              -916.654871
 Sum of electronic and thermal Enthalpies=            -916.653927
 Sum of electronic and thermal Free Energies=         -916.703241

                     E (Thermal)             CV                S
                      KCal/Mol        Cal/Mol-Kelvin    Cal/Mol-Kelvin
 Total                  133.090             46.318            103.790
 Electronic               0.000              0.000              0.000
 Translational            0.889              2.981             41.800
 Rotational               0.889              2.981             31.677
 Vibrational            131.312             40.356             30.313
 Vibration     1          0.596              1.975              4.546
 Vibration     2          0.602              1.957              3.668
 Vibration     3          0.618              1.905              2.694
 Vibration     4          0.628              1.871              2.362
 Vibration     5          0.653              1.793              1.870
 Vibration     6          0.684              1.699              1.495
 Vibration     7          0.687              1.689              1.463
 Vibration     8          0.704              1.639              1.321
 Vibration     9          0.730              1.568              1.150
 Vibration    10          0.765              1.473              0.967
 Vibration    11          0.786              1.417              0.877
 Vibration    12          0.797              1.391              0.838
 Vibration    13          0.846              1.271              0.683
 Vibration    14          0.860              1.240              0.647
 Vibration    15          0.883              1.188              0.592
 Vibration    16          0.930              1.087              0.497
 Vibration    17          0.957              1.034              0.452

 Optimization completed.
    -- Stationary point found.
 Normal termination of Gaussian 16 at Thu Dec 10 10:47:00 2020.

 ----------------------------------------------------------------------
 # B3LYP/6-311++G(d,p) empiricaldispersion=gd3bj scf=xqc pop=npa geom=c
 heck
 ----------------------------------------------------------------------

 ---------------------------------------
 CID_147145722_JID_4798_Energie_neutraal
 ---------------------------------------
 Structure from the checkpoint file:  "JID_4798.chk"
 Charge =  0 Multiplicity = 1

 SCF Done:  E(RB3LYP) =  -917.033154522     A.U. after   16 cycles
 Normal termination of Gaussian 16 at Thu Dec 10 10:50:09 2020.

 ----------------------------------------------------------------------
 # B3LYP/6-311++G(d,p) empiricaldispersion=gd3bj scf=xqc pop=npa geom=c
 heck
 ----------------------------------------------------------------------

 -------------------------------------
 CID_147145722_JID_4798_Energie_kation
 -------------------------------------
 Structure from the checkpoint file:  "JID_4798.chk"
 Charge =  1 Multiplicity = 2

 SCF Done:  E(UB3LYP) =  -916.770040659     A.U. after   26 cycles
 Normal termination of Gaussian 16 at Thu Dec 10 11:00:30 2020.
 Gaussian 16:  ES64L-G16RevA.03 25-Dec-2016

 ----------------------------------------------------------------------
 # B3LYP/6-311++G(d,p) empiricaldispersion=gd3bj scf=xqc pop=npa geom=c
 heck
 ----------------------------------------------------------------------

 ------------------------------------
 CID_147145722_JID_4798_Energie_anion
 ------------------------------------
 Structure from the checkpoint file:  "JID_4798.chk"
 Charge = -1 Multiplicity = 2

                         Standard orientation:
 ---------------------------------------------------------------------
 Center     Atomic      Atomic             Coordinates (Angstroms)
 Number     Number       Type             X           Y           Z
 ---------------------------------------------------------------------
      1          6           0       -2.816508    1.612322    0.456177
      2          6           0       -2.068469    1.579881   -0.655395
      3          6           0       -1.242361    0.364291   -1.008850
      4          6           0       -1.814277   -0.946659   -0.407372
      5          6           0       -2.432156   -0.751476    0.952905
      6          6           0       -2.905636    0.444399    1.334208
      7         16           0       -0.375135   -2.129338   -0.344552
      8          6           0        0.768565   -0.776390   -0.193141
      9          6           0        0.200701    0.459794   -0.527564
     10          6           0        0.993692    1.598836   -0.444401
     11          6           0        2.329121    1.506937   -0.052473
     12          6           0        2.895237    0.262064    0.268193
     13          6           0        2.096647   -0.892843    0.198739
     14          7           0        4.215712    0.176716    0.722340
     15          1           0       -3.364908    2.510187    0.729162
     16          1           0       -1.983604    2.451037   -1.299811
     17          1           0       -1.226941    0.244568   -2.101857
     18          1           0       -2.546600   -1.402867   -1.084687
     19          1           0       -2.521887   -1.624613    1.592539
     20          1           0       -3.385740    0.558721    2.302671
     21          1           0        0.573372    2.571924   -0.683279
     22          1           0        2.937866    2.404692    0.018581
     23          1           0        2.513138   -1.858369    0.472963
     24          1           0        4.655659   -0.722555    0.570111
     25          1           0        4.814496    0.932726    0.413911
 ---------------------------------------------------------------------

 SCF Done:  E(UB3LYP) =  -917.028847387     A.U. after   31 cycles

 The electronic state is 2-A.
 Alpha  occ. eigenvalues --  -88.72578 -14.20466 -10.09988 -10.08908 -10.08437
 Alpha  occ. eigenvalues --  -10.06856 -10.05879 -10.05428 -10.05332 -10.05179
 Alpha  occ. eigenvalues --  -10.03646 -10.03577 -10.03323 -10.03247  -7.81224
 Alpha  occ. eigenvalues --   -5.77581  -5.77254  -5.76641  -0.80788  -0.75812
 Alpha  occ. eigenvalues --   -0.71046  -0.67060  -0.64192  -0.62329  -0.59008
 Alpha  occ. eigenvalues --   -0.57301  -0.50771  -0.47376  -0.47289  -0.45950
 Alpha  occ. eigenvalues --   -0.40064  -0.39818  -0.38096  -0.36757  -0.33809
 Alpha  occ. eigenvalues --   -0.33486  -0.32094  -0.30801  -0.29770  -0.29385
 Alpha  occ. eigenvalues --   -0.27542  -0.26489  -0.25489  -0.24499  -0.22438
 Alpha  occ. eigenvalues --   -0.21074  -0.20506  -0.19269  -0.18692  -0.16068
 Alpha  occ. eigenvalues --   -0.10720  -0.09787  -0.08226   0.04549
 Alpha virt. eigenvalues --    0.06237   0.08127   0.08490   0.09265   0.09583
 Alpha virt. eigenvalues --    0.10164   0.10357   0.11446   0.11604   0.11951
 Alpha virt. eigenvalues --    0.12379   0.13265   0.13799   0.14384   0.15247

  Beta  occ. eigenvalues --  -88.72555 -14.20410 -10.09972 -10.08905 -10.08433
  Beta  occ. eigenvalues --  -10.06866 -10.05867 -10.05407 -10.05299 -10.05172
  Beta  occ. eigenvalues --  -10.03575 -10.03498 -10.03076 -10.03008  -7.81201
  Beta  occ. eigenvalues --   -5.77523  -5.77234  -5.76627  -0.80720  -0.75699
  Beta  occ. eigenvalues --   -0.70846  -0.66887  -0.64008  -0.62070  -0.58844
  Beta  occ. eigenvalues --   -0.57129  -0.50650  -0.47230  -0.47097  -0.45602
  Beta  occ. eigenvalues --   -0.39983  -0.39694  -0.37956  -0.36575  -0.33632
  Beta  occ. eigenvalues --   -0.33408  -0.31967  -0.30700  -0.29658  -0.29230
  Beta  occ. eigenvalues --   -0.27441  -0.26351  -0.25364  -0.24297  -0.22309
  Beta  occ. eigenvalues --   -0.20938  -0.20432  -0.19083  -0.17777  -0.16009
  Beta  occ. eigenvalues --   -0.10616  -0.08767  -0.07973
  Beta virt. eigenvalues --    0.07412   0.08166   0.08739   0.09000   0.09278
  Beta virt. eigenvalues --    0.09891   0.10309   0.10517   0.11421   0.11842
  Beta virt. eigenvalues --    0.11980   0.12702   0.13246   0.13983   0.14556

 Mulliken charges and spin densities:
               1          2
     1  C   -0.190950   0.066678
     2  C   -0.497864   0.215430
     3  C    1.102085  -0.612098
     4  C    0.182393   0.041181
     5  C   -0.608491   0.160075
     6  C   -0.385606   0.087574
     7  S   -0.273440   0.071475
     8  C    0.210962  -0.251938
     9  C    0.512913  -0.492324
    10  C   -0.486307   0.220352
    11  C   -0.500895   0.151007
    12  C    0.548644  -0.838729
    13  C   -0.308477   0.373776
    14  N   -0.279890  -0.024384
    15  H    0.110288  -0.005080
    16  H    0.127805  -0.015551
    17  H    0.132108   0.054559
    18  H    0.230273   0.009737
    19  H    0.141466  -0.014203
    20  H    0.114509  -0.005344
    21  H    0.047774   0.090590
    22  H   -0.194393   0.345024
    23  H   -0.286552   0.444060
    24  H   -0.196682   0.436164
    25  H   -0.251672   0.491969
 Sum of Mulliken charges =  -1.00000   1.00000

 Dipole moment (field-independent basis, Debye):
    X=             -4.7862    Y=              0.4154    Z=             -1.3891  Tot=              5.0010
 Quadrupole moment (field-independent basis, Debye-Ang):
   XX=           -159.1819   YY=           -112.8238   ZZ=           -107.5960
   XY=              0.6083   XZ=             -2.8352   YZ=             -1.4263

 Summary of Natural Population Analysis:

                                       Natural Population
                Natural  -----------------------------------------------
    Atom  No    Charge         Core      Valence    Rydberg      Total
 -----------------------------------------------------------------------
      C    1   -0.10464      0.99953     2.09594    0.00917     3.10464
      C    2   -0.04347      0.99954     2.03421    0.00972     3.04347
      C    3   -0.13209      0.99955     2.11877    0.01377     3.13209
      C    4   -0.15526      0.99955     2.14208    0.01363     3.15526
      C    5   -0.05330      0.99952     2.04361    0.01017     3.05330
      C    6   -0.10465      0.99953     2.09575    0.00937     3.10465
      S    7    0.11848      4.99955     2.86396    0.01801     7.88152
      C    8   -0.06817      0.99937     2.05675    0.01205     3.06817
      C    9   -0.03462      0.99942     2.02355    0.01166     3.03462
      C   10   -0.08544      0.99951     2.07656    0.00937     3.08544
      C   11   -0.13474      0.99953     2.12514    0.01007     3.13474
      C   12    0.09002      0.99950     1.89933    0.01116     2.90998
      C   13   -0.13599      0.99945     2.12565    0.01090     3.13599
      N   14   -0.39770      0.99972     2.88746    0.01052     3.89770
      H   15    0.09056      0.00000     0.40833    0.00111     0.40944
      H   16    0.08869      0.00000     0.41031    0.00099     0.41131
      H   17    0.10693      0.00000     0.39142    0.00165     0.39307
      H   18    0.10405      0.00000     0.39426    0.00169     0.39595
      H   19    0.09194      0.00000     0.40706    0.00100     0.40806
      H   20    0.09048      0.00000     0.40782    0.00170     0.40952
      H   21    0.10089      0.00000     0.39814    0.00097     0.39911
      H   22    0.09690      0.00000     0.40218    0.00091     0.40310
      H   23    0.10032      0.00000     0.39797    0.00171     0.39968
      H   24    0.18543      0.00000     0.31082    0.00375     0.31457
      H   25    0.18538      0.00000     0.31041    0.00420     0.31462
 =======================================================================
   * Total *    0.00000     17.99326    34.82749    0.17925    53.00000

 Normal termination of Gaussian 16 at Thu Dec 10 11:12:14 2020.
