 Gaussian 16, Revision A.03,

 -----------------------------------------------------------
 # opt freq B3LYP/6-31G(d) empiricaldispersion=gd3bj scf=xqc
 -----------------------------------------------------------

 ------------------------------
 CID_93512834_JID_1031_neutraal
 ------------------------------
 Symbolic Z-matrix:
 Charge =  0 Multiplicity = 1

 SCF Done:  E(RB3LYP) =  -485.610902885     A.U. after   13 cycles
 SCF Done:  E(RB3LYP) =  -485.613041581     A.U. after   11 cycles
 SCF Done:  E(RB3LYP) =  -485.612849074     A.U. after   11 cycles
 SCF Done:  E(RB3LYP) =  -485.613126603     A.U. after   10 cycles
 SCF Done:  E(RB3LYP) =  -485.613546660     A.U. after   10 cycles
 SCF Done:  E(RB3LYP) =  -485.613562389     A.U. after    9 cycles
 SCF Done:  E(RB3LYP) =  -485.613578674     A.U. after    9 cycles
 SCF Done:  E(RB3LYP) =  -485.613582785     A.U. after    8 cycles
 SCF Done:  E(RB3LYP) =  -485.613583727     A.U. after    7 cycles
 SCF Done:  E(RB3LYP) =  -485.613584250     A.U. after    7 cycles
 SCF Done:  E(RB3LYP) =  -485.613584337     A.U. after    6 cycles
 SCF Done:  E(RB3LYP) =  -485.613584395     A.U. after    6 cycles
 Optimization completed.
    -- Stationary point found.
 Normal termination of Gaussian 16 at Tue Dec  8 19:12:34 2020.

 --------------------------------------------------------------------
 #N Geom=AllCheck Guess=TCheck SCRF=Check GenChk RB3LYP/6-31G(d) Freq
 --------------------------------------------------------------------

 Structure from the checkpoint file:  "JID_1031.chk"
 ------------------------------
 CID_93512834_JID_1031_neutraal
 ------------------------------
 Charge =  0 Multiplicity = 1

 SCF Done:  E(RB3LYP) =  -485.613584395     A.U. after    1 cycles

  Exact polarizability: 113.704  -0.827 102.382   0.465  -1.920  99.369
 Approx polarizability: 146.147  -2.349 139.079   0.395  -2.439 143.478

                      1                      2                      3
                      A                      A                      A
 Frequencies --     55.9608                87.2276               101.0465
 Red. masses --      2.7814                 2.0595                 2.8477
 Frc consts  --      0.0051                 0.0092                 0.0171
 IR Inten    --      0.0377                 1.9263                 0.6373

                      4                      5                      6
                      A                      A                      A
 Frequencies --    130.3664               139.8888               162.2436
 Red. masses --      2.1130                 2.1285                 2.5670
 Frc consts  --      0.0212                 0.0245                 0.0398
 IR Inten    --      0.1624                 0.4986                 0.7154

                      7                      8                      9
                      A                      A                      A
 Frequencies --    183.1220               196.8717               213.6298
 Red. masses --      1.6754                 1.7455                 1.3723
 Frc consts  --      0.0331                 0.0399                 0.0369
 IR Inten    --      0.8764                 0.3545                 0.6597

                     10                     11                     12
                      A                      A                      A
 Frequencies --    223.3395               263.3807               276.9730
 Red. masses --      1.4605                 1.6799                 1.5197
 Frc consts  --      0.0429                 0.0687                 0.0687
 IR Inten    --      2.6090                 0.6808                26.4716

                     13                     14                     15
                      A                      A                      A
 Frequencies --    302.6899               326.6436               347.5434
 Red. masses --      2.4671                 1.7668                 2.0418
 Frc consts  --      0.1332                 0.1111                 0.1453
 IR Inten    --     11.2902                 9.2430                 1.9317

                     16                     17                     18
                      A                      A                      A
 Frequencies --    379.4980               391.7150               421.6711
 Red. masses --      2.5128                 2.0517                 2.3627
 Frc consts  --      0.2132                 0.1855                 0.2475
 IR Inten    --      1.5398                 9.6053                 1.5196

                     19                     20                     21
                      A                      A                      A
 Frequencies --    491.8889               501.2706               620.4329
 Red. masses --      3.0661                 2.2640                 2.6864
 Frc consts  --      0.4371                 0.3352                 0.6093
 IR Inten    --      1.0689                 0.8868                 6.9871

                     22                     23                     24
                      A                      A                      A
 Frequencies --    691.2215               758.3248               785.1713
 Red. masses --      2.9925                 1.2746                 1.3908
 Frc consts  --      0.8424                 0.4319                 0.5052
 IR Inten    --      8.7214                13.3291                 1.3058

                     25                     26                     27
                      A                      A                      A
 Frequencies --    823.3559               839.3545               873.8581
 Red. masses --      2.0492                 1.6532                 1.5449
 Frc consts  --      0.8185                 0.6862                 0.6951
 IR Inten    --      2.1115                 8.4938                 3.7289

                     28                     29                     30
                      A                      A                      A
 Frequencies --    913.6589               948.1946               960.7055
 Red. masses --      1.6919                 1.7281                 1.6190
 Frc consts  --      0.8322                 0.9154                 0.8804
 IR Inten    --     74.4642               177.9867                 8.3319

                     31                     32                     33
                      A                      A                      A
 Frequencies --    985.6402              1011.9660              1041.6507
 Red. masses --      1.6323                 1.9146                 2.0477
 Frc consts  --      0.9343                 1.1552                 1.3090
 IR Inten    --      4.1045                19.6643                 2.9443

                     34                     35                     36
                      A                      A                      A
 Frequencies --   1067.6690              1095.2316              1110.7895
 Red. masses --      1.8879                 1.6343                 1.9595
 Frc consts  --      1.2680                 1.1550                 1.4245
 IR Inten    --      0.0496                 0.9025                 1.5083

                     37                     38                     39
                      A                      A                      A
 Frequencies --   1117.6469              1136.6974              1153.0989
 Red. masses --      4.7387                 2.3102                 1.8397
 Frc consts  --      3.4875                 1.7587                 1.4412
 IR Inten    --    116.8977                31.0078                 4.0923

                     40                     41                     42
                      A                      A                      A
 Frequencies --   1170.7804              1192.2014              1204.0560
 Red. masses --      2.1439                 1.2841                 1.9532
 Frc consts  --      1.7314                 1.0753                 1.6684
 IR Inten    --      5.4386                 1.8247                 9.0994

                     43                     44                     45
                      A                      A                      A
 Frequencies --   1228.8220              1249.1165              1289.8628
 Red. masses --      1.5843                 1.5902                 1.3686
 Frc consts  --      1.4095                 1.4618                 1.3415
 IR Inten    --     24.7732                 2.6382                 1.4156

                     46                     47                     48
                      A                      A                      A
 Frequencies --   1298.2627              1329.8052              1344.7334
 Red. masses --      1.5669                 1.1841                 1.1413
 Frc consts  --      1.5560                 1.2338                 1.2160
 IR Inten    --      3.9872                 7.3004                 2.8181

                     49                     50                     51
                      A                      A                      A
 Frequencies --   1380.5697              1397.1193              1403.3619
 Red. masses --      1.4905                 1.3482                 1.3958
 Frc consts  --      1.6737                 1.5505                 1.6196
 IR Inten    --      1.4573                 1.9068                 3.7713

                     52                     53                     54
                      A                      A                      A
 Frequencies --   1409.4862              1416.4871              1424.7889
 Red. masses --      1.2917                 1.4136                 1.3759
 Frc consts  --      1.5120                 1.6710                 1.6456
 IR Inten    --      1.1282                 0.9018                 4.3089

                     55                     56                     57
                      A                      A                      A
 Frequencies --   1436.2651              1445.0322              1497.9008
 Red. masses --      1.2431                 1.2684                 1.1263
 Frc consts  --      1.5109                 1.5605                 1.4889
 IR Inten    --      4.3890                 7.9868                 0.2474

                     58                     59                     60
                      A                      A                      A
 Frequencies --   1506.8321              1512.7857              1523.5753
 Red. masses --      1.0747                 1.0775                 1.0687
 Frc consts  --      1.4377                 1.4528                 1.4617
 IR Inten    --      1.1187                 4.0442                 3.4592

                     61                     62                     63
                      A                      A                      A
 Frequencies --   1525.6236              1526.6529              1531.6639
 Red. masses --      1.0605                 1.0555                 1.0665
 Frc consts  --      1.4542                 1.4494                 1.4741
 IR Inten    --      3.0258                 1.0012                 2.6196

                     64                     65                     66
                      A                      A                      A
 Frequencies --   1534.3518              1537.2894              1541.9601
 Red. masses --      1.0592                 1.0689                 1.0633
 Frc consts  --      1.4691                 1.4883                 1.4895
 IR Inten    --      2.4335                10.1365                 2.2620

                     67                     68                     69
                      A                      A                      A
 Frequencies --   1543.7634              1547.4995              1710.8517
 Red. masses --      1.0572                 1.0651                 1.0837
 Frc consts  --      1.4845                 1.5028                 1.8688
 IR Inten    --      8.1291                 5.2420                18.2092

                     70                     71                     72
                      A                      A                      A
 Frequencies --   3017.0838              3028.7809              3039.8554
 Red. masses --      1.0372                 1.0689                 1.0638
 Frc consts  --      5.5628                 5.7771                 5.7918
 IR Inten    --     34.4955                20.9637                33.2476

                     73                     74                     75
                      A                      A                      A
 Frequencies --   3043.6690              3047.2395              3050.8842
 Red. masses --      1.0630                 1.0464                 1.0583
 Frc consts  --      5.8022                 5.7248                 5.8036
 IR Inten    --     20.9891                 3.8793                62.5430

                     76                     77                     78
                      A                      A                      A
 Frequencies --   3053.7039              3059.1281              3070.7198
 Red. masses --      1.0594                 1.0406                 1.0954
 Frc consts  --      5.8204                 5.7374                 6.0858
 IR Inten    --     27.8031                13.6927                23.6431

                     79                     80                     81
                      A                      A                      A
 Frequencies --   3072.7511              3076.8097              3087.0258
 Red. masses --      1.1013                 1.0997                 1.1013
 Frc consts  --      6.1264                 6.1339                 6.1833
 IR Inten    --     62.2756                27.3675                39.8415

                     82                     83                     84
                      A                      A                      A
 Frequencies --   3089.5418              3111.2205              3117.7956
 Red. masses --      1.0976                 1.1009                 1.1015
 Frc consts  --      6.1727                 6.2786                 6.3085
 IR Inten    --     63.4869                39.7221                44.9126

                     85                     86                     87
                      A                      A                      A
 Frequencies --   3124.1515              3126.0794              3128.7903
 Red. masses --      1.0962                 1.0969                 1.0996
 Frc consts  --      6.3039                 6.3155                 6.3419
 IR Inten    --     75.0403                12.9469                25.2107

                     88                     89                     90
                      A                      A                      A
 Frequencies --   3146.5179              3467.3999              3551.9627
 Red. masses --      1.1008                 1.0493                 1.0914
 Frc consts  --      6.4214                 7.4331                 8.1130
 IR Inten    --     25.0947                 1.6217                 1.0261

 - Thermochemistry -
 -------------------
 Temperature   298.150 Kelvin.  Pressure   1.00000 Atm.
 Atom     1 has atomic number  6 and mass  12.00000

 Molecular mass:   159.16231 amu.
 Principal axes and moments of inertia in atomic units:
                           1         2         3
     Eigenvalues --  1488.449642388.938902738.69793
           X            0.99982   0.01873   0.00006
           Y           -0.01870   0.99841  -0.05320
           Z           -0.00105   0.05319   0.99858
 This molecule is an asymmetric top.
 Rotational symmetry number  1.
 Warning -- assumption of classical behavior for rotation
           may cause significant error
 Rotational temperatures (Kelvin)      0.05819     0.03626     0.03163
 Rotational constants (GHZ):           1.21250     0.75546     0.65898
 Zero-point vibrational energy     785373.8 (Joules/Mol)
                                  187.70885 (Kcal/Mol)
 Warning -- explicit consideration of  21 degrees of freedom as
           vibrations may cause significant error
 Vibrational temperatures:     80.52   125.50   145.38   187.57   201.27
          (Kelvin)            233.43   263.47   283.25   307.37   321.34
                              378.95   398.50   435.50   469.97   500.04
                              546.01   563.59   606.69   707.72   721.22
                              892.66   994.51  1091.06  1129.69  1184.63
                             1207.64  1257.29  1314.55  1364.24  1382.24
                             1418.12  1455.99  1498.70  1536.14  1575.79
                             1598.18  1608.04  1635.45  1659.05  1684.49
                             1715.31  1732.37  1768.00  1797.20  1855.82
                             1867.91  1913.29  1934.77  1986.33  2010.14
                             2019.12  2027.94  2038.01  2049.95  2066.47
                             2079.08  2155.15  2168.00  2176.56  2192.08
                             2195.03  2196.51  2203.72  2207.59  2211.82
                             2218.54  2221.13  2226.51  2461.53  4340.91
                             4357.74  4373.67  4379.16  4384.30  4389.54
                             4393.60  4401.40  4418.08  4421.00  4426.84
                             4441.54  4445.16  4476.35  4485.81  4494.96
                             4497.73  4501.63  4527.14  4988.82  5110.48

 Zero-point correction=                           0.299133 (Hartree/Particle)
 Thermal correction to Energy=                    0.313196
 Thermal correction to Enthalpy=                  0.314140
 Thermal correction to Gibbs Free Energy=         0.259618
 Sum of electronic and zero-point Energies=           -485.314451
 Sum of electronic and thermal Energies=              -485.300388
 Sum of electronic and thermal Enthalpies=            -485.299444
 Sum of electronic and thermal Free Energies=         -485.353966

                     E (Thermal)             CV                S
                      KCal/Mol        Cal/Mol-Kelvin    Cal/Mol-Kelvin
 Total                  196.533             52.414            114.751
 Electronic               0.000              0.000              0.000
 Translational            0.889              2.981             41.103
 Rotational               0.889              2.981             30.655
 Vibrational            194.756             46.452             42.993
 Vibration     1          0.596              1.975              4.595
 Vibration     2          0.601              1.958              3.721
 Vibration     3          0.604              1.948              3.434
 Vibration     4          0.612              1.923              2.941
 Vibration     5          0.615              1.913              2.805
 Vibration     6          0.622              1.889              2.523
 Vibration     7          0.631              1.863              2.296
 Vibration     8          0.636              1.844              2.162
 Vibration     9          0.644              1.820              2.012
 Vibration    10          0.649              1.806              1.932
 Vibration    11          0.670              1.740              1.639
 Vibration    12          0.678              1.716              1.552
 Vibration    13          0.694              1.669              1.402
 Vibration    14          0.710              1.622              1.277
 Vibration    15          0.725              1.580              1.177
 Vibration    16          0.750              1.514              1.041
 Vibration    17          0.759              1.488              0.994
 Vibration    18          0.784              1.423              0.886
 Vibration    19          0.848              1.268              0.679
 Vibration    20          0.857              1.247              0.655
 Vibration    21          0.980              0.989              0.416

 Optimization completed.
    -- Stationary point found.
 Normal termination of Gaussian 16 at Tue Dec  8 19:20:03 2020.

 ----------------------------------------------------------------------
 # B3LYP/6-311++G(d,p) empiricaldispersion=gd3bj scf=xqc pop=npa geom=c
 heck
 ----------------------------------------------------------------------

 --------------------------------------
 CID_93512834_JID_1031_Energie_neutraal
 --------------------------------------
 Structure from the checkpoint file:  "JID_1031.chk"
 Charge =  0 Multiplicity = 1

 SCF Done:  E(RB3LYP) =  -485.761378807     A.U. after   13 cycles
 Normal termination of Gaussian 16 at Tue Dec  8 19:22:55 2020.

 ----------------------------------------------------------------------
 # B3LYP/6-311++G(d,p) empiricaldispersion=gd3bj scf=xqc pop=npa geom=c
 heck
 ----------------------------------------------------------------------

 ------------------------------------
 CID_93512834_JID_1031_Energie_kation
 ------------------------------------
 Structure from the checkpoint file:  "JID_1031.chk"
 Charge =  1 Multiplicity = 2

 SCF Done:  E(UB3LYP) =  -485.446974875     A.U. after   19 cycles
 Normal termination of Gaussian 16 at Tue Dec  8 19:28:20 2020.
 Gaussian 16:  ES64L-G16RevA.03 25-Dec-2016

 ----------------------------------------------------------------------
 # B3LYP/6-311++G(d,p) empiricaldispersion=gd3bj scf=xqc pop=npa geom=c
 heck
 ----------------------------------------------------------------------

 -----------------------------------
 CID_93512834_JID_1031_Energie_anion
 -----------------------------------
 Structure from the checkpoint file:  "JID_1031.chk"
 Charge = -1 Multiplicity = 2

                         Standard orientation:
 ---------------------------------------------------------------------
 Center     Atomic      Atomic             Coordinates (Angstroms)
 Number     Number       Type             X           Y           Z
 ---------------------------------------------------------------------
      1          6           0       -3.217651   -1.032706    0.210371
      2          6           0       -2.716069    0.269427   -0.419551
      3          6           0       -1.777716    1.085921    0.482416
      4          6           0       -0.495051    0.404514    0.996975
      5          6           0        0.604410    0.029660   -0.022937
      6          6           0        0.879691    1.154667   -1.033096
      7          6           0        1.327920    2.479778   -0.411881
      8          6           0        0.289620   -1.300756   -0.757414
      9          7           0        1.368996   -1.845883   -1.578657
     10          8           0        1.875458   -0.130319    0.657670
     11          6           0        1.925405   -1.005105    1.768864
     12          1           0       -2.402738   -1.742941    0.383626
     13          1           0       -3.951252   -1.526120   -0.436547
     14          1           0       -3.700334   -0.839097    1.176427
     15          1           0       -2.231507    0.053615   -1.379651
     16          1           0       -3.579349    0.903343   -0.661962
     17          1           0       -1.516006    2.017198   -0.032955
     18          1           0       -2.349528    1.389045    1.370698
     19          1           0       -0.032618    1.088627    1.718782
     20          1           0       -0.772813   -0.491039    1.566527
     21          1           0        1.664952    0.801458   -1.711225
     22          1           0       -0.018662    1.303088   -1.644841
     23          1           0        2.211843    2.324507    0.211870
     24          1           0        1.578826    3.205555   -1.193225
     25          1           0        0.547848    2.925890    0.214407
     26          1           0        0.019235   -2.055700   -0.008076
     27          1           0       -0.593433   -1.174819   -1.389081
     28          1           0        1.470682   -1.291793   -2.426719
     29          1           0        2.243566   -1.728108   -1.067635
     30          1           0        1.320919   -0.648055    2.613023
     31          1           0        1.607765   -2.027931    1.521294
     32          1           0        2.972623   -1.035397    2.082015
 ---------------------------------------------------------------------

 SCF Done:  E(UB3LYP) =  -485.744690487     A.U. after   28 cycles

 The electronic state is 2-A.
 Alpha  occ. eigenvalues --  -19.02024 -14.19253 -10.12405 -10.10831 -10.08830
 Alpha  occ. eigenvalues --  -10.06488 -10.06364 -10.06321 -10.06270 -10.05508
 Alpha  occ. eigenvalues --  -10.05490  -0.93077  -0.78365  -0.71126  -0.67828
 Alpha  occ. eigenvalues --   -0.63119  -0.60596  -0.57707  -0.54531  -0.52605
 Alpha  occ. eigenvalues --   -0.47749  -0.43886  -0.40263  -0.38996  -0.37800
 Alpha  occ. eigenvalues --   -0.36359  -0.35117  -0.34366  -0.32851  -0.32062
 Alpha  occ. eigenvalues --   -0.30764  -0.30432  -0.28666  -0.28368  -0.28006
 Alpha  occ. eigenvalues --   -0.26712  -0.25569  -0.24208  -0.23973  -0.23336
 Alpha  occ. eigenvalues --   -0.22168  -0.21659  -0.19906  -0.16655  -0.14020
 Alpha  occ. eigenvalues --    0.04624
 Alpha virt. eigenvalues --    0.06709   0.06861   0.07494   0.08901   0.09123
 Alpha virt. eigenvalues --    0.09507   0.09991   0.10465   0.11460   0.12091
 Alpha virt. eigenvalues --    0.12316   0.12773   0.12952   0.13730   0.13835

  Beta  occ. eigenvalues --  -19.02015 -14.19239 -10.12406 -10.10797 -10.08818
  Beta  occ. eigenvalues --  -10.06473 -10.06344 -10.06301 -10.06254 -10.05487
  Beta  occ. eigenvalues --  -10.05459  -0.93063  -0.78341  -0.71097  -0.67794
  Beta  occ. eigenvalues --   -0.63083  -0.60551  -0.57649  -0.54472  -0.52547
  Beta  occ. eigenvalues --   -0.47680  -0.43838  -0.40238  -0.38966  -0.37775
  Beta  occ. eigenvalues --   -0.36326  -0.35088  -0.34332  -0.32818  -0.32021
  Beta  occ. eigenvalues --   -0.30723  -0.30399  -0.28624  -0.28339  -0.27970
  Beta  occ. eigenvalues --   -0.26683  -0.25526  -0.24180  -0.23938  -0.23297
  Beta  occ. eigenvalues --   -0.22130  -0.21623  -0.19876  -0.16636  -0.14004
  Beta virt. eigenvalues --    0.06751   0.07538   0.07704   0.07996   0.09458
  Beta virt. eigenvalues --    0.09695   0.09990   0.10567   0.10824   0.12047
  Beta virt. eigenvalues --    0.12400   0.12735   0.13039   0.13259   0.14102

 Mulliken charges and spin densities:
               1          2
     1  C    1.094320  -1.710064
     2  C   -0.639535   0.515552
     3  C    0.947333  -1.409149
     4  C    0.894623  -0.860663
     5  C   -1.627322   1.284372
     6  C   -0.658197   0.513865
     7  C    0.254052  -0.895277
     8  C    0.224169  -0.864862
     9  N   -0.246311   0.037599
    10  O   -0.099300   0.034541
    11  C    0.883835  -1.070045
    12  H   -0.181477   0.320219
    13  H   -0.325365   0.458840
    14  H   -0.192647   0.336084
    15  H   -0.185737   0.298758
    16  H   -0.527779   0.697632
    17  H    0.007094   0.129130
    18  H   -0.354431   0.530106
    19  H   -0.017402   0.217847
    20  H    0.281353  -0.111346
    21  H    0.101946   0.019688
    22  H   -0.024128   0.202257
    23  H    0.106741   0.065427
    24  H   -0.321815   0.460228
    25  H   -0.044032   0.170464
    26  H   -0.020291   0.224024
    27  H    0.448567  -0.286015
    28  H    0.021290   0.210348
    29  H    0.160711   0.081705
    30  H   -0.458190   0.609927
    31  H   -0.167781   0.305829
    32  H   -0.334296   0.482978
 Sum of Mulliken charges =  -1.00000   1.00000

 Dipole moment (field-independent basis, Debye):
    X=              2.7085    Y=              0.0998    Z=             -1.8577  Tot=              3.2859
 Quadrupole moment (field-independent basis, Debye-Ang):
   XX=           -136.9055   YY=           -119.7615   ZZ=           -114.6400
   XY=              1.8678   XZ=             -1.4991   YZ=              0.5875

 Summary of Natural Population Analysis:

                                       Natural Population
                Natural  -----------------------------------------------
    Atom  No    Charge         Core      Valence    Rydberg      Total
 -----------------------------------------------------------------------
      C    1   -0.28765      0.99966     2.28234    0.00564     3.28765
      C    2   -0.19127      0.99963     2.18310    0.00854     3.19127
      C    3   -0.18798      0.99962     2.17928    0.00909     3.18798
      C    4   -0.21187      0.99957     2.20088    0.01142     3.21187
      C    5    0.13975      0.99950     1.84347    0.01728     2.86025
      C    6   -0.20180      0.99957     2.19095    0.01129     3.20180
      C    7   -0.28520      0.99966     2.28066    0.00489     3.28520
      C    8   -0.10220      0.99956     2.09180    0.01085     3.10220
      N    9   -0.41772      0.99978     2.90898    0.00896     3.91772
      O   10   -0.31808      0.99987     3.30665    0.01156     4.31808
      C   11   -0.10076      0.99959     2.09161    0.00956     3.10076
      H   12    0.09572      0.00000     0.40297    0.00132     0.40428
      H   13    0.09907      0.00000     0.39989    0.00103     0.40093
      H   14    0.09730      0.00000     0.40141    0.00129     0.40270
      H   15    0.08948      0.00000     0.40887    0.00164     0.41052
      H   16    0.09776      0.00000     0.40072    0.00152     0.40224
      H   17    0.09733      0.00000     0.40117    0.00150     0.40267
      H   18    0.09845      0.00000     0.40017    0.00137     0.40155
      H   19    0.10706      0.00000     0.39143    0.00152     0.39294
      H   20    0.10138      0.00000     0.39662    0.00200     0.39862
      H   21    0.09840      0.00000     0.39992    0.00169     0.40160
      H   22    0.09884      0.00000     0.39997    0.00119     0.40116
      H   23    0.10451      0.00000     0.39399    0.00150     0.39549
      H   24    0.09668      0.00000     0.40235    0.00097     0.40332
      H   25    0.09576      0.00000     0.40306    0.00118     0.40424
      H   26    0.09057      0.00000     0.40770    0.00173     0.40943
      H   27    0.09772      0.00000     0.40086    0.00143     0.40228
      H   28    0.17042      0.00000     0.32752    0.00207     0.32958
      H   29    0.17636      0.00000     0.32129    0.00234     0.32364
      H   30    0.08321      0.00000     0.41514    0.00165     0.41679
      H   31    0.07850      0.00000     0.42009    0.00141     0.42150
      H   32    0.09030      0.00000     0.40860    0.00110     0.40970
 =======================================================================
   * Total *    0.00000     10.99601    33.86347    0.14053    45.00000

 Normal termination of Gaussian 16 at Tue Dec  8 19:36:13 2020.
