 Gaussian 16, Revision A.03,

 -----------------------------------------------------------
 # opt freq B3LYP/6-31G(d) empiricaldispersion=gd3bj scf=xqc
 -----------------------------------------------------------

 ------------------------------
 CID_60918889_JID_6113_neutraal
 ------------------------------
 Symbolic Z-matrix:
 Charge =  0 Multiplicity = 1

 SCF Done:  E(RB3LYP) =  -655.089060717     A.U. after   15 cycles
 SCF Done:  E(RB3LYP) =  -655.091092065     A.U. after   12 cycles
 SCF Done:  E(RB3LYP) =  -655.091252469     A.U. after   11 cycles
 SCF Done:  E(RB3LYP) =  -655.091270511     A.U. after   11 cycles
 SCF Done:  E(RB3LYP) =  -655.091291305     A.U. after   10 cycles
 SCF Done:  E(RB3LYP) =  -655.091298496     A.U. after   10 cycles
 SCF Done:  E(RB3LYP) =  -655.091302929     A.U. after   10 cycles
 SCF Done:  E(RB3LYP) =  -655.091306484     A.U. after   10 cycles
 SCF Done:  E(RB3LYP) =  -655.091309270     A.U. after   10 cycles
 SCF Done:  E(RB3LYP) =  -655.091314646     A.U. after    9 cycles
 SCF Done:  E(RB3LYP) =  -655.091745207     A.U. after   11 cycles
 SCF Done:  E(RB3LYP) =  -655.091746251     A.U. after    8 cycles
 SCF Done:  E(RB3LYP) =  -655.091749958     A.U. after   11 cycles
 SCF Done:  E(RB3LYP) =  -655.091750446     A.U. after    9 cycles
 SCF Done:  E(RB3LYP) =  -655.091750446     A.U. after    7 cycles
 Optimization completed.
    -- Stationary point found.
 Normal termination of Gaussian 16 at Thu Dec 10 21:27:33 2020.

 --------------------------------------------------------------------
 #N Geom=AllCheck Guess=TCheck SCRF=Check GenChk RB3LYP/6-31G(d) Freq
 --------------------------------------------------------------------

 Structure from the checkpoint file:  "JID_6113.chk"
 ------------------------------
 CID_60918889_JID_6113_neutraal
 ------------------------------
 Charge =  0 Multiplicity = 1

 SCF Done:  E(RB3LYP) =  -655.091750446     A.U. after    3 cycles

  Exact polarizability: 174.110 -22.423 165.280 -19.019  -9.564 127.565
 Approx polarizability: 221.148 -47.682 271.978 -38.223 -20.414 203.499

                      1                      2                      3
                      A                      A                      A
 Frequencies --     15.3659                19.1968                40.7626
 Red. masses --      5.9891                 3.4571                 3.0388
 Frc consts  --      0.0008                 0.0008                 0.0030
 IR Inten    --      1.1877                 0.7423                 0.2887

                      4                      5                      6
                      A                      A                      A
 Frequencies --     64.3901               100.3160               124.5875
 Red. masses --      3.5519                 3.8304                 2.0431
 Frc consts  --      0.0087                 0.0227                 0.0187
 IR Inten    --      0.3085                 1.0566                 0.3847

                      7                      8                      9
                      A                      A                      A
 Frequencies --    135.2585               139.2999               167.4360
 Red. masses --      5.1733                 4.0957                 3.5629
 Frc consts  --      0.0558                 0.0468                 0.0588
 IR Inten    --      2.3734                 4.6613                 0.6295

                     10                     11                     12
                      A                      A                      A
 Frequencies --    198.0302               211.7579               230.0727
 Red. masses --      2.0946                 1.7112                 3.7697
 Frc consts  --      0.0484                 0.0452                 0.1176
 IR Inten    --      0.4409                 0.4645                 1.5009

                     13                     14                     15
                      A                      A                      A
 Frequencies --    238.3151               305.7922               332.4942
 Red. masses --      1.0607                 1.6062                 3.0103
 Frc consts  --      0.0355                 0.0885                 0.1961
 IR Inten    --      0.0196                 0.0843                 0.5985

                     16                     17                     18
                      A                      A                      A
 Frequencies --    355.6440               387.1342               395.2511
 Red. masses --      2.2677                 2.3038                 4.2648
 Frc consts  --      0.1690                 0.2034                 0.3925
 IR Inten    --      0.8254                 2.1150                 1.5920

                     19                     20                     21
                      A                      A                      A
 Frequencies --    425.1063               442.0254               467.1240
 Red. masses --      2.8865                 2.1908                 8.3211
 Frc consts  --      0.3073                 0.2522                 1.0698
 IR Inten    --      0.3283                 1.7964                 0.2481

                     22                     23                     24
                      A                      A                      A
 Frequencies --    487.9259               544.3817               566.4221
 Red. masses --      3.7736                 3.1454                 4.2020
 Frc consts  --      0.5293                 0.5492                 0.7943
 IR Inten    --      6.9607                 1.2127                 7.2423

                     25                     26                     27
                      A                      A                      A
 Frequencies --    570.9597               661.5127               710.9079
 Red. masses --      6.8688                 4.4855                 2.3437
 Frc consts  --      1.3193                 1.1565                 0.6979
 IR Inten    --      0.6794                 1.4184                18.0209

                     28                     29                     30
                      A                      A                      A
 Frequencies --    729.7577               750.9158               790.4238
 Red. masses --      3.0807                 1.5170                 1.4608
 Frc consts  --      0.9666                 0.5040                 0.5377
 IR Inten    --     26.5128                 5.1490                92.7832

                     31                     32                     33
                      A                      A                      A
 Frequencies --    821.2606               835.9728               866.0438
 Red. masses --      1.6803                 1.8508                 1.5762
 Frc consts  --      0.6677                 0.7621                 0.6965
 IR Inten    --     32.3907                12.0414                 1.5216

                     34                     35                     36
                      A                      A                      A
 Frequencies --    899.1295               911.5220               926.5295
 Red. masses --      1.7124                 1.5805                 1.7234
 Frc consts  --      0.8156                 0.7737                 0.8717
 IR Inten    --      0.8830                 4.5830                 1.8438

                     37                     38                     39
                      A                      A                      A
 Frequencies --    935.9937               943.8007               950.6916
 Red. masses --      1.4407                 2.3505                 1.5263
 Frc consts  --      0.7436                 1.2336                 0.8128
 IR Inten    --      3.3654                 9.2806                10.3881

                     40                     41                     42
                      A                      A                      A
 Frequencies --    985.8009               989.6355              1021.4314
 Red. masses --      1.8683                 1.3378                 6.2272
 Frc consts  --      1.0698                 0.7720                 3.8279
 IR Inten    --      0.9700                 0.8990                 0.2142

                     43                     44                     45
                      A                      A                      A
 Frequencies --   1033.2872              1035.5878              1079.7603
 Red. masses --      1.4482                 1.7175                 1.8379
 Frc consts  --      0.9110                 1.0852                 1.2625
 IR Inten    --      0.2046                 0.9816                 2.1754

                     46                     47                     48
                      A                      A                      A
 Frequencies --   1087.4029              1128.6569              1146.9030
 Red. masses --      2.3770                 1.6768                 3.9805
 Frc consts  --      1.6560                 1.2585                 3.0849
 IR Inten    --      0.9147                 4.4254                55.4216

                     49                     50                     51
                      A                      A                      A
 Frequencies --   1169.8417              1174.7469              1179.2371
 Red. masses --      1.8257                 2.0987                 1.7749
 Frc consts  --      1.4721                 1.7064                 1.4542
 IR Inten    --      4.2942                 2.8044                 3.6662

                     52                     53                     54
                      A                      A                      A
 Frequencies --   1199.3116              1208.1488              1235.7698
 Red. masses --      1.9171                 1.1266                 1.2344
 Frc consts  --      1.6246                 0.9688                 1.1107
 IR Inten    --      4.4299                 0.2196                 2.1017

                     55                     56                     57
                      A                      A                      A
 Frequencies --   1269.8053              1291.4833              1304.5277
 Red. masses --      4.4236                 1.3434                 1.3423
 Frc consts  --      4.2024                 1.3202                 1.3459
 IR Inten    --      0.9392                 1.2001                 4.1894

                     58                     59                     60
                      A                      A                      A
 Frequencies --   1331.1101              1339.7855              1358.7825
 Red. masses --      1.2965                 1.5425                 1.2366
 Frc consts  --      1.3534                 1.6313                 1.3452
 IR Inten    --      5.7984                 1.6809                 0.4410

                     61                     62                     63
                      A                      A                      A
 Frequencies --   1365.6051              1377.5773              1384.8539
 Red. masses --      2.9675                 1.2835                 1.2722
 Frc consts  --      3.2605                 1.4351                 1.4375
 IR Inten    --      1.4002                 3.5361                17.2873

                     64                     65                     66
                      A                      A                      A
 Frequencies --   1401.2425              1418.9132              1427.7969
 Red. masses --      1.3438                 1.4424                 1.4294
 Frc consts  --      1.5546                 1.7110                 1.7169
 IR Inten    --      9.4642                 0.4552                 2.8519

                     67                     68                     69
                      A                      A                      A
 Frequencies --   1441.5278              1445.1174              1477.6546
 Red. masses --      1.2400                 1.2700                 2.8208
 Frc consts  --      1.5182                 1.5627                 3.6289
 IR Inten    --      3.6096                 8.4617                 5.2494

                     70                     71                     72
                      A                      A                      A
 Frequencies --   1502.2174              1510.6013              1521.3147
 Red. masses --      1.1042                 1.0853                 1.1101
 Frc consts  --      1.4682                 1.4592                 1.5138
 IR Inten    --      3.0366                 4.7550                10.6309

                     73                     74                     75
                      A                      A                      A
 Frequencies --   1523.3141              1526.5793              1532.6871
 Red. masses --      1.1273                 1.0605                 2.1727
 Frc consts  --      1.5412                 1.4561                 3.0071
 IR Inten    --     17.6124                 3.0590                 6.4767

                     76                     77                     78
                      A                      A                      A
 Frequencies --   1534.1599              1535.0680              1542.0569
 Red. masses --      1.0793                 1.0466                 1.0893
 Frc consts  --      1.4967                 1.4531                 1.5261
 IR Inten    --      2.8645                 1.2478                13.7458

                     79                     80                     81
                      A                      A                      A
 Frequencies --   1545.8549              1639.0467              1660.3857
 Red. masses --      1.0699                 5.3231                 5.6318
 Frc consts  --      1.5064                 8.4256                 9.1478
 IR Inten    --     12.0047                 4.8786                 0.9269

                     82                     83                     84
                      A                      A                      A
 Frequencies --   2351.4291              2946.4307              3013.1744
 Red. masses --     12.6809                 1.0709                 1.0608
 Frc consts  --     41.3107                 5.4777                 5.6744
 IR Inten    --     30.5569                42.7381                32.5063

                     85                     86                     87
                      A                      A                      A
 Frequencies --   3038.0400              3042.7784              3044.3134
 Red. masses --      1.0674                 1.0709                 1.0504
 Frc consts  --      5.8047                 5.8416                 5.7359
 IR Inten    --      6.0509                35.7823                 8.5280

                     88                     89                     90
                      A                      A                      A
 Frequencies --   3046.1975              3049.1944              3052.1264
 Red. masses --      1.0441                 1.0781                 1.0637
 Frc consts  --      5.7083                 5.9056                 5.8379
 IR Inten    --     23.4542                23.4909                32.6199

                     91                     92                     93
                      A                      A                      A
 Frequencies --   3059.7698              3075.5311              3095.8378
 Red. masses --      1.0935                 1.1001                 1.1064
 Frc consts  --      6.0319                 6.1310                 6.2476
 IR Inten    --     52.7349                43.4879                18.4501

                     94                     95                     96
                      A                      A                      A
 Frequencies --   3104.1357              3111.1788              3117.4827
 Red. masses --      1.1009                 1.1017                 1.1019
 Frc consts  --      6.2503                 6.2831                 6.3098
 IR Inten    --     40.4792                45.1449                60.1684

                     97                     98                     99
                      A                      A                      A
 Frequencies --   3125.6036              3187.5079              3194.5288
 Red. masses --      1.0996                 1.0879                 1.0909
 Frc consts  --      6.3292                 6.5123                 6.5592
 IR Inten    --     35.3740                 6.4287                 4.3577

                    100                    101                    102
                      A                      A                      A
 Frequencies --   3206.4494              3225.2616              3498.5009
 Red. masses --      1.0915                 1.0952                 1.0732
 Frc consts  --      6.6120                 6.7126                 7.7394
 IR Inten    --     11.1530                 6.6212                 0.9051

 - Thermochemistry -
 -------------------
 Temperature   298.150 Kelvin.  Pressure   1.00000 Atm.
 Atom     1 has atomic number  6 and mass  12.00000

 Molecular mass:   216.16265 amu.
 Principal axes and moments of inertia in atomic units:
                           1         2         3
     Eigenvalues --  2135.085168231.375059056.70104
           X            0.99982   0.01900   0.00276
           Y           -0.01892   0.99952  -0.02439
           Z           -0.00323   0.02433   0.99970
 This molecule is an asymmetric top.
 Rotational symmetry number  1.
 Warning -- assumption of classical behavior for rotation
           may cause significant error
 Rotational temperatures (Kelvin)      0.04057     0.01052     0.00956
 Rotational constants (GHZ):           0.84528     0.21925     0.19927
 Zero-point vibrational energy     832418.9 (Joules/Mol)
                                  198.95290 (Kcal/Mol)
 Warning -- explicit consideration of  25 degrees of freedom as
           vibrations may cause significant error
 Vibrational temperatures:     22.11    27.62    58.65    92.64   144.33
          (Kelvin)            179.25   194.61   200.42   240.90   284.92
                              304.67   331.02   342.88   439.97   478.39
                              511.69   557.00   568.68   611.63   635.98
                              672.09   702.02   783.24   814.96   821.48
                              951.77  1022.84  1049.96  1080.40  1137.24
                             1181.61  1202.78  1246.04  1293.65  1311.48
                             1333.07  1346.69  1357.92  1367.83  1418.35
                             1423.86  1469.61  1486.67  1489.98  1553.53
                             1564.53  1623.89  1650.14  1683.14  1690.20
                             1696.66  1725.54  1738.26  1778.00  1826.97
                             1858.16  1876.92  1915.17  1927.65  1954.98
                             1964.80  1982.03  1992.50  2016.08  2041.50
                             2054.28  2074.04  2079.20  2126.02  2161.36
                             2173.42  2188.83  2191.71  2196.41  2205.19
                             2207.31  2208.62  2218.68  2224.14  2358.22
                             2388.92  3383.18  4239.26  4335.29  4371.06
                             4377.88  4380.09  4382.80  4387.11  4391.33
                             4402.33  4425.00  4454.22  4466.16  4476.29
                             4485.36  4497.05  4586.11  4596.21  4613.37
                             4640.43  5033.56

 Zero-point correction=                           0.317052 (Hartree/Particle)
 Thermal correction to Energy=                    0.333780
 Thermal correction to Enthalpy=                  0.334724
 Thermal correction to Gibbs Free Energy=         0.270174
 Sum of electronic and zero-point Energies=           -654.774699
 Sum of electronic and thermal Energies=              -654.757971
 Sum of electronic and thermal Enthalpies=            -654.757027
 Sum of electronic and thermal Free Energies=         -654.821576

                     E (Thermal)             CV                S
                      KCal/Mol        Cal/Mol-Kelvin    Cal/Mol-Kelvin
 Total                  209.450             62.395            135.857
 Electronic               0.000              0.000              0.000
 Translational            0.889              2.981             42.016
 Rotational               0.889              2.981             33.431
 Vibrational            207.672             56.433             60.410
 Vibration     1          0.593              1.986              7.158
 Vibration     2          0.593              1.986              6.716
 Vibration     3          0.594              1.981              5.222
 Vibration     4          0.597              1.971              4.318
 Vibration     5          0.604              1.949              3.448
 Vibration     6          0.610              1.928              3.028
 Vibration     7          0.613              1.918              2.870
 Vibration     8          0.615              1.914              2.813
 Vibration     9          0.624              1.883              2.464
 Vibration    10          0.637              1.843              2.151
 Vibration    11          0.643              1.823              2.028
 Vibration    12          0.652              1.795              1.878
 Vibration    13          0.656              1.782              1.815
 Vibration    14          0.696              1.663              1.385
 Vibration    15          0.714              1.611              1.248
 Vibration    16          0.731              1.564              1.141
 Vibration    17          0.756              1.498              1.011
 Vibration    18          0.762              1.480              0.980
 Vibration    19          0.787              1.416              0.875
 Vibration    20          0.802              1.378              0.820
 Vibration    21          0.824              1.323              0.746
 Vibration    22          0.844              1.277              0.689
 Vibration    23          0.900              1.152              0.556
 Vibration    24          0.922              1.104              0.511
 Vibration    25          0.927              1.094              0.502

 Optimization completed.
    -- Stationary point found.
 Normal termination of Gaussian 16 at Thu Dec 10 21:38:04 2020.

 ----------------------------------------------------------------------
 # B3LYP/6-311++G(d,p) empiricaldispersion=gd3bj scf=xqc pop=npa geom=c
 heck
 ----------------------------------------------------------------------

 --------------------------------------
 CID_60918889_JID_6113_Energie_neutraal
 --------------------------------------
 Structure from the checkpoint file:  "JID_6113.chk"
 Charge =  0 Multiplicity = 1

 SCF Done:  E(RB3LYP) =  -655.270347172     A.U. after   14 cycles
 Normal termination of Gaussian 16 at Thu Dec 10 21:42:37 2020.

 ----------------------------------------------------------------------
 # B3LYP/6-311++G(d,p) empiricaldispersion=gd3bj scf=xqc pop=npa geom=c
 heck
 ----------------------------------------------------------------------

 ------------------------------------
 CID_60918889_JID_6113_Energie_kation
 ------------------------------------
 Structure from the checkpoint file:  "JID_6113.chk"
 Charge =  1 Multiplicity = 2

 SCF Done:  E(UB3LYP) =  -654.958022736     A.U. after   27 cycles
 Normal termination of Gaussian 16 at Thu Dec 10 21:54:19 2020.
 Gaussian 16:  ES64L-G16RevA.03 25-Dec-2016

 ----------------------------------------------------------------------
 # B3LYP/6-311++G(d,p) empiricaldispersion=gd3bj scf=xqc pop=npa geom=c
 heck
 ----------------------------------------------------------------------

 -----------------------------------
 CID_60918889_JID_6113_Energie_anion
 -----------------------------------
 Structure from the checkpoint file:  "JID_6113.chk"
 Charge = -1 Multiplicity = 2

                         Standard orientation:
 ---------------------------------------------------------------------
 Center     Atomic      Atomic             Coordinates (Angstroms)
 Number     Number       Type             X           Y           Z
 ---------------------------------------------------------------------
      1          6           0        5.177811    1.341146   -0.406301
      2          6           0        4.108201    1.584446    0.662430
      3          6           0        2.743032    0.965151    0.326149
      4          6           0        2.733836   -0.561024    0.116463
      5          6           0        3.305331   -1.310910    1.326157
      6          6           0        1.315585   -1.071588   -0.176388
      7          7           0        0.766572   -0.510317   -1.409722
      8          6           0       -0.524030   -1.079402   -1.807213
      9          6           0       -1.651705   -0.861982   -0.812234
     10          6           0       -2.339073    0.353470   -0.791156
     11          6           0       -3.331187    0.597461    0.169464
     12          6           0       -3.644995   -0.382537    1.125234
     13          6           0       -2.962922   -1.594666    1.104754
     14          6           0       -1.977118   -1.830834    0.144881
     15          6           0       -4.028475    1.849533    0.171723
     16          7           0       -4.590971    2.867601    0.173623
     17          1           0        5.419085    0.276925   -0.504156
     18          1           0        6.106234    1.869267   -0.162602
     19          1           0        4.839540    1.693587   -1.388520
     20          1           0        4.462116    1.207341    1.630074
     21          1           0        3.970565    2.665505    0.794389
     22          1           0        2.031062    1.212527    1.128048
     23          1           0        2.371336    1.452694   -0.585719
     24          1           0        3.343573   -0.795694   -0.765490
     25          1           0        2.748084   -1.066287    2.239658
     26          1           0        3.246367   -2.395649    1.179047
     27          1           0        4.355688   -1.059053    1.500673
     28          1           0        1.351730   -2.161530   -0.308485
     29          1           0        0.677431   -0.887055    0.708396
     30          1           0        0.657511    0.496334   -1.302849
     31          1           0       -0.796443   -0.638903   -2.773244
     32          1           0       -0.379251   -2.153992   -1.970751
     33          1           0       -2.111648    1.121429   -1.525554
     34          1           0       -4.414767   -0.186106    1.863685
     35          1           0       -3.200883   -2.359285    1.838069
     36          1           0       -1.452279   -2.782627    0.134258
 ---------------------------------------------------------------------

 SCF Done:  E(UB3LYP) =  -655.276577981     A.U. after   33 cycles
 SCF Done:  E(UB3LYP) =  -655.276577981     a.u. after    1 cycles

 The electronic state is 2-A.
 Alpha  occ. eigenvalues --  -14.19569 -14.16225 -10.09017 -10.08903 -10.08025
 Alpha  occ. eigenvalues --  -10.07932 -10.07424 -10.07406 -10.07288 -10.06388
 Alpha  occ. eigenvalues --  -10.05905 -10.05471 -10.05139 -10.05079 -10.04959
 Alpha  occ. eigenvalues --  -10.03585  -0.80695  -0.76696  -0.73436  -0.72114
 Alpha  occ. eigenvalues --   -0.67306  -0.64573  -0.63332  -0.59635  -0.58534
 Alpha  occ. eigenvalues --   -0.53865  -0.51679  -0.50899  -0.47431  -0.45765
 Alpha  occ. eigenvalues --   -0.41756  -0.39570  -0.38564  -0.36415  -0.35627
 Alpha  occ. eigenvalues --   -0.34906  -0.34415  -0.33271  -0.32293  -0.31317
 Alpha  occ. eigenvalues --   -0.31206  -0.30208  -0.28809  -0.27867  -0.27193
 Alpha  occ. eigenvalues --   -0.26372  -0.26142  -0.25942  -0.24423  -0.23603
 Alpha  occ. eigenvalues --   -0.23291  -0.22620  -0.22269  -0.22074  -0.21112
 Alpha  occ. eigenvalues --   -0.19486  -0.14195  -0.13174  -0.12251   0.04084
 Alpha virt. eigenvalues --    0.05384   0.07081   0.07637   0.07956   0.08706
 Alpha virt. eigenvalues --    0.09219   0.09558   0.10405   0.10450   0.10790
 Alpha virt. eigenvalues --    0.10994   0.11514   0.12119   0.12176   0.12852

  Beta  occ. eigenvalues --  -14.19560 -14.15955 -10.09013 -10.08903 -10.08017
  Beta  occ. eigenvalues --  -10.07926 -10.07418 -10.07384 -10.07281 -10.06383
  Beta  occ. eigenvalues --  -10.05621 -10.05512 -10.05149 -10.04979 -10.04825
  Beta  occ. eigenvalues --  -10.03217  -0.80672  -0.76276  -0.73118  -0.72039
  Beta  occ. eigenvalues --   -0.67271  -0.64236  -0.62870  -0.59601  -0.58422
  Beta  occ. eigenvalues --   -0.53771  -0.51561  -0.50228  -0.47350  -0.45735
  Beta  occ. eigenvalues --   -0.41619  -0.39520  -0.38548  -0.36093  -0.35566
  Beta  occ. eigenvalues --   -0.34869  -0.34331  -0.33191  -0.32206  -0.31236
  Beta  occ. eigenvalues --   -0.31166  -0.30158  -0.28774  -0.27793  -0.27142
  Beta  occ. eigenvalues --   -0.26119  -0.26056  -0.25104  -0.24176  -0.23453
  Beta  occ. eigenvalues --   -0.23243  -0.22538  -0.22195  -0.21822  -0.20025
  Beta  occ. eigenvalues --   -0.19325  -0.13641  -0.11960  -0.11310
  Beta virt. eigenvalues --    0.05761   0.07134   0.07610   0.07898   0.08711
  Beta virt. eigenvalues --    0.09202   0.09402   0.09536   0.10406   0.10576
  Beta virt. eigenvalues --    0.10743   0.11042   0.11480   0.12110   0.12140

 Mulliken charges and spin densities:
               1          2
     1  C    0.147323  -0.744012
     2  C   -0.556494   0.301546
     3  C   -0.000770  -0.231551
     4  C   -0.023120   0.409303
     5  C   -0.410219  -0.276646
     6  C   -0.375529  -0.415003
     7  N    0.068700   0.022666
     8  C   -0.427912  -0.301876
     9  C    0.635191   0.174403
    10  C   -0.414343   0.137163
    11  C    1.346110   0.153235
    12  C   -0.443836   0.121772
    13  C   -0.323175   0.000429
    14  C   -0.037218   0.310784
    15  C   -1.440650  -0.110241
    16  N   -0.313613   0.147457
    17  H   -0.040163   0.190956
    18  H   -0.259842   0.398338
    19  H    0.044633   0.094947
    20  H    0.089349   0.037865
    21  H   -0.028771   0.184658
    22  H    0.102844   0.050038
    23  H    0.115396  -0.026989
    24  H    0.123579   0.046717
    25  H    0.096519   0.061282
    26  H    0.090345   0.025369
    27  H    0.061305   0.082245
    28  H    0.117521   0.004014
    29  H    0.195230  -0.022435
    30  H    0.104525   0.085201
    31  H    0.182289  -0.006388
    32  H    0.066102   0.076126
    33  H    0.150057   0.012018
    34  H    0.141425  -0.003585
    35  H    0.117947   0.014868
    36  H    0.099266  -0.004673
 Sum of Mulliken charges =  -1.00000   1.00000

 Dipole moment (field-independent basis, Debye):
    X=              5.4902    Y=             -5.0298    Z=              0.3220  Tot=              7.4528
 Quadrupole moment (field-independent basis, Debye-Ang):
   XX=           -202.5239   YY=           -135.8766   ZZ=           -114.5046
   XY=             15.4814   XZ=              2.5523   YZ=             -3.1161

 Summary of Natural Population Analysis:

                                       Natural Population
                Natural  -----------------------------------------------
    Atom  No    Charge         Core      Valence    Rydberg      Total
 -----------------------------------------------------------------------
      C    1   -0.28904      0.99967     2.28405    0.00532     3.28904
      C    2   -0.19220      0.99964     2.18347    0.00909     3.19220
      C    3   -0.18924      0.99961     2.18173    0.00789     3.18924
      C    4   -0.11734      0.99960     2.10838    0.00936     3.11734
      C    5   -0.28631      0.99965     2.28175    0.00491     3.28631
      C    6   -0.08516      0.99960     2.07502    0.01055     3.08516
      N    7   -0.33742      0.99975     2.82650    0.01117     3.83742
      C    8   -0.08930      0.99959     2.07774    0.01196     3.08930
      C    9   -0.04272      0.99950     2.03469    0.00853     3.04272
      C   10   -0.05721      0.99949     2.04771    0.01001     3.05721
      C   11   -0.05260      0.99943     2.04265    0.01052     3.05260
      C   12   -0.05971      0.99954     2.05266    0.00750     3.05971
      C   13   -0.11375      0.99957     2.10527    0.00890     3.11375
      C   14   -0.03447      0.99952     2.02598    0.00896     3.03447
      C   15    0.14971      0.99964     1.83219    0.01846     2.85029
      N   16   -0.16968      0.99979     2.65882    0.01108     3.66968
      H   17    0.09628      0.00000     0.40274    0.00098     0.40372
      H   18    0.09827      0.00000     0.40078    0.00095     0.40173
      H   19    0.09668      0.00000     0.40225    0.00107     0.40332
      H   20    0.09276      0.00000     0.40621    0.00103     0.40724
      H   21    0.09555      0.00000     0.40353    0.00093     0.40445
      H   22    0.09809      0.00000     0.40092    0.00099     0.40191
      H   23    0.09628      0.00000     0.40249    0.00123     0.40372
      H   24    0.09585      0.00000     0.40216    0.00199     0.40415
      H   25    0.09691      0.00000     0.40202    0.00107     0.40309
      H   26    0.09760      0.00000     0.40139    0.00101     0.40240
      H   27    0.09822      0.00000     0.40094    0.00084     0.40178
      H   28    0.08892      0.00000     0.40979    0.00130     0.41108
      H   29    0.08721      0.00000     0.41114    0.00164     0.41279
      H   30    0.17133      0.00000     0.32534    0.00333     0.32867
      H   31    0.09420      0.00000     0.40480    0.00100     0.40580
      H   32    0.09068      0.00000     0.40799    0.00133     0.40932
      H   33    0.09490      0.00000     0.40393    0.00118     0.40510
      H   34    0.09640      0.00000     0.40273    0.00087     0.40360
      H   35    0.09296      0.00000     0.40608    0.00096     0.40704
      H   36    0.08736      0.00000     0.41096    0.00168     0.41264
 =======================================================================
   * Total *   -0.00000     15.99360    42.82681    0.17959    59.00000

 Normal termination of Gaussian 16 at Thu Dec 10 22:11:27 2020.
