 Gaussian 16, Revision A.03,

 -----------------------------------------------------------
 # opt freq B3LYP/6-31G(d) empiricaldispersion=gd3bj scf=xqc
 -----------------------------------------------------------

 -------------------------------
 CID_143704966_JID_1835_neutraal
 -------------------------------
 Symbolic Z-matrix:
 Charge =  0 Multiplicity = 1

 SCF Done:  E(RB3LYP) =  -501.846604392     A.U. after   15 cycles
 SCF Done:  E(RB3LYP) =  -501.848259114     A.U. after   12 cycles
 SCF Done:  E(RB3LYP) =  -501.848346622     A.U. after   11 cycles
 SCF Done:  E(RB3LYP) =  -501.848387782     A.U. after   11 cycles
 SCF Done:  E(RB3LYP) =  -501.848392616     A.U. after   10 cycles
 SCF Done:  E(RB3LYP) =  -501.848412961     A.U. after   10 cycles
 SCF Done:  E(RB3LYP) =  -501.848413760     A.U. after    8 cycles
 SCF Done:  E(RB3LYP) =  -501.848413936     A.U. after    8 cycles
 SCF Done:  E(RB3LYP) =  -501.848414031     A.U. after    7 cycles
 SCF Done:  E(RB3LYP) =  -501.848414082     A.U. after    7 cycles
 Optimization completed.
    -- Stationary point found.

 1\1\GINC-NODE118\FOpt\RB3LYP\6-31G(d)\C9H14O2\VSC10255\08-Dec-2020\0\\
 # opt freq B3LYP/6-31G(d) empiricaldispersion=gd3bj scf=xqc\\CID_14370
 4966_JID_1835_neutraal\\0,1\C,1.0562737522,0.0359872208,0.0174075077\C
 ,0.4747865016,0.4076775443,1.3781222167\C,1.0760032086,1.6711809545,1.
 9863325957\O,-0.9818202841,0.4712562892,1.3397752633\C,-1.5957274656,1
 .3997382322,0.5742322004\O,-1.0235817279,2.2247498865,-0.1153963966\C,
 -3.0713179087,1.3148795848,0.6564130855\C,-3.7475367954,0.429018661,1.
 3970260798\C,-5.2479410236,0.3360708635,1.4561956656\C,-5.7347695339,-

 Normal termination of Gaussian 16 at Tue Dec  8 21:20:39 2020.

 --------------------------------------------------------------------
 #N Geom=AllCheck Guess=TCheck SCRF=Check GenChk RB3LYP/6-31G(d) Freq
 --------------------------------------------------------------------

 Structure from the checkpoint file:  "JID_1835.chk"
 -------------------------------
 CID_143704966_JID_1835_neutraal
 -------------------------------
 Charge =  0 Multiplicity = 1

 SCF Done:  E(RB3LYP) =  -501.848414082     A.U. after    1 cycles

  Exact polarizability: 141.417  15.434  91.806  -8.470  -6.410  78.676
 Approx polarizability: 172.518  35.644 143.204 -21.846 -21.692 113.906

                      1                      2                      3
                      A                      A                      A
 Frequencies --     30.2880                50.9166                61.3724
 Red. masses --      3.2694                 3.7733                 3.3118
 Frc consts  --      0.0018                 0.0058                 0.0073
 IR Inten    --      0.0205                 0.9436                 0.8076

                      4                      5                      6
                      A                      A                      A
 Frequencies --    108.5765               123.5161               136.9978
 Red. masses --      2.2516                 3.0187                 3.2765
 Frc consts  --      0.0156                 0.0271                 0.0362
 IR Inten    --      0.1243                 0.1169                 0.9587

                      7                      8                      9
                      A                      A                      A
 Frequencies --    179.8331               229.0405               236.5983
 Red. masses --      3.2978                 3.7946                 1.1358
 Frc consts  --      0.0628                 0.1173                 0.0375
 IR Inten    --      1.0689                 5.9083                 0.1367

                     10                     11                     12
                      A                      A                      A
 Frequencies --    249.5309               288.3289               345.0457
 Red. masses --      1.0775                 3.7702                 2.3809
 Frc consts  --      0.0395                 0.1847                 0.1670
 IR Inten    --      0.1127                 3.9007                 0.3682

                     13                     14                     15
                      A                      A                      A
 Frequencies --    371.0191               424.1499               430.8714
 Red. masses --      2.2411                 3.4936                 2.1202
 Frc consts  --      0.1818                 0.3703                 0.2319
 IR Inten    --      2.8954                 4.8478                 1.1506

                     16                     17                     18
                      A                      A                      A
 Frequencies --    483.3523               512.3066               658.6842
 Red. masses --      2.9754                 3.0175                 1.6860
 Frc consts  --      0.4096                 0.4666                 0.4310
 IR Inten    --      4.2776                 3.6672                15.4632

                     19                     20                     21
                      A                      A                      A
 Frequencies --    706.0307               722.5833               814.3933
 Red. masses --      2.8960                 3.8129                 5.6797
 Frc consts  --      0.8506                 1.1729                 2.2194
 IR Inten    --      1.8785                14.3389                 7.5223

                     22                     23                     24
                      A                      A                      A
 Frequencies --    865.8521               896.1273               924.5167
 Red. masses --      2.0656                 2.8511                 1.7088
 Frc consts  --      0.9124                 1.3490                 0.8605
 IR Inten    --     10.4248                10.8052                 3.4272

                     25                     26                     27
                      A                      A                      A
 Frequencies --    944.3930               947.6105               949.3208
 Red. masses --      1.4610                 1.2050                 1.9041
 Frc consts  --      0.7677                 0.6375                 1.0111
 IR Inten    --     28.8286                 1.6829                10.7173

                     28                     29                     30
                      A                      A                      A
 Frequencies --    957.4724              1007.4971              1026.1792
 Red. masses --      1.4055                 2.8937                 1.1079
 Frc consts  --      0.7592                 1.7306                 0.6874
 IR Inten    --      0.1615                54.3936                22.9438

                     31                     32                     33
                      A                      A                      A
 Frequencies --   1037.0614              1078.4665              1145.2047
 Red. masses --      1.1014                 2.2114                 1.9701
 Frc consts  --      0.6979                 1.5154                 1.5223
 IR Inten    --     20.3157                 4.2606                 6.6088

                     34                     35                     36
                      A                      A                      A
 Frequencies --   1171.6426              1183.9998              1219.2318
 Red. masses --      2.1487                 2.1501                 1.9310
 Frc consts  --      1.7379                 1.7759                 1.6913
 IR Inten    --      9.2729               177.9735                 3.1555

                     37                     38                     39
                      A                      A                      A
 Frequencies --   1237.0538              1296.7043              1309.4548
 Red. masses --      1.4182                 1.7081                 1.8682
 Frc consts  --      1.2787                 1.6922                 1.8873
 IR Inten    --     26.4384               234.0221               203.3977

                     40                     41                     42
                      A                      A                      A
 Frequencies --   1333.7611              1335.9000              1355.1228
 Red. masses --      1.2323                 1.3963                 1.3915
 Frc consts  --      1.2916                 1.4682                 1.5055
 IR Inten    --      4.1149                 3.8986                11.8837

                     43                     44                     45
                      A                      A                      A
 Frequencies --   1391.1104              1426.9247              1427.0502
 Red. masses --      1.3029                 1.3262                 1.3453
 Frc consts  --      1.4855                 1.5909                 1.6142
 IR Inten    --      3.1002                31.9385                19.9059

                     46                     47                     48
                      A                      A                      A
 Frequencies --   1441.4176              1471.5467              1501.1204
 Red. masses --      1.2469                 1.1861                 1.1019
 Frc consts  --      1.5264                 1.5132                 1.4629
 IR Inten    --     22.7580                 1.1547                 5.3617

                     49                     50                     51
                      A                      A                      A
 Frequencies --   1509.9404              1521.5314              1530.8037
 Red. masses --      1.0470                 1.0503                 1.0492
 Frc consts  --      1.4065                 1.4326                 1.4485
 IR Inten    --      0.0077                22.7406                 0.0410

                     52                     53                     54
                      A                      A                      A
 Frequencies --   1550.3820              1715.0560              1734.3929
 Red. masses --      1.0551                 6.1403                 4.7012
 Frc consts  --      1.4942                10.6414                 8.3321
 IR Inten    --      7.7419                26.4555                10.2626

                     55                     56                     57
                      A                      A                      A
 Frequencies --   1792.9547              3030.9494              3060.1693
 Red. masses --      9.8944                 1.0582                 1.0384
 Frc consts  --     18.7404                 5.7274                 5.7292
 IR Inten    --    284.2006                21.4688                22.5261

                     58                     59                     60
                      A                      A                      A
 Frequencies --   3063.7216              3072.6903              3080.2323
 Red. masses --      1.0419                 1.1034                 1.0828
 Frc consts  --      5.7622                 6.1381                 6.0531
 IR Inten    --     13.1442                14.1722                31.6495

                     61                     62                     63
                      A                      A                      A
 Frequencies --   3123.2805              3126.0148              3154.1142
 Red. masses --      1.1016                 1.1019                 1.0647
 Frc consts  --      6.3316                 6.3442                 6.2409
 IR Inten    --     15.2866                43.0322                16.5171

                     64                     65                     66
                      A                      A                      A
 Frequencies --   3162.7554              3169.3513              3173.3733
 Red. masses --      1.0861                 1.1005                 1.0998
 Frc consts  --      6.4011                 6.5128                 6.5251
 IR Inten    --      7.2097                 1.4026                17.5328

                     67                     68                     69
                      A                      A                      A
 Frequencies --   3193.5265              3200.7019              3239.1568
 Red. masses --      1.0931                 1.0871                 1.1156
 Frc consts  --      6.5681                 6.5619                 6.8961
 IR Inten    --      0.4492                10.6479                18.8362

 - Thermochemistry -
 -------------------
 Temperature   298.150 Kelvin.  Pressure   1.00000 Atm.
 Atom     1 has atomic number  6 and mass  12.00000

 Molecular mass:   154.09938 amu.
 Principal axes and moments of inertia in atomic units:
                           1         2         3
     Eigenvalues --   734.810234348.584314584.86618
           X            0.99998  -0.00626   0.00042
           Y            0.00623   0.99889   0.04662
           Z           -0.00071  -0.04662   0.99891
 This molecule is an asymmetric top.
 Rotational symmetry number  1.
 Warning -- assumption of classical behavior for rotation
           may cause significant error
 Rotational temperatures (Kelvin)      0.11787     0.01992     0.01889
 Rotational constants (GHZ):           2.45606     0.41502     0.39363
 Zero-point vibrational energy     563741.9 (Joules/Mol)
                                  134.73754 (Kcal/Mol)
 Warning -- explicit consideration of  17 degrees of freedom as
           vibrations may cause significant error
 Vibrational temperatures:     43.58    73.26    88.30   156.22   177.71
          (Kelvin)            197.11   258.74   329.54   340.41   359.02
                              414.84   496.44   533.81   610.26   619.93
                              695.44   737.09   947.70  1015.82  1039.64
                             1171.73  1245.77  1289.33  1330.17  1358.77
                             1363.40  1365.86  1377.59  1449.56  1476.44
                             1492.10  1551.67  1647.69  1685.73  1703.51
                             1754.20  1779.84  1865.67  1884.01  1918.98
                             1922.06  1949.72  2001.50  2053.03  2053.21
                             2073.88  2117.23  2159.78  2172.47  2189.14
                             2202.49  2230.65  2467.58  2495.40  2579.66
                             4360.86  4402.90  4408.01  4420.92  4431.77
                             4493.70  4497.64  4538.07  4550.50  4559.99
                             4565.78  4594.77  4605.10  4660.42

 Zero-point correction=                           0.214718 (Hartree/Particle)
 Thermal correction to Energy=                    0.227498
 Thermal correction to Enthalpy=                  0.228442
 Thermal correction to Gibbs Free Energy=         0.174432
 Sum of electronic and zero-point Energies=           -501.633696
 Sum of electronic and thermal Energies=              -501.620916
 Sum of electronic and thermal Enthalpies=            -501.619972
 Sum of electronic and thermal Free Energies=         -501.673982

                     E (Thermal)             CV                S
                      KCal/Mol        Cal/Mol-Kelvin    Cal/Mol-Kelvin
 Total                  142.757             45.455            113.675
 Electronic               0.000              0.000              0.000
 Translational            0.889              2.981             41.007
 Rotational               0.889              2.981             31.061
 Vibrational            140.980             39.494             41.607
 Vibration     1          0.594              1.984              5.810
 Vibration     2          0.595              1.977              4.781
 Vibration     3          0.597              1.973              4.413
 Vibration     4          0.606              1.942              3.294
 Vibration     5          0.610              1.929              3.045
 Vibration     6          0.614              1.916              2.845
 Vibration     7          0.629              1.867              2.330
 Vibration     8          0.652              1.797              1.886
 Vibration     9          0.655              1.785              1.828
 Vibration    10          0.662              1.764              1.734
 Vibration    11          0.685              1.695              1.484
 Vibration    12          0.723              1.585              1.189
 Vibration    13          0.743              1.532              1.076
 Vibration    14          0.786              1.418              0.878
 Vibration    15          0.792              1.403              0.856
 Vibration    16          0.840              1.287              0.701
 Vibration    17          0.867              1.223              0.628

 Optimization completed.
    -- Stationary point found.

 1\1\GINC-NODE118\Freq\RB3LYP\6-31G(d)\C9H14O2\VSC10255\08-Dec-2020\0\\
 #N Geom=AllCheck Guess=TCheck SCRF=Check GenChk RB3LYP/6-31G(d) Freq\\
 CID_143704966_JID_1835_neutraal\\0,1\C,1.0562737522,0.0359872208,0.017
 4075077\C,0.4747865016,0.4076775443,1.3781222167\C,1.0760032086,1.6711
 809545,1.9863325957\O,-0.9818202841,0.4712562892,1.3397752633\C,-1.595
 7274656,1.3997382322,0.5742322004\O,-1.0235817279,2.2247498865,-0.1153
 963966\C,-3.0713179087,1.3148795848,0.6564130855\C,-3.7475367954,0.429
 018661,1.3970260798\C,-5.2479410236,0.3360708635,1.4561956656\C,-5.734

 Normal termination of Gaussian 16 at Tue Dec  8 21:25:36 2020.

 ----------------------------------------------------------------------
 # B3LYP/6-311++G(d,p) empiricaldispersion=gd3bj scf=xqc pop=npa geom=c
 heck
 ----------------------------------------------------------------------

 ---------------------------------------
 CID_143704966_JID_1835_Energie_neutraal
 ---------------------------------------
 Structure from the checkpoint file:  "JID_1835.chk"
 Charge =  0 Multiplicity = 1

 SCF Done:  E(RB3LYP) =  -501.996490695     A.U. after   15 cycles
 Normal termination of Gaussian 16 at Tue Dec  8 21:30:18 2020.

 ----------------------------------------------------------------------
 # B3LYP/6-311++G(d,p) empiricaldispersion=gd3bj scf=xqc pop=npa geom=c
 heck
 ----------------------------------------------------------------------

 -------------------------------------
 CID_143704966_JID_1835_Energie_kation
 -------------------------------------
 Structure from the checkpoint file:  "JID_1835.chk"
 Charge =  1 Multiplicity = 2

 SCF Done:  E(UB3LYP) =  -501.662019002     A.U. after   24 cycles
 Normal termination of Gaussian 16 at Tue Dec  8 21:37:47 2020.
 Gaussian 16:  ES64L-G16RevA.03 25-Dec-2016

 ------------------------------------
 CID_143704966_JID_1835_Energie_anion
 ------------------------------------
 Structure from the checkpoint file:  "JID_1835.chk"
 Charge = -1 Multiplicity = 2

                         Standard orientation:
 ---------------------------------------------------------------------
 Center     Atomic      Atomic             Coordinates (Angstroms)
 Number     Number       Type             X           Y           Z
 ---------------------------------------------------------------------
      1          6           0        3.042627   -1.102998   -1.135174
      2          6           0        2.506081   -0.928878    0.282439
      3          6           0        3.401354   -0.086667    1.186313
      4          8           0        1.132650   -0.438065    0.279674
      5          6           0        0.856464    0.788308   -0.215046
      6          8           0        1.681142    1.556148   -0.677551
      7          6           0       -0.584779    1.117498   -0.139068
      8          6           0       -1.529498    0.310944    0.358432
      9          6           0       -2.995334    0.645573    0.410404
     10          6           0       -3.803071   -0.304392   -0.442125
     11          6           0       -4.717445   -1.153238    0.025269
     12          1           0        3.208623   -0.136498   -1.613596
     13          1           0        2.338499   -1.683380   -1.740313
     14          1           0        3.992255   -1.648733   -1.098878
     15          1           0        2.377708   -1.917210    0.734912
     16          1           0        3.575071    0.901151    0.756659
     17          1           0        2.943278    0.030476    2.173878
     18          1           0        4.365087   -0.592306    1.314735
     19          1           0       -0.826590    2.102002   -0.530896
     20          1           0       -1.243386   -0.669665    0.732027
     21          1           0       -3.348735    0.584297    1.448878
     22          1           0       -3.147618    1.679299    0.072525
     23          1           0       -3.580520   -0.281519   -1.508841
     24          1           0       -5.264657   -1.823179   -0.631990
     25          1           0       -4.957750   -1.206322    1.085251
 ---------------------------------------------------------------------

 SCF Done:  E(UB3LYP) =  -501.991002457     A.U. after   33 cycles
 SCF Done:  E(UB3LYP) =  -501.991002457     a.u. after    1 cycles

 The electronic state is 2-A.
 Alpha  occ. eigenvalues --  -19.01490 -18.94313 -10.13203 -10.11518 -10.05323
 Alpha  occ. eigenvalues --  -10.04948 -10.04942 -10.04489 -10.04071 -10.02083
 Alpha  occ. eigenvalues --  -10.01443  -0.95125  -0.86292  -0.68575  -0.67365
 Alpha  occ. eigenvalues --   -0.63010  -0.58085  -0.56641  -0.51245  -0.45507
 Alpha  occ. eigenvalues --   -0.43000  -0.39738  -0.37232  -0.35336  -0.33255
 Alpha  occ. eigenvalues --   -0.33213  -0.31694  -0.30976  -0.30133  -0.28760
 Alpha  occ. eigenvalues --   -0.28177  -0.26634  -0.24835  -0.24064  -0.23689
 Alpha  occ. eigenvalues --   -0.23250  -0.22038  -0.20492  -0.16449  -0.14953
 Alpha  occ. eigenvalues --   -0.12534  -0.12107   0.05301
 Alpha virt. eigenvalues --    0.06932   0.08387   0.09429   0.10006   0.10085
 Alpha virt. eigenvalues --    0.10373   0.11069   0.11607   0.12547   0.12818
 Alpha virt. eigenvalues --    0.13526   0.13674   0.13930   0.14700   0.14941

  Beta  occ. eigenvalues --  -19.01456 -18.94054 -10.13013 -10.11514 -10.05237
  Beta  occ. eigenvalues --  -10.04976 -10.04941 -10.04462 -10.03975 -10.01708
  Beta  occ. eigenvalues --  -10.01352  -0.94919  -0.85918  -0.68267  -0.67262
  Beta  occ. eigenvalues --   -0.62603  -0.58051  -0.56350  -0.51102  -0.44943
  Beta  occ. eigenvalues --   -0.42670  -0.39568  -0.37150  -0.35248  -0.32978
  Beta  occ. eigenvalues --   -0.32912  -0.31573  -0.30745  -0.30001  -0.28524
  Beta  occ. eigenvalues --   -0.27997  -0.26276  -0.24710  -0.23749  -0.23590
  Beta  occ. eigenvalues --   -0.23067  -0.21826  -0.20374  -0.15714  -0.14298
  Beta  occ. eigenvalues --   -0.11868  -0.10952
  Beta virt. eigenvalues --    0.07537   0.08275   0.09551   0.09747   0.10116
  Beta virt. eigenvalues --    0.10416   0.10643   0.11244   0.12341   0.12801
  Beta virt. eigenvalues --    0.13033   0.13510   0.13686   0.13880   0.14644

 Mulliken charges and spin densities:
               1          2
     1  C    0.442110  -0.847625
     2  C   -0.578219   0.527803
     3  C   -0.058582  -0.350003
     4  O    0.025555   0.000981
     5  C   -0.462545   0.149795
     6  O   -0.320250   0.083005
     7  C   -0.129259   0.068274
     8  C    0.051678   0.141340
     9  C    0.257613  -0.551877
    10  C   -0.207328   0.402893
    11  C   -0.346252  -0.175134
    12  H    0.081209   0.096870
    13  H    0.086997   0.041533
    14  H   -0.398180   0.533570
    15  H   -0.155281   0.309616
    16  H    0.176754   0.002762
    17  H    0.126147  -0.003268
    18  H   -0.046014   0.173556
    19  H    0.114163   0.022989
    20  H    0.231386  -0.073062
    21  H   -0.054200   0.188750
    22  H    0.094490   0.018693
    23  H    0.046196   0.091063
    24  H    0.043832   0.037750
    25  H   -0.022019   0.109726
 Sum of Mulliken charges =  -1.00000   1.00000

 Dipole moment (field-independent basis, Debye):
    X=              0.0204    Y=             -0.2760    Z=              1.1021  Tot=              1.1363
 Quadrupole moment (field-independent basis, Debye-Ang):
   XX=           -134.9008   YY=            -91.2637   ZZ=            -81.5083
   XY=              2.9718   XZ=              7.6465   YZ=             -0.5550

 Summary of Natural Population Analysis:

                                       Natural Population
                Natural  -----------------------------------------------
    Atom  No    Charge         Core      Valence    Rydberg      Total
 -----------------------------------------------------------------------
      C    1   -0.30118      0.99964     2.29591    0.00564     3.30118
      C    2    0.06370      0.99956     1.92222    0.01451     2.93630
      C    3   -0.30073      0.99964     2.29561    0.00547     3.30073
      O    4   -0.29208      0.99986     3.28313    0.00908     4.29208
      C    5    0.41056      0.99965     1.56521    0.02457     2.58944
      O    6   -0.30744      0.99987     3.30254    0.00502     4.30744
      C    7   -0.15020      0.99946     2.14069    0.01005     3.15020
      C    8    0.01290      0.99953     1.97863    0.00894     2.98710
      C    9   -0.22704      0.99960     2.21612    0.01132     3.22704
      C   10   -0.06098      0.99956     2.05125    0.01017     3.06098
      C   11   -0.19481      0.99956     2.18735    0.00790     3.19481
      H   12    0.11223      0.00000     0.38682    0.00095     0.38777
      H   13    0.10142      0.00000     0.39767    0.00091     0.39858
      H   14    0.09686      0.00000     0.40168    0.00146     0.40314
      H   15    0.08589      0.00000     0.41288    0.00123     0.41411
      H   16    0.11248      0.00000     0.38658    0.00094     0.38752
      H   17    0.09939      0.00000     0.39979    0.00082     0.40061
      H   18    0.09509      0.00000     0.40410    0.00081     0.40491
      H   19    0.09148      0.00000     0.40710    0.00143     0.40852
      H   20    0.09211      0.00000     0.40657    0.00132     0.40789
      H   21    0.10093      0.00000     0.39729    0.00178     0.39907
      H   22    0.09891      0.00000     0.39964    0.00145     0.40109
      H   23    0.08842      0.00000     0.41036    0.00122     0.41158
      H   24    0.08662      0.00000     0.41231    0.00107     0.41338
      H   25    0.08548      0.00000     0.41300    0.00152     0.41452
 =======================================================================
   * Total *    0.00000     10.99594    30.87446    0.12960    42.00000

 Normal termination of Gaussian 16 at Tue Dec  8 21:47:10 2020.
