 Gaussian 16, Revision A.03,

 -----------------------------------------------------------
 # opt freq B3LYP/6-31G(d) empiricaldispersion=gd3bj scf=xqc
 -----------------------------------------------------------

 -------------------------------
 CID_144736412_JID_3901_neutraal
 -------------------------------
 Symbolic Z-matrix:
 Charge =  0 Multiplicity = 1

 SCF Done:  E(RB3LYP) =  -594.125992169     A.U. after   15 cycles
 SCF Done:  E(RB3LYP) =  -594.128661457     A.U. after   12 cycles
 SCF Done:  E(RB3LYP) =  -594.128534324     A.U. after   12 cycles
 SCF Done:  E(RB3LYP) =  -594.128905792     A.U. after   12 cycles
 SCF Done:  E(RB3LYP) =  -594.129206140     A.U. after   12 cycles
 SCF Done:  E(RB3LYP) =  -594.129230507     A.U. after   11 cycles
 SCF Done:  E(RB3LYP) =  -594.129248857     A.U. after   11 cycles
 SCF Done:  E(RB3LYP) =  -594.129267468     A.U. after    9 cycles
 SCF Done:  E(RB3LYP) =  -594.129273374     A.U. after   10 cycles
 SCF Done:  E(RB3LYP) =  -594.129276219     A.U. after    9 cycles
 SCF Done:  E(RB3LYP) =  -594.129277688     A.U. after    9 cycles
 SCF Done:  E(RB3LYP) =  -594.129280423     A.U. after   10 cycles
 SCF Done:  E(RB3LYP) =  -594.129283063     A.U. after   10 cycles
 SCF Done:  E(RB3LYP) =  -594.129283606     A.U. after   10 cycles
 SCF Done:  E(RB3LYP) =  -594.129283684     A.U. after    8 cycles
 Optimization completed.
    -- Stationary point found.
 Normal termination of Gaussian 16 at Sun Dec 13 15:57:51 2020.

 --------------------------------------------------------------------
 #N Geom=AllCheck Guess=TCheck SCRF=Check GenChk RB3LYP/6-31G(d) Freq
 --------------------------------------------------------------------

 Structure from the checkpoint file:  "JID_3901.chk"
 -------------------------------
 CID_144736412_JID_3901_neutraal
 -------------------------------
 Charge =  0 Multiplicity = 1

 SCF Done:  E(RB3LYP) =  -594.129283684     A.U. after    1 cycles

  Exact polarizability: 148.676   1.378  81.217  -1.774  -4.439 107.697
 Approx polarizability: 211.523   4.735 117.220   2.313 -11.643 183.096

                      1                      2                      3
                      A                      A                      A
 Frequencies --     25.7266                58.4632                72.9602
 Red. masses --      4.7213                 5.6560                 5.0043
 Frc consts  --      0.0018                 0.0114                 0.0157
 IR Inten    --      2.2115                 2.2251                 0.6842

                      4                      5                      6
                      A                      A                      A
 Frequencies --     95.6588               134.7897               160.6375
 Red. masses --      4.8795                 2.2488                 3.5036
 Frc consts  --      0.0263                 0.0241                 0.0533
 IR Inten    --      2.8147                 6.0671                 2.2161

                      7                      8                      9
                      A                      A                      A
 Frequencies --    209.2131               264.5086               272.2744
 Red. masses --      4.5773                 4.6315                 3.3897
 Frc consts  --      0.1180                 0.1909                 0.1481
 IR Inten    --      2.7144                 1.6760                 6.0457

                     10                     11                     12
                      A                      A                      A
 Frequencies --    330.1410               339.0215               400.1550
 Red. masses --      4.9385                 2.7064                 3.5571
 Frc consts  --      0.3171                 0.1833                 0.3356
 IR Inten    --      4.2278                 1.2907                 6.3103

                     13                     14                     15
                      A                      A                      A
 Frequencies --    418.6652               499.6211               510.0203
 Red. masses --      2.9685                 2.5644                 1.1304
 Frc consts  --      0.3066                 0.3772                 0.1732
 IR Inten    --      0.1328                 8.1204                70.7723

                     16                     17                     18
                      A                      A                      A
 Frequencies --    563.8006               625.7245               637.0899
 Red. masses --      3.2861                 3.8419                 6.0326
 Frc consts  --      0.6154                 0.8863                 1.4426
 IR Inten    --      7.7357                41.9141                 3.6410

                     19                     20                     21
                      A                      A                      A
 Frequencies --    686.2781               720.5215               730.8955
 Red. masses --      1.9798                 1.7907                 1.6946
 Frc consts  --      0.5494                 0.5477                 0.5334
 IR Inten    --     58.3595                36.5361                88.2135

                     22                     23                     24
                      A                      A                      A
 Frequencies --    770.0948               820.3958               845.5830
 Red. masses --      2.0780                 3.1681                 2.8748
 Frc consts  --      0.7261                 1.2563                 1.2111
 IR Inten    --     19.1965                 3.0974                 2.7588

                     25                     26                     27
                      A                      A                      A
 Frequencies --    865.9872               930.6996               941.5188
 Red. masses --      1.2465                 1.6652                 1.6955
 Frc consts  --      0.5508                 0.8498                 0.8855
 IR Inten    --      0.0749                 5.8850                 0.0911

                     28                     29                     30
                      A                      A                      A
 Frequencies --    976.0757               980.0067              1002.5209
 Red. masses --      1.3593                 2.2297                 1.2587
 Frc consts  --      0.7630                 1.2617                 0.7454
 IR Inten    --      0.6722                16.4210                 0.2045

                     31                     32                     33
                      A                      A                      A
 Frequencies --   1022.4401              1035.6885              1061.4969
 Red. masses --      5.9779                 1.6242                 2.3108
 Frc consts  --      3.6819                 1.0265                 1.5341
 IR Inten    --      1.7374                 1.5760                 4.5459

                     34                     35                     36
                      A                      A                      A
 Frequencies --   1074.2650              1106.3305              1116.8798
 Red. masses --      1.8822                 2.9550                 1.9100
 Frc consts  --      1.2798                 2.1309                 1.4038
 IR Inten    --     13.1689                60.2764                 3.3854

                     37                     38                     39
                      A                      A                      A
 Frequencies --   1139.5640              1196.4107              1218.9961
 Red. masses --      2.7400                 1.0975                 1.1378
 Frc consts  --      2.0964                 0.9256                 0.9961
 IR Inten    --     13.1235                 0.0945                 3.2864

                     40                     41                     42
                      A                      A                      A
 Frequencies --   1224.4192              1225.5489              1253.0598
 Red. masses --      2.0952                 1.1772                 2.9225
 Frc consts  --      1.8507                 1.0418                 2.7036
 IR Inten    --      2.7019                13.9335               197.7539

                     43                     44                     45
                      A                      A                      A
 Frequencies --   1275.7333              1321.3966              1355.0412
 Red. masses --      1.3223                 1.8029                 1.7717
 Frc consts  --      1.2679                 1.8548                 1.9167
 IR Inten    --     11.6683                15.0631                16.1511

                     46                     47                     48
                      A                      A                      A
 Frequencies --   1371.9170              1390.9095              1404.1907
 Red. masses --      1.7765                 1.3175                 1.3029
 Frc consts  --      1.9701                 1.5018                 1.5136
 IR Inten    --      4.4838                 2.1568                 2.3171

                     49                     50                     51
                      A                      A                      A
 Frequencies --   1414.0023              1425.6351              1463.6692
 Red. masses --      1.2821                 1.3172                 1.2961
 Frc consts  --      1.5103                 1.5773                 1.6359
 IR Inten    --     13.9694                42.1692                63.5722

                     52                     53                     54
                      A                      A                      A
 Frequencies --   1482.6545              1504.9637              1507.6411
 Red. masses --      1.4750                 1.4517                 1.4844
 Frc consts  --      1.9104                 1.9372                 1.9879
 IR Inten    --     25.9652                 0.1494                22.3477

                     55                     56                     57
                      A                      A                      A
 Frequencies --   1547.2003              1550.4024              1647.7716
 Red. masses --      1.1440                 2.0128                 5.4548
 Frc consts  --      1.6135                 2.8507                 8.7261
 IR Inten    --      3.2722                 7.7685                 0.8809

                     58                     59                     60
                      A                      A                      A
 Frequencies --   1669.1770              1824.4214              3002.3039
 Red. masses --      5.5599                 7.1964                 1.0855
 Frc consts  --      9.1269                14.1129                 5.7651
 IR Inten    --      1.8129               473.3826                50.9935

                     61                     62                     63
                      A                      A                      A
 Frequencies --   3015.2990              3016.7501              3054.7047
 Red. masses --      1.0758                 1.0788                 1.0622
 Frc consts  --      5.7630                 5.7848                 5.8399
 IR Inten    --     50.4463                34.3935                27.9329

                     64                     65                     66
                      A                      A                      A
 Frequencies --   3092.6645              3096.8005              3179.5599
 Red. masses --      1.0940                 1.1024                 1.0873
 Frc consts  --      6.1651                 6.2290                 6.4763
 IR Inten    --     42.1274                55.7196                 7.3113

                     67                     68                     69
                      A                      A                      A
 Frequencies --   3189.1308              3197.2156              3205.8009
 Red. masses --      1.0863                 1.0900                 1.0939
 Frc consts  --      6.5094                 6.5650                 6.6240
 IR Inten    --      0.8995                 9.6523                28.9735

                     70                     71                     72
                      A                      A                      A
 Frequencies --   3215.8451              3555.0310              3708.3622
 Red. masses --      1.0980                 1.0756                 1.0656
 Frc consts  --      6.6905                 8.0095                 8.6341
 IR Inten    --     16.1242                19.4834                96.8153

 - Thermochemistry -
 -------------------
 Temperature   298.150 Kelvin.  Pressure   1.00000 Atm.
 Atom     1 has atomic number  6 and mass  12.00000

 Molecular mass:   179.09463 amu.
 Principal axes and moments of inertia in atomic units:
                           1         2         3
     Eigenvalues --  1432.429893678.093474090.50535
           X            0.99984  -0.01401  -0.01077
           Y            0.01399   0.99990  -0.00196
           Z            0.01079   0.00181   0.99994
 This molecule is an asymmetric top.
 Rotational symmetry number  1.
 Warning -- assumption of classical behavior for rotation
           may cause significant error
 Rotational temperatures (Kelvin)      0.06047     0.02355     0.02117
 Rotational constants (GHZ):           1.25992     0.49067     0.44120
 Zero-point vibrational energy     575704.9 (Joules/Mol)
                                  137.59677 (Kcal/Mol)
 Warning -- explicit consideration of  16 degrees of freedom as
           vibrations may cause significant error
 Vibrational temperatures:     37.01    84.12   104.97   137.63   193.93
          (Kelvin)            231.12   301.01   380.57   391.74   475.00
                              487.78   575.73   602.37   718.84   733.81
                              811.18   900.28   916.63   987.40  1036.67
                             1051.60  1107.99  1180.37  1216.61  1245.96
                             1339.07  1354.64  1404.36  1410.01  1442.40
                             1471.06  1490.12  1527.26  1545.63  1591.76
                             1606.94  1639.58  1721.37  1753.86  1761.67
                             1763.29  1802.87  1835.50  1901.19  1949.60
                             1973.88  2001.21  2020.32  2034.43  2051.17
                             2105.89  2133.21  2165.31  2169.16  2226.08
                             2230.68  2370.78  2401.57  2624.94  4319.65
                             4338.34  4340.43  4395.04  4449.65  4455.61
                             4574.68  4588.45  4600.08  4612.43  4626.88
                             5114.90  5335.51

 Zero-point correction=                           0.219274 (Hartree/Particle)
 Thermal correction to Energy=                    0.231567
 Thermal correction to Enthalpy=                  0.232511
 Thermal correction to Gibbs Free Energy=         0.179358
 Sum of electronic and zero-point Energies=           -593.910009
 Sum of electronic and thermal Energies=              -593.897717
 Sum of electronic and thermal Enthalpies=            -593.896772
 Sum of electronic and thermal Free Energies=         -593.949926

                     E (Thermal)             CV                S
                      KCal/Mol        Cal/Mol-Kelvin    Cal/Mol-Kelvin
 Total                  145.310             46.063            111.871
 Electronic               0.000              0.000              0.000
 Translational            0.889              2.981             41.455
 Rotational               0.889              2.981             31.444
 Vibrational            143.533             40.101             38.971
 Vibration     1          0.593              1.985              6.134
 Vibration     2          0.596              1.974              4.508
 Vibration     3          0.599              1.967              4.072
 Vibration     4          0.603              1.952              3.541
 Vibration     5          0.613              1.919              2.877
 Vibration     6          0.622              1.891              2.542
 Vibration     7          0.642              1.827              2.051
 Vibration     8          0.671              1.738              1.632
 Vibration     9          0.675              1.724              1.582
 Vibration    10          0.713              1.615              1.259
 Vibration    11          0.719              1.598              1.217
 Vibration    12          0.766              1.470              0.962
 Vibration    13          0.782              1.430              0.897
 Vibration    14          0.855              1.251              0.659
 Vibration    15          0.865              1.228              0.634
 Vibration    16          0.920              1.110              0.516

                           ! Non-Optimized Parameters !
 Normal termination of Gaussian 16 at Sun Dec 13 16:04:03 2020.

 ----------------------------------------------------------------------
 # B3LYP/6-311++G(d,p) empiricaldispersion=gd3bj scf=xqc pop=npa geom=c
 heck
 ----------------------------------------------------------------------

 ---------------------------------------
 CID_144736412_JID_3901_Energie_neutraal
 ---------------------------------------
 Structure from the checkpoint file:  "JID_3901.chk"
 Charge =  0 Multiplicity = 1

 SCF Done:  E(RB3LYP) =  -594.309667518     A.U. after   15 cycles
 Normal termination of Gaussian 16 at Sun Dec 13 16:06:18 2020.

 ----------------------------------------------------------------------
 # B3LYP/6-311++G(d,p) empiricaldispersion=gd3bj scf=xqc pop=npa geom=c
 heck
 ----------------------------------------------------------------------

 -------------------------------------
 CID_144736412_JID_3901_Energie_kation
 -------------------------------------
 Structure from the checkpoint file:  "JID_3901.chk"
 Charge =  1 Multiplicity = 2

 SCF Done:  E(UB3LYP) =  -593.982758033     A.U. after   29 cycles
 Normal termination of Gaussian 16 at Sun Dec 13 16:12:01 2020.
 Gaussian 16:  ES64L-G16RevA.03 25-Dec-2016

 ----------------------------------------------------------------------
 # B3LYP/6-311++G(d,p) empiricaldispersion=gd3bj scf=xqc pop=npa geom=c
 heck
 ----------------------------------------------------------------------

 ------------------------------------
 CID_144736412_JID_3901_Energie_anion
 ------------------------------------
 Structure from the checkpoint file:  "JID_3901.chk"
 Charge = -1 Multiplicity = 2

                         Standard orientation:
 ---------------------------------------------------------------------
 Center     Atomic      Atomic             Coordinates (Angstroms)
 Number     Number       Type             X           Y           Z
 ---------------------------------------------------------------------
      1          6           0        3.563231   -0.217694   -0.582715
      2          6           0        2.522718    0.126049   -1.446036
      3          6           0        1.201127    0.091791   -1.001295
      4          6           0        0.901752   -0.291542    0.312946
      5          6           0        1.952530   -0.636529    1.169351
      6          6           0        3.274725   -0.597532    0.728614
      7          6           0       -0.521692   -0.304918    0.836694
      8          6           0       -0.985584    1.097045    1.305176
      9          6           0       -1.001231    2.184559    0.228945
     10          8           0       -1.953787    1.950828   -0.797626
     11          7           0       -1.415679   -0.862533   -0.202892
     12          6           0       -2.728543   -1.201543    0.039106
     13          8           0       -3.375206   -1.953608   -0.663234
     14          1           0        4.591882   -0.192090   -0.930194
     15          1           0        2.737417    0.425406   -2.467764
     16          1           0        0.401293    0.374956   -1.679400
     17          1           0        1.731205   -0.942719    2.188991
     18          1           0        4.077610   -0.872697    1.406470
     19          1           0       -0.541328   -0.961628    1.717774
     20          1           0       -1.987474    1.017907    1.743590
     21          1           0       -0.308557    1.403742    2.112412
     22          1           0       -1.279848    3.137128    0.691676
     23          1           0        0.010513    2.311546   -0.185188
     24          1           0       -1.842492    1.027652   -1.078650
     25          1           0       -0.970810   -1.473841   -0.881529
     26          1           0       -3.151912   -0.693507    0.924222
 ---------------------------------------------------------------------

 SCF Done:  E(UB3LYP) =  -594.302366138     A.U. after   33 cycles
 SCF Done:  E(UB3LYP) =  -594.302366138     a.u. after    1 cycles

 The electronic state is 2-A.
 Alpha  occ. eigenvalues --  -19.02104 -19.00117 -14.24485 -10.17173 -10.12463
 Alpha  occ. eigenvalues --  -10.11896 -10.08312 -10.07873 -10.07771 -10.07748
 Alpha  occ. eigenvalues --  -10.07480 -10.07172 -10.07167  -0.94777  -0.92506
 Alpha  occ. eigenvalues --   -0.83547  -0.75985  -0.69322  -0.64999  -0.64839
 Alpha  occ. eigenvalues --   -0.58646  -0.54243  -0.51360  -0.50193  -0.48490
 Alpha  occ. eigenvalues --   -0.42868  -0.41892  -0.40075  -0.38541  -0.36989
 Alpha  occ. eigenvalues --   -0.35754  -0.34836  -0.33393  -0.32754  -0.32434
 Alpha  occ. eigenvalues --   -0.31546  -0.30707  -0.28411  -0.27862  -0.26432
 Alpha  occ. eigenvalues --   -0.24787  -0.24189  -0.24097  -0.18164  -0.17375
 Alpha  occ. eigenvalues --   -0.16786  -0.15902  -0.15114   0.04312
 Alpha virt. eigenvalues --    0.06470   0.07418   0.07723   0.08026   0.08421
 Alpha virt. eigenvalues --    0.08824   0.09512   0.09918   0.10652   0.11355
 Alpha virt. eigenvalues --    0.11980   0.12182   0.13183   0.13972   0.14988

  Beta  occ. eigenvalues --  -19.02102 -19.00038 -14.24495 -10.17098 -10.12442
  Beta  occ. eigenvalues --  -10.11890 -10.08241 -10.07863 -10.07735 -10.07727
  Beta  occ. eigenvalues --  -10.07479 -10.07108 -10.07079  -0.94641  -0.92498
  Beta  occ. eigenvalues --   -0.83500  -0.75874  -0.69225  -0.64903  -0.64726
  Beta  occ. eigenvalues --   -0.58562  -0.54119  -0.51301  -0.50050  -0.48396
  Beta  occ. eigenvalues --   -0.42793  -0.41826  -0.40014  -0.38464  -0.36892
  Beta  occ. eigenvalues --   -0.35682  -0.34777  -0.33314  -0.32625  -0.32370
  Beta  occ. eigenvalues --   -0.31468  -0.30517  -0.28333  -0.27711  -0.26239
  Beta  occ. eigenvalues --   -0.24713  -0.24117  -0.24031  -0.18136  -0.17308
  Beta  occ. eigenvalues --   -0.16585  -0.15706  -0.14777
  Beta virt. eigenvalues --    0.06776   0.07500   0.07926   0.08114   0.08298
  Beta virt. eigenvalues --    0.09088   0.09471   0.09907   0.10357   0.10852
  Beta virt. eigenvalues --    0.11746   0.12056   0.12443   0.13489   0.14416

 Mulliken charges and spin densities:
               1          2
     1  C    0.868282  -1.243860
     2  C   -0.381080   0.056232
     3  C   -1.342358   0.605177
     4  C   -1.233358   1.820101
     5  C   -0.632694   0.669773
     6  C    1.246161  -1.460487
     7  C    2.382744  -2.020364
     8  C    1.033519  -1.438627
     9  C   -0.529002  -0.031550
    10  O   -0.222139   0.007797
    11  N   -0.361598   0.021539
    12  C    0.282075  -0.154145
    13  O   -0.346543   0.022163
    14  H   -0.357909   0.499830
    15  H   -0.134153   0.304405
    16  H    0.117307   0.005789
    17  H   -0.669385   0.833090
    18  H   -0.641593   0.824321
    19  H   -0.687981   0.962471
    20  H    0.033059   0.147111
    21  H   -0.149894   0.305662
    22  H    0.054519   0.111906
    23  H    0.175825  -0.026604
    24  H    0.257492   0.018124
    25  H    0.303939  -0.010742
    26  H   -0.065235   0.170888
 Sum of Mulliken charges =  -1.00000   1.00000

 Dipole moment (field-independent basis, Debye):
    X=             -0.9764    Y=              2.8297    Z=             -3.7814  Tot=              4.8228
 Quadrupole moment (field-independent basis, Debye-Ang):
   XX=           -152.3942   YY=           -112.2981   ZZ=           -117.5473
   XY=             -1.5029   XZ=             -6.3254   YZ=              5.9835

 Summary of Natural Population Analysis:

                                       Natural Population
                Natural  -----------------------------------------------
    Atom  No    Charge         Core      Valence    Rydberg      Total
 -----------------------------------------------------------------------
      C    1   -0.08951      0.99956     2.07974    0.01022     3.08951
      C    2   -0.09899      0.99956     2.08872    0.01070     3.09899
      C    3   -0.11038      0.99950     2.10170    0.00918     3.11038
      C    4   -0.01694      0.99949     2.00532    0.01213     3.01694
      C    5   -0.08760      0.99950     2.07732    0.01078     3.08760
      C    6   -0.09827      0.99956     2.08839    0.01032     3.09827
      C    7   -0.01774      0.99954     2.00184    0.01637     3.01774
      C    8   -0.20352      0.99960     2.19401    0.00991     3.20352
      C    9   -0.01454      0.99959     2.00205    0.01290     3.01454
      O   10   -0.37683      0.99990     3.37063    0.00630     4.37683
      N   11   -0.34442      0.99970     2.83452    0.01020     3.84442
      C   12    0.28711      0.99973     1.69061    0.02254     2.71289
      O   13   -0.30260      0.99988     3.29676    0.00596     4.30260
      H   14    0.10008      0.00000     0.39862    0.00130     0.39992
      H   15    0.09854      0.00000     0.40068    0.00079     0.40146
      H   16    0.09931      0.00000     0.39856    0.00213     0.40069
      H   17    0.10557      0.00000     0.39185    0.00258     0.39443
      H   18    0.10287      0.00000     0.39536    0.00177     0.39713
      H   19    0.10498      0.00000     0.38926    0.00576     0.39502
      H   20    0.10213      0.00000     0.39625    0.00162     0.39787
      H   21    0.10857      0.00000     0.39029    0.00114     0.39143
      H   22    0.08506      0.00000     0.41390    0.00103     0.41494
      H   23    0.08035      0.00000     0.41819    0.00146     0.41965
      H   24    0.23540      0.00000     0.26165    0.00294     0.26460
      H   25    0.19685      0.00000     0.30078    0.00237     0.30315
      H   26    0.05452      0.00000     0.44365    0.00184     0.44548
 =======================================================================
   * Total *    0.00000     12.99512    34.83065    0.17423    48.00000

 Normal termination of Gaussian 16 at Sun Dec 13 16:18:36 2020.
