 Gaussian 16, Revision A.03,

 -----------------------------------------------------------
 # opt freq B3LYP/6-31G(d) empiricaldispersion=gd3bj scf=xqc
 -----------------------------------------------------------

 ------------------------------
 CID_79670083_JID_7274_neutraal
 ------------------------------
 Symbolic Z-matrix:
 Charge =  0 Multiplicity = 1

 SCF Done:  E(RB3LYP) =  -1186.90023759     A.U. after   14 cycles
 SCF Done:  E(RB3LYP) =  -1186.90571588     A.U. after   12 cycles
 SCF Done:  E(RB3LYP) =  -1186.90096210     A.U. after   13 cycles
 SCF Done:  E(RB3LYP) =  -1186.90737326     A.U. after   12 cycles
 SCF Done:  E(RB3LYP) =  -1186.90101557     A.U. after   14 cycles
 SCF Done:  E(RB3LYP) =  -1186.90926669     A.U. after   12 cycles
 SCF Done:  E(RB3LYP) =  -1186.91159593     A.U. after   12 cycles
 SCF Done:  E(RB3LYP) =  -1186.91259737     A.U. after   12 cycles
 SCF Done:  E(RB3LYP) =  -1186.91162897     A.U. after   12 cycles
 SCF Done:  E(RB3LYP) =  -1186.91230174     A.U. after   12 cycles
 SCF Done:  E(RB3LYP) =  -1186.91466124     A.U. after   10 cycles
 SCF Done:  E(RB3LYP) =  -1186.91466544     A.U. after    9 cycles
 SCF Done:  E(RB3LYP) =  -1186.91466669     A.U. after    8 cycles
 SCF Done:  E(RB3LYP) =  -1186.91466707     A.U. after    8 cycles
 SCF Done:  E(RB3LYP) =  -1186.91466726     A.U. after    7 cycles
 Optimization completed.
    -- Stationary point found.
 Normal termination of Gaussian 16 at Sun Dec 13 20:25:34 2020.

 --------------------------------------------------------------------
 #N Geom=AllCheck Guess=TCheck SCRF=Check GenChk RB3LYP/6-31G(d) Freq
 --------------------------------------------------------------------

 Structure from the checkpoint file:  "JID_7274.chk"
 ------------------------------
 CID_79670083_JID_7274_neutraal
 ------------------------------
 Charge =  0 Multiplicity = 1

 SCF Done:  E(RB3LYP) =  -1186.91466726     A.U. after    1 cycles

  Exact polarizability: 185.869  -2.768 141.994   4.814  -0.938 130.766
 Approx polarizability: 240.370  -3.428 207.490  17.698  -2.541 201.838

                      1                      2                      3
                      A                      A                      A
 Frequencies --     37.2024                44.8625                61.2878
 Red. masses --      4.9449                 4.7709                 2.6993
 Frc consts  --      0.0040                 0.0057                 0.0060
 IR Inten    --      1.0149                 1.0758                 0.4424

                      4                      5                      6
                      A                      A                      A
 Frequencies --     78.0041                93.3851                95.5030
 Red. masses --      6.0963                 4.1128                 4.2910
 Frc consts  --      0.0219                 0.0211                 0.0231
 IR Inten    --      1.6590                 2.6365                 6.1701

                      7                      8                      9
                      A                      A                      A
 Frequencies --    110.8688               131.5283               134.9031
 Red. masses --      4.9305                 6.5667                 3.3977
 Frc consts  --      0.0357                 0.0669                 0.0364
 IR Inten    --      0.9822                 4.5036                 1.7608

                     10                     11                     12
                      A                      A                      A
 Frequencies --    157.7106               198.5860               200.1410
 Red. masses --      2.6391                 3.0724                 3.6240
 Frc consts  --      0.0387                 0.0714                 0.0855
 IR Inten    --      3.5698                 1.2369                 1.4637

                     13                     14                     15
                      A                      A                      A
 Frequencies --    228.1929               238.5951               248.1126
 Red. masses --      3.4679                 3.0032                 1.9015
 Frc consts  --      0.1064                 0.1007                 0.0690
 IR Inten    --      1.3827                 5.7219                 0.7866

                     16                     17                     18
                      A                      A                      A
 Frequencies --    259.9496               263.3537               280.2312
 Red. masses --      1.4890                 1.3308                 1.9361
 Frc consts  --      0.0593                 0.0544                 0.0896
 IR Inten    --      2.1300                 0.1698                 5.6115

                     19                     20                     21
                      A                      A                      A
 Frequencies --    297.0157               313.0947               321.9658
 Red. masses --      3.0173                 1.4150                 3.1389
 Frc consts  --      0.1568                 0.0817                 0.1917
 IR Inten    --      6.2650                 0.5059                 1.3574

                     22                     23                     24
                      A                      A                      A
 Frequencies --    349.9622               365.1421               374.7889
 Red. masses --      3.2348                 3.8662                 3.8606
 Frc consts  --      0.2334                 0.3037                 0.3195
 IR Inten    --      0.4843                 4.4407                 0.1980

                     25                     26                     27
                      A                      A                      A
 Frequencies --    393.2503               420.2862               430.8163
 Red. masses --      3.2273                 2.1731                 2.3068
 Frc consts  --      0.2941                 0.2262                 0.2523
 IR Inten    --      0.8108                 4.3314                35.4178

                     28                     29                     30
                      A                      A                      A
 Frequencies --    462.1092               484.5255               492.2045
 Red. masses --      1.1787                 2.5046                 1.3000
 Frc consts  --      0.1483                 0.3464                 0.1856
 IR Inten    --    126.8183                 2.3129                49.7484

                     31                     32                     33
                      A                      A                      A
 Frequencies --    585.0799               598.3153               611.9756
 Red. masses --      2.4030                 3.0561                 1.5237
 Frc consts  --      0.4847                 0.6446                 0.3362
 IR Inten    --     59.9555                16.0602                59.0243

                     34                     35                     36
                      A                      A                      A
 Frequencies --    649.2963               678.6716               724.1565
 Red. masses --      2.5437                 3.1202                 1.7691
 Frc consts  --      0.6318                 0.8467                 0.5466
 IR Inten    --     17.8653                18.0726                64.9881

                     37                     38                     39
                      A                      A                      A
 Frequencies --    742.2733               746.3567               779.4405
 Red. masses --      3.3787                 3.5562                 4.5110
 Frc consts  --      1.0968                 1.1672                 1.6147
 IR Inten    --     21.1487                12.1024                25.0790

                     40                     41                     42
                      A                      A                      A
 Frequencies --    828.5267               834.0108               878.0346
 Red. masses --      2.6902                 1.1932                 2.2463
 Frc consts  --      1.0881                 0.4890                 1.0203
 IR Inten    --     12.5561                 0.9909                 1.8500

                     43                     44                     45
                      A                      A                      A
 Frequencies --    898.4635               915.3951               946.2079
 Red. masses --      1.6218                 1.8310                 1.6407
 Frc consts  --      0.7713                 0.9040                 0.8655
 IR Inten    --     20.6753                15.9596                 3.9346

                     46                     47                     48
                      A                      A                      A
 Frequencies --    958.4770               964.8746               982.2097
 Red. masses --      2.0291                 2.0140                 1.9025
 Frc consts  --      1.0983                 1.1047                 1.0814
 IR Inten    --     24.4457                 7.2465                 0.2865

                     49                     50                     51
                      A                      A                      A
 Frequencies --   1043.5124              1045.9261              1077.2748
 Red. masses --      2.3396                 3.0299                 2.0086
 Frc consts  --      1.5010                 1.9529                 1.3734
 IR Inten    --     57.2557                22.6814                 0.8754

                     52                     53                     54
                      A                      A                      A
 Frequencies --   1079.6560              1098.2673              1115.8829
 Red. masses --      1.7618                 2.2287                 2.9863
 Frc consts  --      1.2100                 1.5839                 2.1909
 IR Inten    --     46.9782                85.9417               212.4610

                     55                     56                     57
                      A                      A                      A
 Frequencies --   1129.9858              1133.2700              1142.6916
 Red. masses --      2.4830                 2.8238                 2.3058
 Frc consts  --      1.8680                 2.1367                 1.7739
 IR Inten    --     15.9341                77.2150                12.9420

                     58                     59                     60
                      A                      A                      A
 Frequencies --   1160.6837              1171.4424              1192.3382
 Red. masses --      2.5480                 1.7154                 1.1527
 Frc consts  --      2.0225                 1.3870                 0.9656
 IR Inten    --     16.4106                30.1602                19.3508

                     61                     62                     63
                      A                      A                      A
 Frequencies --   1227.1065              1228.2577              1240.3255
 Red. masses --      1.2215                 1.5351                 3.0784
 Frc consts  --      1.0837                 1.3645                 2.7902
 IR Inten    --     28.5509                19.6685                22.0362

                     64                     65                     66
                      A                      A                      A
 Frequencies --   1270.0465              1284.1088              1320.3740
 Red. masses --      1.2231                 1.3629                 1.2079
 Frc consts  --      1.1624                 1.3241                 1.2407
 IR Inten    --     10.2659                 7.8397                10.1909

                     67                     68                     69
                      A                      A                      A
 Frequencies --   1323.8424              1328.5858              1355.6351
 Red. masses --      1.2006                 1.3188                 1.2857
 Frc consts  --      1.2398                 1.3716                 1.3921
 IR Inten    --      1.9887                 6.0159                34.4951

                     70                     71                     72
                      A                      A                      A
 Frequencies --   1369.3772              1384.0990              1402.4812
 Red. masses --      1.8123                 1.3128                 1.3212
 Frc consts  --      2.0023                 1.4818                 1.5311
 IR Inten    --      2.6108                 3.0890                16.3606

                     73                     74                     75
                      A                      A                      A
 Frequencies --   1405.3229              1422.9289              1433.4946
 Red. masses --      1.2957                 1.2729                 1.2417
 Frc consts  --      1.5077                 1.5185                 1.5033
 IR Inten    --      3.7047                 1.6597                 0.5252

                     76                     77                     78
                      A                      A                      A
 Frequencies --   1439.3677              1441.2616              1442.9119
 Red. masses --      1.2494                 1.2740                 1.2833
 Frc consts  --      1.5251                 1.5593                 1.5742
 IR Inten    --     27.6440                43.9657                 3.5504

                     79                     80                     81
                      A                      A                      A
 Frequencies --   1456.1874              1491.4031              1511.1613
 Red. masses --      1.4621                 1.1023                 1.0987
 Frc consts  --      1.8267                 1.4445                 1.4782
 IR Inten    --     33.7551                 8.5568                13.0862

                     82                     83                     84
                      A                      A                      A
 Frequencies --   1517.6205              1521.4662              1527.6097
 Red. masses --      1.0580                 1.0471                 1.0664
 Frc consts  --      1.4357                 1.4281                 1.4662
 IR Inten    --      2.8600                 0.8225                 6.0110

                     85                     86                     87
                      A                      A                      A
 Frequencies --   1529.5646              1533.9365              1537.5094
 Red. masses --      1.0458                 1.0768                 1.0877
 Frc consts  --      1.4415                 1.4928                 1.5149
 IR Inten    --     12.2926                 8.2453                10.3424

                     88                     89                     90
                      A                      A                      A
 Frequencies --   1546.2172              1551.6659              1555.0828
 Red. masses --      1.0695                 1.0882                 1.1149
 Frc consts  --      1.5065                 1.5436                 1.5886
 IR Inten    --     12.5961                 0.6352                 7.2047

                     91                     92                     93
                      A                      A                      A
 Frequencies --   1854.6351              2970.5728              3037.3030
 Red. masses --      9.6629                 1.0737                 1.0689
 Frc consts  --     19.5828                 5.5822                 5.8100
 IR Inten    --    237.6945                74.3540                57.1836

                     94                     95                     96
                      A                      A                      A
 Frequencies --   3045.2830              3051.2197              3061.8971
 Red. masses --      1.0399                 1.0723                 1.0364
 Frc consts  --      5.6821                 5.8818                 5.7250
 IR Inten    --     27.5982                12.2709                21.0628

                     97                     98                     99
                      A                      A                      A
 Frequencies --   3069.0346              3082.3418              3085.1759
 Red. masses --      1.0354                 1.0844                 1.0865
 Frc consts  --      5.7462                 6.0700                 6.0933
 IR Inten    --     14.0666                10.6544                27.8783

                    100                    101                    102
                      A                      A                      A
 Frequencies --   3094.8716              3106.4800              3124.7352
 Red. masses --      1.0610                 1.0953                 1.0946
 Frc consts  --      5.9876                 6.2279                 6.2970
 IR Inten    --     10.5730                23.2395                41.4017

                    103                    104                    105
                      A                      A                      A
 Frequencies --   3133.8371              3136.1284              3140.9639
 Red. masses --      1.1022                 1.0993                 1.1025
 Frc consts  --      6.3779                 6.3704                 6.4084
 IR Inten    --     12.5170                29.4307                11.9095

                    106                    107                    108
                      A                      A                      A
 Frequencies --   3142.3895              3144.9133              3146.6139
 Red. masses --      1.0932                 1.1034                 1.0999
 Frc consts  --      6.3600                 6.4296                 6.4165
 IR Inten    --     18.9856                19.4968                14.4391

                    109                    110                    111
                      A                      A                      A
 Frequencies --   3147.5948              3177.5374              3489.5009
 Red. masses --      1.1032                 1.0882                 1.0738
 Frc consts  --      6.4398                 6.4736                 7.7039
 IR Inten    --     10.8432                 1.9495                 0.5477

                    112                    113                    114
                      A                      A                      A
 Frequencies --   3678.3865              3706.7500              3726.0808
 Red. masses --      1.0644                 1.0654                 1.0668
 Frc consts  --      8.4854                 8.6247                 8.7262
 IR Inten    --     73.6778                32.7460               222.6243

 - Thermochemistry -
 -------------------
 Temperature   298.150 Kelvin.  Pressure   1.00000 Atm.
 Atom     1 has atomic number  6 and mass  12.00000

 Molecular mass:   265.13478 amu.
 Principal axes and moments of inertia in atomic units:
                           1         2         3
     Eigenvalues --  2621.366567445.490008494.29783
           X            0.99981  -0.01675  -0.01025
           Y            0.01660   0.99975  -0.01474
           Z            0.01049   0.01457   0.99984
 This molecule is an asymmetric top.
 Rotational symmetry number  1.
 Warning -- assumption of classical behavior for rotation
           may cause significant error
 Rotational temperatures (Kelvin)      0.03304     0.01163     0.01020
 Rotational constants (GHZ):           0.68847     0.24239     0.21247
 Zero-point vibrational energy     916539.7 (Joules/Mol)
                                  219.05825 (Kcal/Mol)
 Warning -- explicit consideration of  33 degrees of freedom as
           vibrations may cause significant error
 Vibrational temperatures:     53.53    64.55    88.18   112.23   134.36
          (Kelvin)            137.41   159.52   189.24   194.10   226.91
                              285.72   287.96   328.32   343.29   356.98
                              374.01   378.91   403.19   427.34   450.47
                              463.24   503.52   525.36   539.24   565.80
                              604.70   619.85   664.87   697.12   708.17
                              841.80   860.84   880.50   934.19   976.46
                             1041.90  1067.97  1073.84  1121.44  1192.07
                             1199.96  1263.30  1292.69  1317.05  1361.38
                             1379.03  1388.24  1413.18  1501.38  1504.85
                             1549.96  1553.38  1580.16  1605.51  1625.80
                             1630.52  1644.08  1669.97  1685.44  1715.51
                             1765.53  1767.19  1784.55  1827.31  1847.55
                             1899.72  1904.71  1911.54  1950.46  1970.23
                             1991.41  2017.86  2021.95  2047.28  2062.48
                             2070.93  2073.65  2076.03  2095.13  2145.80
                             2174.22  2183.52  2189.05  2197.89  2200.70
                             2206.99  2212.13  2224.66  2232.50  2237.42
                             2668.41  4273.99  4370.00  4381.48  4390.02
                             4405.39  4415.66  4434.80  4438.88  4452.83
                             4469.53  4495.80  4508.89  4512.19  4519.15
                             4521.20  4524.83  4527.28  4528.69  4571.77
                             5020.61  5292.38  5333.19  5361.00

 Zero-point correction=                           0.349092 (Hartree/Particle)
 Thermal correction to Energy=                    0.369394
 Thermal correction to Enthalpy=                  0.370338
 Thermal correction to Gibbs Free Energy=         0.300942
 Sum of electronic and zero-point Energies=          -1186.565576
 Sum of electronic and thermal Energies=             -1186.545274
 Sum of electronic and thermal Enthalpies=           -1186.544330
 Sum of electronic and thermal Free Energies=        -1186.613725

                     E (Thermal)             CV                S
                      KCal/Mol        Cal/Mol-Kelvin    Cal/Mol-Kelvin
 Total                  231.798             76.122            146.055
 Electronic               0.000              0.000              0.000
 Translational            0.889              2.981             42.624
 Rotational               0.889              2.981             33.472
 Vibrational            230.021             70.160             69.959
 Vibration     1          0.594              1.982              5.403
 Vibration     2          0.595              1.979              5.032
 Vibration     3          0.597              1.973              4.415
 Vibration     4          0.599              1.964              3.940
 Vibration     5          0.602              1.954              3.588
 Vibration     6          0.603              1.952              3.544
 Vibration     7          0.607              1.940              3.254
 Vibration     8          0.612              1.922              2.924
 Vibration     9          0.613              1.918              2.875
 Vibration    10          0.621              1.894              2.577
 Vibration    11          0.637              1.842              2.146
 Vibration    12          0.638              1.840              2.132
 Vibration    13          0.651              1.798              1.893
 Vibration    14          0.657              1.781              1.813
 Vibration    15          0.662              1.766              1.744
 Vibration    16          0.668              1.746              1.662
 Vibration    17          0.670              1.740              1.639
 Vibration    18          0.680              1.710              1.532
 Vibration    19          0.691              1.679              1.434
 Vibration    20          0.701              1.649              1.346
 Vibration    21          0.707              1.631              1.300
 Vibration    22          0.727              1.575              1.166
 Vibration    23          0.738              1.544              1.100
 Vibration    24          0.746              1.524              1.060
 Vibration    25          0.760              1.485              0.988
 Vibration    26          0.783              1.426              0.891
 Vibration    27          0.792              1.403              0.856
 Vibration    28          0.820              1.334              0.760
 Vibration    29          0.841              1.284              0.698
 Vibration    30          0.848              1.267              0.678
 Vibration    31          0.942              1.064              0.476
 Vibration    32          0.956              1.035              0.453
 Vibration    33          0.971              1.006              0.430

                           ! Non-Optimized Parameters !
 Normal termination of Gaussian 16 at Sun Dec 13 20:44:55 2020.

 ----------------------------------------------------------------------
 # B3LYP/6-311++G(d,p) empiricaldispersion=gd3bj scf=xqc pop=npa geom=c
 heck
 ----------------------------------------------------------------------

 --------------------------------------
 CID_79670083_JID_7274_Energie_neutraal
 --------------------------------------
 Structure from the checkpoint file:  "JID_7274.chk"
 Charge =  0 Multiplicity = 1

 SCF Done:  E(RB3LYP) =  -1187.20057505     A.U. after   15 cycles
 Normal termination of Gaussian 16 at Sun Dec 13 20:54:19 2020.

 ----------------------------------------------------------------------
 # B3LYP/6-311++G(d,p) empiricaldispersion=gd3bj scf=xqc pop=npa geom=c
 heck
 ----------------------------------------------------------------------

 ------------------------------------
 CID_79670083_JID_7274_Energie_kation
 ------------------------------------
 Structure from the checkpoint file:  "JID_7274.chk"
 Charge =  1 Multiplicity = 2

 SCF Done:  E(UB3LYP) =  -1186.90828289     A.U. after   23 cycles
 Normal termination of Gaussian 16 at Sun Dec 13 21:15:02 2020.
 Gaussian 16:  ES64L-G16RevA.03 25-Dec-2016

 ----------------------------------------------------------------------
 # B3LYP/6-311++G(d,p) empiricaldispersion=gd3bj scf=xqc pop=npa geom=c
 heck
 ----------------------------------------------------------------------

 -----------------------------------
 CID_79670083_JID_7274_Energie_anion
 -----------------------------------
 Structure from the checkpoint file:  "JID_7274.chk"
 Charge = -1 Multiplicity = 2

                         Standard orientation:
 ---------------------------------------------------------------------
 Center     Atomic      Atomic             Coordinates (Angstroms)
 Number     Number       Type             X           Y           Z
 ---------------------------------------------------------------------
      1          6           0        4.952044   -1.330726   -0.199396
      2          6           0        4.022235   -0.171669   -0.544297
      3          7           0        2.629619   -0.593532   -0.360523
      4          6           0        1.568281    0.392274   -0.548171
      5          6           0        1.716069    1.260742   -1.828225
      6          6           0        0.215018   -0.355788   -0.643482
      7          6           0       -0.058039   -1.420918    0.425222
      8          6           0        0.161203   -0.981201    1.873698
      9         16           0       -1.730935   -2.223577    0.184006
     10          6           0       -2.810086   -1.066782   -0.754711
     11          6           0       -3.653434   -0.070343    0.056968
     12          6           0       -2.851557    1.033888    0.734406
     13          8           0       -2.290652    1.857232   -0.292414
     14          8           0       -4.624001    0.514982   -0.807006
     15          6           0        1.581807    1.371007    0.632941
     16          8           0        2.454508    1.517110    1.452860
     17          8           0        0.475464    2.189534    0.649657
     18          1           0        4.787132   -1.655391    0.832394
     19          1           0        6.000351   -1.034920   -0.313723
     20          1           0        4.775667   -2.190799   -0.858402
     21          1           0        4.209738    0.664910    0.131251
     22          1           0        4.233602    0.177761   -1.569836
     23          1           0        2.439668   -1.373794   -0.986945
     24          1           0        1.796283    0.601596   -2.699127
     25          1           0        0.848183    1.911766   -1.964631
     26          1           0        2.612576    1.886345   -1.789123
     27          1           0       -0.576803    0.391062   -0.655177
     28          1           0        0.187640   -0.841704   -1.627357
     29          1           0        0.616959   -2.262819    0.245733
     30          1           0       -0.410482   -0.085148    2.131140
     31          1           0       -0.145336   -1.776679    2.558468
     32          1           0        1.223954   -0.779055    2.038163
     33          1           0       -2.238842   -0.541462   -1.522915
     34          1           0       -3.504649   -1.731484   -1.276040
     35          1           0       -4.209308   -0.620543    0.823911
     36          1           0       -3.527587    1.630469    1.362342
     37          1           0       -2.076719    0.601800    1.373266
     38          1           0       -1.414386    2.159452   -0.002679
     39          1           0       -4.148173    1.205044   -1.300922
     40          1           0        0.624337    2.801785    1.395271
 ---------------------------------------------------------------------

 SCF Done:  E(UB3LYP) =  -1187.19385648     A.U. after   33 cycles
 SCF Done:  E(UB3LYP) =  -1187.19385648     a.u. after    1 cycles

 The electronic state is 2-A.
 Alpha  occ. eigenvalues --  -88.74867 -19.08206 -19.03725 -19.03419 -19.02915
 Alpha  occ. eigenvalues --  -14.21114 -10.21837 -10.14169 -10.13915 -10.12809
 Alpha  occ. eigenvalues --  -10.12061 -10.10972 -10.09685 -10.09020 -10.07622
 Alpha  occ. eigenvalues --  -10.07100 -10.07053  -7.83465  -5.79874  -5.79475
 Alpha  occ. eigenvalues --   -5.78843  -1.02230  -0.95203  -0.93427  -0.92421
 Alpha  occ. eigenvalues --   -0.83060  -0.73898  -0.70467  -0.68137  -0.63738
 Alpha  occ. eigenvalues --   -0.63157  -0.60499  -0.57982  -0.56708  -0.52483
 Alpha  occ. eigenvalues --   -0.51555  -0.49247  -0.47621  -0.44116  -0.42031
 Alpha  occ. eigenvalues --   -0.40840  -0.40536  -0.38784  -0.38324  -0.37900
 Alpha  occ. eigenvalues --   -0.36964  -0.36676  -0.35631  -0.34672  -0.33801
 Alpha  occ. eigenvalues --   -0.32546  -0.32327  -0.31831  -0.30989  -0.30658
 Alpha  occ. eigenvalues --   -0.30242  -0.29154  -0.27997  -0.27436  -0.27154
 Alpha  occ. eigenvalues --   -0.26712  -0.26310  -0.25768  -0.24708  -0.24293
 Alpha  occ. eigenvalues --   -0.23782  -0.21329  -0.19935  -0.19255  -0.18923
 Alpha  occ. eigenvalues --   -0.14422  -0.13681   0.03909
 Alpha virt. eigenvalues --    0.05606   0.07016   0.07293   0.07709   0.07922
 Alpha virt. eigenvalues --    0.08407   0.08775   0.09265   0.09899   0.10473
 Alpha virt. eigenvalues --    0.10614   0.11059   0.11472   0.11739   0.12402

  Beta  occ. eigenvalues --  -88.74865 -19.08127 -19.03718 -19.03398 -19.02887
  Beta  occ. eigenvalues --  -14.21100 -10.21827 -10.14161 -10.13914 -10.12793
  Beta  occ. eigenvalues --  -10.12057 -10.10967 -10.09668 -10.09008 -10.07580
  Beta  occ. eigenvalues --  -10.07087 -10.07033  -7.83464  -5.79872  -5.79472
  Beta  occ. eigenvalues --   -5.78842  -1.02138  -0.95179  -0.93340  -0.92385
  Beta  occ. eigenvalues --   -0.83031  -0.73879  -0.70441  -0.68113  -0.63695
  Beta  occ. eigenvalues --   -0.63128  -0.60459  -0.57898  -0.56655  -0.52421
  Beta  occ. eigenvalues --   -0.51533  -0.49137  -0.47589  -0.44071  -0.42004
  Beta  occ. eigenvalues --   -0.40805  -0.40489  -0.38743  -0.38283  -0.37859
  Beta  occ. eigenvalues --   -0.36936  -0.36636  -0.35594  -0.34630  -0.33774
  Beta  occ. eigenvalues --   -0.32529  -0.32284  -0.31805  -0.30953  -0.30643
  Beta  occ. eigenvalues --   -0.30212  -0.29106  -0.27972  -0.27393  -0.27128
  Beta  occ. eigenvalues --   -0.26690  -0.26281  -0.25737  -0.24682  -0.24277
  Beta  occ. eigenvalues --   -0.23714  -0.21315  -0.19916  -0.19184  -0.18897
  Beta  occ. eigenvalues --   -0.14401  -0.13674
  Beta virt. eigenvalues --    0.06173   0.06865   0.07415   0.07587   0.07864
  Beta virt. eigenvalues --    0.08194   0.08640   0.08971   0.09661   0.10164
  Beta virt. eigenvalues --    0.10545   0.10780   0.11117   0.11615   0.11995

 Mulliken charges and spin densities:
               1          2
     1  C    0.372683  -0.922991
     2  C   -0.155315   0.005931
     3  N    0.094619   0.168800
     4  C   -1.232146   0.723728
     5  C    1.233227  -1.750326
     6  C   -0.312491   0.019046
     7  C    0.677187  -0.179838
     8  C   -0.822679  -0.020363
     9  S   -0.174412   0.047845
    10  C   -0.037531  -0.101699
    11  C   -0.387637  -0.232704
    12  C   -0.205514   0.041298
    13  O   -0.250106  -0.032527
    14  O   -0.194801   0.016083
    15  C    0.490673  -0.814874
    16  O   -0.202748   0.038293
    17  O   -0.304113   0.125330
    18  H    0.055025   0.089036
    19  H   -0.034759   0.167561
    20  H   -0.213080   0.336228
    21  H    0.187177  -0.016500
    22  H   -0.217643   0.351442
    23  H    0.149229   0.071862
    24  H   -0.354459   0.540893
    25  H   -0.222952   0.401110
    26  H   -0.149735   0.336925
    27  H    0.463448  -0.519450
    28  H    0.009477   0.198284
    29  H    0.202226   0.034183
    30  H   -0.176579   0.338784
    31  H    0.036439   0.130982
    32  H    0.224346  -0.027892
    33  H    0.089702   0.131914
    34  H    0.207141   0.062200
    35  H    0.164734   0.003425
    36  H   -0.186498   0.389498
    37  H    0.328034  -0.234572
    38  H    0.293130   0.046545
    39  H    0.213024   0.048613
    40  H   -0.656323   0.987897
 Sum of Mulliken charges =  -1.00000   1.00000

 Dipole moment (field-independent basis, Debye):
    X=             -2.2972    Y=             -4.2596    Z=              0.6128  Tot=              4.8782
 Quadrupole moment (field-independent basis, Debye-Ang):
   XX=           -188.5431   YY=           -166.4100   ZZ=           -155.7388
   XY=              2.9665   XZ=              4.8310   YZ=             -8.9486

 Summary of Natural Population Analysis:

                                       Natural Population
                Natural  -----------------------------------------------
    Atom  No    Charge         Core      Valence    Rydberg      Total
 -----------------------------------------------------------------------
      C    1   -0.28425      0.99967     2.28018    0.00441     3.28425
      C    2   -0.09225      0.99963     2.08202    0.01060     3.09225
      N    3   -0.34317      0.99971     2.83088    0.01258     3.84317
      C    4    0.02385      0.99951     1.96040    0.01624     2.97615
      C    5   -0.28937      0.99963     2.28245    0.00729     3.28937
      C    6   -0.20716      0.99955     2.19564    0.01198     3.20716
      C    7   -0.15589      0.99955     2.14360    0.01273     3.15589
      C    8   -0.29659      0.99962     2.29023    0.00674     3.29659
      S    9    0.07611      4.99962     2.90841    0.01586     7.92389
      C   10   -0.26555      0.99955     2.25570    0.01030     3.26555
      C   11    0.04747      0.99954     1.93909    0.01391     2.95253
      C   12   -0.02805      0.99956     2.01494    0.01355     3.02805
      O   13   -0.39291      0.99989     3.38656    0.00647     4.39291
      O   14   -0.37315      0.99990     3.36627    0.00698     4.37315
      C   15    0.42007      0.99962     1.55361    0.02670     2.57993
      O   16   -0.29578      0.99986     3.28985    0.00606     4.29578
      O   17   -0.37034      0.99987     3.36069    0.00979     4.37034
      H   18    0.09990      0.00000     0.39900    0.00110     0.40010
      H   19    0.09798      0.00000     0.40123    0.00079     0.40202
      H   20    0.09416      0.00000     0.40458    0.00126     0.40584
      H   21    0.10267      0.00000     0.39582    0.00151     0.39733
      H   22    0.08054      0.00000     0.41770    0.00176     0.41946
      H   23    0.17240      0.00000     0.32459    0.00301     0.32760
      H   24    0.10484      0.00000     0.39337    0.00179     0.39516
      H   25    0.10913      0.00000     0.38942    0.00145     0.39087
      H   26    0.10567      0.00000     0.39304    0.00128     0.39433
      H   27    0.11469      0.00000     0.38176    0.00355     0.38531
      H   28    0.10525      0.00000     0.39323    0.00153     0.39475
      H   29    0.10463      0.00000     0.39385    0.00152     0.39537
      H   30    0.09716      0.00000     0.40146    0.00138     0.40284
      H   31    0.10249      0.00000     0.39652    0.00099     0.39751
      H   32    0.11364      0.00000     0.38506    0.00130     0.38636
      H   33    0.10943      0.00000     0.38909    0.00148     0.39057
      H   34    0.11103      0.00000     0.38788    0.00109     0.38897
      H   35    0.08939      0.00000     0.40939    0.00122     0.41061
      H   36    0.08422      0.00000     0.41459    0.00118     0.41578
      H   37    0.08868      0.00000     0.40940    0.00191     0.41132
      H   38    0.25138      0.00000     0.24441    0.00421     0.24862
      H   39    0.23512      0.00000     0.26193    0.00295     0.26488
      H   40    0.25257      0.00000     0.22337    0.02406     0.24743
 =======================================================================
   * Total *    0.00000     20.99428    50.75119    0.25453    72.00000

 Normal termination of Gaussian 16 at Sun Dec 13 21:42:42 2020.
