 Gaussian 16, Revision A.03,

 -----------------------------------------------------------
 # opt freq B3LYP/6-31G(d) empiricaldispersion=gd3bj scf=xqc
 -----------------------------------------------------------

 -------------------------------
 CID_104483595_JID_4431_neutraal
 -------------------------------
 Symbolic Z-matrix:
 Charge =  0 Multiplicity = 1

 SCF Done:  E(RB3LYP) =  -940.166997558     A.U. after   14 cycles
 SCF Done:  E(RB3LYP) =  -940.170416366     A.U. after   12 cycles
 SCF Done:  E(RB3LYP) =  -940.170610748     A.U. after   12 cycles
 SCF Done:  E(RB3LYP) =  -940.171260883     A.U. after   12 cycles
 SCF Done:  E(RB3LYP) =  -940.171422280     A.U. after   11 cycles
 SCF Done:  E(RB3LYP) =  -940.171565109     A.U. after   12 cycles
 SCF Done:  E(RB3LYP) =  -940.171672500     A.U. after   11 cycles
 SCF Done:  E(RB3LYP) =  -940.171712433     A.U. after   11 cycles
 SCF Done:  E(RB3LYP) =  -940.171743885     A.U. after   10 cycles
 SCF Done:  E(RB3LYP) =  -940.171799852     A.U. after   12 cycles
 SCF Done:  E(RB3LYP) =  -940.171950081     A.U. after   10 cycles
 SCF Done:  E(RB3LYP) =  -940.171949511     A.U. after    9 cycles
 SCF Done:  E(RB3LYP) =  -940.171950795     A.U. after    9 cycles
 SCF Done:  E(RB3LYP) =  -940.171950852     A.U. after    7 cycles
 SCF Done:  E(RB3LYP) =  -940.171950935     A.U. after    7 cycles
 Optimization completed.
    -- Stationary point found.
 Normal termination of Gaussian 16 at Thu Dec 10 09:51:45 2020.

 --------------------------------------------------------------------
 #N Geom=AllCheck Guess=TCheck SCRF=Check GenChk RB3LYP/6-31G(d) Freq
 --------------------------------------------------------------------

 Structure from the checkpoint file:  "JID_4431.chk"
 -------------------------------
 CID_104483595_JID_4431_neutraal
 -------------------------------
 Charge =  0 Multiplicity = 1

 SCF Done:  E(RB3LYP) =  -940.171950935     A.U. after    1 cycles

  Exact polarizability: 174.964   0.200 127.380  10.712  -8.292 126.853
 Approx polarizability: 215.538  -9.754 191.170  25.304 -24.210 210.775

                      1                      2                      3
                      A                      A                      A
 Frequencies --     29.9773                36.9750                48.4252
 Red. masses --      5.2175                 3.9056                 4.3954
 Frc consts  --      0.0028                 0.0031                 0.0061
 IR Inten    --      5.4299                 0.9616                 7.1566

                      4                      5                      6
                      A                      A                      A
 Frequencies --     53.6835                85.4233               102.7829
 Red. masses --      3.3340                 2.9012                 3.9669
 Frc consts  --      0.0057                 0.0125                 0.0247
 IR Inten    --      0.4772                 1.2992                 0.6782

                      7                      8                      9
                      A                      A                      A
 Frequencies --    134.7007               148.7196               189.6756
 Red. masses --      1.9238                 2.8395                 3.2832
 Frc consts  --      0.0206                 0.0370                 0.0696
 IR Inten    --      0.5121                 0.5074                 1.4278

                     10                     11                     12
                      A                      A                      A
 Frequencies --    233.7353               248.4627               269.8251
 Red. masses --      1.6934                 1.5876                 2.3636
 Frc consts  --      0.0545                 0.0577                 0.1014
 IR Inten    --      0.1638                 0.0364                 1.5107

                     13                     14                     15
                      A                      A                      A
 Frequencies --    302.5821               332.8743               359.1257
 Red. masses --      2.4453                 1.1978                 2.4423
 Frc consts  --      0.1319                 0.0782                 0.1856
 IR Inten    --      2.1539               217.8313                 1.3556

                     16                     17                     18
                      A                      A                      A
 Frequencies --    390.9672               407.0186               431.7966
 Red. masses --      2.0333                 1.9519                 2.4317
 Frc consts  --      0.1831                 0.1905                 0.2671
 IR Inten    --      1.2066                 1.4105                 1.7107

                     19                     20                     21
                      A                      A                      A
 Frequencies --    436.8171               448.1660               517.0052
 Red. masses --      2.5918                 2.0587                 2.2108
 Frc consts  --      0.2914                 0.2436                 0.3482
 IR Inten    --      1.0909                 0.1253                 3.6299

                     22                     23                     24
                      A                      A                      A
 Frequencies --    596.3340               629.9741               650.1116
 Red. masses --      3.3207                 1.8140                 1.6817
 Frc consts  --      0.6958                 0.4242                 0.4188
 IR Inten    --      8.2333                10.5151                 7.7548

                     25                     26                     27
                      A                      A                      A
 Frequencies --    652.6175               695.3670               746.5064
 Red. masses --      2.5117                 2.2642                 2.3370
 Frc consts  --      0.6303                 0.6450                 0.7673
 IR Inten    --      0.7457                 4.3595                 1.2592

                     28                     29                     30
                      A                      A                      A
 Frequencies --    781.3370               810.5150               818.6945
 Red. masses --      1.8667                 2.0539                 1.5514
 Frc consts  --      0.6714                 0.7950                 0.6127
 IR Inten    --      9.5374                 3.3618                 7.5710

                     31                     32                     33
                      A                      A                      A
 Frequencies --    844.6311               891.3471               926.2707
 Red. masses --      2.5883                 2.0531                 2.2512
 Frc consts  --      1.0879                 0.9611                 1.1380
 IR Inten    --      5.0711                 1.4048                 3.5106

                     34                     35                     36
                      A                      A                      A
 Frequencies --    934.7973               947.6652               962.9440
 Red. masses --      2.2210                 2.0824                 2.1318
 Frc consts  --      1.1435                 1.1019                 1.1647
 IR Inten    --     11.1735                 7.4754                10.1567

                     37                     38                     39
                      A                      A                      A
 Frequencies --    970.1869               984.0669              1015.3695
 Red. masses --      1.7167                 1.5598                 1.8905
 Frc consts  --      0.9521                 0.8900                 1.1483
 IR Inten    --     23.3684                 1.8176                 3.6916

                     40                     41                     42
                      A                      A                      A
 Frequencies --   1025.0692              1042.6634              1067.0172
 Red. masses --      1.7503                 1.6123                 2.3281
 Frc consts  --      1.0836                 1.0327                 1.5617
 IR Inten    --      0.2575                 0.5843                11.2379

                     43                     44                     45
                      A                      A                      A
 Frequencies --   1080.3339              1111.2286              1126.2736
 Red. masses --      2.0682                 2.9642                 1.6585
 Frc consts  --      1.4222                 2.1566                 1.2395
 IR Inten    --      5.8661                 4.9926                30.2306

                     46                     47                     48
                      A                      A                      A
 Frequencies --   1142.3961              1151.7615              1163.7656
 Red. masses --      1.8593                 1.8197                 1.6262
 Frc consts  --      1.4297                 1.4222                 1.2976
 IR Inten    --     22.4998                 7.3066                 2.3015

                     49                     50                     51
                      A                      A                      A
 Frequencies --   1199.6877              1227.8810              1236.8154
 Red. masses --      1.2858                 1.4432                 1.2657
 Frc consts  --      1.0904                 1.2820                 1.1408
 IR Inten    --     28.0384                13.2615                 6.3415

                     52                     53                     54
                      A                      A                      A
 Frequencies --   1249.5061              1285.7169              1314.7907
 Red. masses --      1.3895                 1.3674                 1.2981
 Frc consts  --      1.2782                 1.3318                 1.3221
 IR Inten    --      3.8964                 2.9702                 1.6769

                     55                     56                     57
                      A                      A                      A
 Frequencies --   1317.3043              1329.5491              1333.1877
 Red. masses --      1.3567                 2.1260                 1.3366
 Frc consts  --      1.3871                 2.2143                 1.3997
 IR Inten    --      6.6070                53.4526                 0.9584

                     58                     59                     60
                      A                      A                      A
 Frequencies --   1343.3660              1358.5185              1364.0080
 Red. masses --      1.2936                 1.3711                 1.4361
 Frc consts  --      1.3754                 1.4910                 1.5743
 IR Inten    --     15.2475                41.2034                14.8766

                     61                     62                     63
                      A                      A                      A
 Frequencies --   1379.4474              1387.0453              1392.8451
 Red. masses --      1.3097                 1.5227                 1.3435
 Frc consts  --      1.4683                 1.7260                 1.5357
 IR Inten    --      1.9423                26.0862                 4.0647

                     64                     65                     66
                      A                      A                      A
 Frequencies --   1403.6677              1411.7705              1416.0539
 Red. masses --      1.4638                 1.4614                 1.3989
 Frc consts  --      1.6992                 1.7161                 1.6527
 IR Inten    --      1.9898                13.4459                 4.9692

                     67                     68                     69
                      A                      A                      A
 Frequencies --   1426.9069              1439.6239              1442.9066
 Red. masses --      1.3449                 2.1867                 1.2484
 Frc consts  --      1.6134                 2.6702                 1.5314
 IR Inten    --      8.7756               123.7498                 3.8464

                     70                     71                     72
                      A                      A                      A
 Frequencies --   1505.8764              1511.7221              1515.8614
 Red. masses --      1.1012                 1.0813                 1.0704
 Frc consts  --      1.4713                 1.4560                 1.4491
 IR Inten    --      3.8610                 6.4637                 0.9906

                     73                     74                     75
                      A                      A                      A
 Frequencies --   1518.8500              1524.0183              1524.5068
 Red. masses --      1.0841                 1.1245                 1.0892
 Frc consts  --      1.4735                 1.5388                 1.4915
 IR Inten    --      2.7814                12.2006                 1.2418

                     76                     77                     78
                      A                      A                      A
 Frequencies --   1530.7140              1534.6938              1537.1590
 Red. masses --      1.0487                 1.0809                 1.0670
 Frc consts  --      1.4478                 1.5000                 1.4854
 IR Inten    --      4.7190                 7.3558                 3.2734

                     79                     80                     81
                      A                      A                      A
 Frequencies --   1544.1258              1665.0871              3002.4053
 Red. masses --      1.0962                 1.2648                 1.0724
 Frc consts  --      1.5400                 2.0661                 5.6958
 IR Inten    --      2.6618               164.0776                44.5750

                     82                     83                     84
                      A                      A                      A
 Frequencies --   3008.7400              3023.3438              3029.5636
 Red. masses --      1.0723                 1.0623                 1.0630
 Frc consts  --      5.7191                 5.7210                 5.7485
 IR Inten    --     64.8681                41.8445                41.6659

                     85                     86                     87
                      A                      A                      A
 Frequencies --   3039.4980              3039.8069              3045.2944
 Red. masses --      1.0697                 1.0796                 1.0384
 Frc consts  --      5.8223                 5.8776                 5.6738
 IR Inten    --     40.8996                 4.3251                23.8380

                     88                     89                     90
                      A                      A                      A
 Frequencies --   3047.0079              3058.3289              3064.0079
 Red. masses --      1.0655                 1.0981                 1.0996
 Frc consts  --      5.8286                 6.0514                 6.0821
 IR Inten    --     28.5934                36.1047                21.8339

                     91                     92                     93
                      A                      A                      A
 Frequencies --   3070.4671              3074.2492              3084.5947
 Red. masses --      1.0630                 1.0772                 1.0834
 Frc consts  --      5.9047                 5.9981                 6.0737
 IR Inten    --     27.1819                13.7732                65.7620

                     94                     95                     96
                      A                      A                      A
 Frequencies --   3100.6129              3102.6771              3108.9357
 Red. masses --      1.0914                 1.0942                 1.1011
 Frc consts  --      6.1821                 6.2062                 6.2703
 IR Inten    --     70.7805                 3.3734                35.0962

                     97                     98                     99
                      A                      A                      A
 Frequencies --   3112.4197              3113.0257              3117.2594
 Red. masses --      1.0973                 1.1004                 1.1024
 Frc consts  --      6.2627                 6.2829                 6.3114
 IR Inten    --     38.3087                90.5393                26.3290

                    100                    101                    102
                      A                      A                      A
 Frequencies --   3120.9756              3566.6164              3692.6763
 Red. masses --      1.1025                 1.0446                 1.1052
 Frc consts  --      6.3274                 7.8290                 8.8792
 IR Inten    --     18.9674                39.7434                33.7662

 - Thermochemistry -
 -------------------
 Temperature   298.150 Kelvin.  Pressure   1.00000 Atm.
 Atom     1 has atomic number  6 and mass  12.00000

 Molecular mass:   214.15037 amu.
 Principal axes and moments of inertia in atomic units:
                           1         2         3
     Eigenvalues --  1467.807467302.324127724.56940
           X            0.99982   0.01836  -0.00563
           Y           -0.01822   0.99952   0.02500
           Z            0.00609  -0.02489   0.99967
 This molecule is an asymmetric top.
 Rotational symmetry number  1.
 Warning -- assumption of classical behavior for rotation
           may cause significant error
 Rotational temperatures (Kelvin)      0.05901     0.01186     0.01121
 Rotational constants (GHZ):           1.22955     0.24715     0.23364
 Zero-point vibrational energy     859957.7 (Joules/Mol)
                                  205.53483 (Kcal/Mol)
 Warning -- explicit consideration of  22 degrees of freedom as
           vibrations may cause significant error
 Vibrational temperatures:     43.13    53.20    69.67    77.24   122.91
          (Kelvin)            147.88   193.80   213.97   272.90   336.29
                              357.48   388.22   435.35   478.93   516.70
                              562.51   585.61   621.26   628.48   644.81
                              743.86   857.99   906.39   935.37   938.97
                             1000.48  1074.06  1124.17  1166.15  1177.92
                             1215.24  1282.45  1332.70  1344.96  1363.48
                             1385.46  1395.88  1415.85  1460.89  1474.85
                             1500.16  1535.20  1554.36  1598.81  1620.46
                             1643.65  1657.13  1674.40  1726.08  1766.65
                             1779.50  1797.76  1849.86  1891.69  1895.31
                             1912.92  1918.16  1932.80  1954.61  1962.50
                             1984.72  1995.65  2003.99  2019.56  2031.22
                             2037.39  2053.00  2071.30  2076.02  2166.62
                             2175.03  2180.99  2185.29  2192.72  2193.43
                             2202.36  2208.08  2211.63  2221.65  2395.69
                             4319.79  4328.91  4349.92  4358.87  4373.16
                             4373.60  4381.50  4383.96  4400.25  4408.42
                             4417.72  4423.16  4438.04  4461.09  4464.06
                             4473.07  4478.08  4478.95  4485.04  4490.39
                             5131.57  5312.94

 Zero-point correction=                           0.327541 (Hartree/Particle)
 Thermal correction to Energy=                    0.343338
 Thermal correction to Enthalpy=                  0.344282
 Thermal correction to Gibbs Free Energy=         0.282717
 Sum of electronic and zero-point Energies=           -939.844410
 Sum of electronic and thermal Energies=              -939.828613
 Sum of electronic and thermal Enthalpies=            -939.827669
 Sum of electronic and thermal Free Energies=         -939.889234

                     E (Thermal)             CV                S
                      KCal/Mol        Cal/Mol-Kelvin    Cal/Mol-Kelvin
 Total                  215.448             59.313            129.574
 Electronic               0.000              0.000              0.000
 Translational            0.889              2.981             41.988
 Rotational               0.889              2.981             32.782
 Vibrational            213.670             53.351             54.805
 Vibration     1          0.594              1.984              5.831
 Vibration     2          0.594              1.982              5.415
 Vibration     3          0.595              1.978              4.881
 Vibration     4          0.596              1.976              4.677
 Vibration     5          0.601              1.959              3.762
 Vibration     6          0.605              1.947              3.401
 Vibration     7          0.613              1.919              2.878
 Vibration     8          0.618              1.904              2.689
 Vibration     9          0.633              1.854              2.231
 Vibration    10          0.654              1.789              1.850
 Vibration    11          0.662              1.765              1.741
 Vibration    12          0.674              1.729              1.597
 Vibration    13          0.694              1.669              1.403
 Vibration    14          0.715              1.610              1.246
 Vibration    15          0.734              1.556              1.126
 Vibration    16          0.759              1.489              0.996
 Vibration    17          0.772              1.455              0.937
 Vibration    18          0.793              1.401              0.853
 Vibration    19          0.797              1.390              0.837
 Vibration    20          0.807              1.365              0.801
 Vibration    21          0.872              1.212              0.617
 Vibration    22          0.954              1.040              0.456

                           ! Non-Optimized Parameters !
 Normal termination of Gaussian 16 at Thu Dec 10 10:02:14 2020.

 ----------------------------------------------------------------------
 # B3LYP/6-311++G(d,p) empiricaldispersion=gd3bj scf=xqc pop=npa geom=c
 heck
 ----------------------------------------------------------------------

 ---------------------------------------
 CID_104483595_JID_4431_Energie_neutraal
 ---------------------------------------
 Structure from the checkpoint file:  "JID_4431.chk"
 Charge =  0 Multiplicity = 1

 SCF Done:  E(RB3LYP) =  -940.353121295     A.U. after   15 cycles
 Normal termination of Gaussian 16 at Thu Dec 10 10:07:17 2020.

 ----------------------------------------------------------------------
 # B3LYP/6-311++G(d,p) empiricaldispersion=gd3bj scf=xqc pop=npa geom=c
 heck
 ----------------------------------------------------------------------

 -------------------------------------
 CID_104483595_JID_4431_Energie_kation
 -------------------------------------
 Structure from the checkpoint file:  "JID_4431.chk"
 Charge =  1 Multiplicity = 2

 SCF Done:  E(UB3LYP) =  -940.083610636     A.U. after   26 cycles
 Normal termination of Gaussian 16 at Thu Dec 10 10:18:54 2020.
 Gaussian 16:  ES64L-G16RevA.03 25-Dec-2016

 ----------------------------------------------------------------------
 # B3LYP/6-311++G(d,p) empiricaldispersion=gd3bj scf=xqc pop=npa geom=c
 heck
 ----------------------------------------------------------------------

 ------------------------------------
 CID_104483595_JID_4431_Energie_anion
 ------------------------------------
 Structure from the checkpoint file:  "JID_4431.chk"
 Charge = -1 Multiplicity = 2

                         Standard orientation:
 ---------------------------------------------------------------------
 Center     Atomic      Atomic             Coordinates (Angstroms)
 Number     Number       Type             X           Y           Z
 ---------------------------------------------------------------------
      1          6           0       -4.758032   -1.807010    0.039725
      2          6           0       -3.957210   -0.761055   -0.738585
      3          6           0       -2.546928   -0.516906   -0.181908
      4          6           0       -2.540620    0.235711    1.172472
      5          6           0       -2.165807    1.679059    0.785310
      6          7           0       -1.257917    1.571998   -0.355559
      7          6           0       -1.702998    0.405621   -1.122883
      8          6           0        0.165286    1.727775   -0.078652
      9          6           0        0.844926    0.824627    0.974132
     10          6           0        1.012087   -0.660345    0.625939
     11          6           0        1.881354   -0.931097   -0.617638
     12          6           0        3.280582   -0.364938   -0.474569
     13         16           0        4.369264   -0.925652    0.651998
     14          7           0        3.569668    0.650177   -1.310183
     15          1           0       -4.243924   -2.776022    0.034827
     16          1           0       -5.751445   -1.953288   -0.398684
     17          1           0       -4.897674   -1.514233    1.086398
     18          1           0       -3.873074   -1.080579   -1.786556
     19          1           0       -4.504086    0.192977   -0.756284
     20          1           0       -2.056533   -1.492192   -0.072297
     21          1           0       -1.783268   -0.183630    1.842634
     22          1           0       -3.503623    0.177375    1.690650
     23          1           0       -3.070067    2.227252    0.480603
     24          1           0       -1.703156    2.245302    1.599522
     25          1           0       -0.848673   -0.117707   -1.562528
     26          1           0       -2.337210    0.736118   -1.959360
     27          1           0        0.690248    1.639833   -1.038514
     28          1           0        0.316676    2.767410    0.240370
     29          1           0        1.838715    1.246649    1.176842
     30          1           0        0.293196    0.904104    1.918958
     31          1           0        1.483085   -1.168979    1.473445
     32          1           0        0.038649   -1.135856    0.470854
     33          1           0        1.970268   -2.012548   -0.757244
     34          1           0        1.399609   -0.527427   -1.517745
     35          1           0        2.899537    0.997023   -1.982577
     36          1           0        4.476437    1.094975   -1.255135
 ---------------------------------------------------------------------

 SCF Done:  E(UB3LYP) =  -940.347941122     A.U. after   33 cycles
 SCF Done:  E(UB3LYP) =  -940.347941122     a.u. after    1 cycles

 The electronic state is 2-A.
 Alpha  occ. eigenvalues --  -88.67228 -14.23316 -14.20012 -10.12934 -10.09845
 Alpha  occ. eigenvalues --  -10.09538 -10.09158 -10.07861 -10.07632 -10.07222
 Alpha  occ. eigenvalues --  -10.07155 -10.06976 -10.06520 -10.06445  -7.76003
 Alpha  occ. eigenvalues --   -5.72351  -5.71900  -5.71546  -0.83411  -0.83254
 Alpha  occ. eigenvalues --   -0.71558  -0.69655  -0.65841  -0.63686  -0.62421
 Alpha  occ. eigenvalues --   -0.59688  -0.55782  -0.53286  -0.50707  -0.47307
 Alpha  occ. eigenvalues --   -0.46643  -0.45092  -0.42510  -0.40926  -0.38287
 Alpha  occ. eigenvalues --   -0.37572  -0.36567  -0.35089  -0.33879  -0.32965
 Alpha  occ. eigenvalues --   -0.32043  -0.31018  -0.30682  -0.29150  -0.28249
 Alpha  occ. eigenvalues --   -0.27482  -0.26892  -0.26168  -0.25458  -0.24995
 Alpha  occ. eigenvalues --   -0.23711  -0.23046  -0.22838  -0.22522  -0.22229
 Alpha  occ. eigenvalues --   -0.21780  -0.11750  -0.10986  -0.09532   0.04027
 Alpha virt. eigenvalues --    0.05706   0.06508   0.07261   0.07705   0.08078
 Alpha virt. eigenvalues --    0.09002   0.09615   0.09791   0.10499   0.10507
 Alpha virt. eigenvalues --    0.11162   0.11792   0.12356   0.12553   0.13237

  Beta  occ. eigenvalues --  -88.67220 -14.23220 -14.20013 -10.12597 -10.09836
  Beta  occ. eigenvalues --  -10.09528 -10.09145 -10.07851 -10.07619 -10.07212
  Beta  occ. eigenvalues --  -10.07132 -10.06977 -10.06500 -10.06441  -7.75996
  Beta  occ. eigenvalues --   -5.72358  -5.71867  -5.71542  -0.83338  -0.82995
  Beta  occ. eigenvalues --   -0.71531  -0.69569  -0.65763  -0.63556  -0.62335
  Beta  occ. eigenvalues --   -0.59558  -0.55728  -0.53239  -0.50609  -0.47176
  Beta  occ. eigenvalues --   -0.46602  -0.44952  -0.42409  -0.40889  -0.38241
  Beta  occ. eigenvalues --   -0.37538  -0.36473  -0.35003  -0.33739  -0.32930
  Beta  occ. eigenvalues --   -0.32013  -0.30902  -0.30620  -0.29097  -0.28173
  Beta  occ. eigenvalues --   -0.27264  -0.26859  -0.26025  -0.25322  -0.24743
  Beta  occ. eigenvalues --   -0.23647  -0.22941  -0.22732  -0.22471  -0.22167
  Beta  occ. eigenvalues --   -0.21632  -0.11314  -0.10968  -0.09499
  Beta virt. eigenvalues --    0.05974   0.06938   0.07479   0.07708   0.08108
  Beta virt. eigenvalues --    0.08686   0.09505   0.09657   0.10128   0.10534
  Beta virt. eigenvalues --    0.10921   0.11479   0.11823   0.12406   0.12680

 Mulliken charges and spin densities:
               1          2
     1  C    0.261393  -0.891719
     2  C   -0.370301  -0.050917
     3  C    0.046500   0.400986
     4  C   -0.108706  -0.177419
     5  C   -0.062885  -0.368963
     6  N    0.176787   0.074686
     7  C    0.083884  -0.644047
     8  C   -0.454806  -0.288563
     9  C   -0.328872   0.224152
    10  C   -0.355952   0.287239
    11  C    1.023984  -1.284933
    12  C   -0.109318   0.303741
    13  S   -0.760743   0.035705
    14  N   -0.141593  -0.019512
    15  H   -0.095051   0.236218
    16  H   -0.206705   0.343872
    17  H   -0.020785   0.140533
    18  H   -0.041276   0.184047
    19  H    0.043689   0.093195
    20  H    0.092354   0.048936
    21  H    0.111978   0.016544
    22  H   -0.062056   0.214606
    23  H    0.030225   0.125249
    24  H    0.163670  -0.010827
    25  H   -0.248237   0.383657
    26  H   -0.062417   0.250230
    27  H    0.159140  -0.021426
    28  H    0.077878   0.071675
    29  H    0.252668  -0.077984
    30  H    0.038221   0.112945
    31  H    0.104539   0.040512
    32  H    0.151309   0.055819
    33  H   -0.149344   0.337234
    34  H   -0.044952   0.137710
    35  H   -0.291182   0.557378
    36  H    0.096960   0.159441
 Sum of Mulliken charges =  -1.00000   1.00000

 Dipole moment (field-independent basis, Debye):
    X=             -4.1977    Y=              3.3749    Z=              2.7821  Tot=              6.0622
 Quadrupole moment (field-independent basis, Debye-Ang):
   XX=           -195.7886   YY=           -129.1799   ZZ=           -130.5499
   XY=              3.5850   XZ=             -1.8113   YZ=              2.9564

 Summary of Natural Population Analysis:

                                       Natural Population
                Natural  -----------------------------------------------
    Atom  No    Charge         Core      Valence    Rydberg      Total
 -----------------------------------------------------------------------
      C    1   -0.28398      0.99967     2.28000    0.00432     3.28398
      C    2   -0.18758      0.99962     2.17888    0.00908     3.18758
      C    3   -0.12229      0.99960     2.11147    0.01122     3.12229
      C    4   -0.19972      0.99962     2.19326    0.00685     3.19972
      C    5   -0.08430      0.99963     2.07525    0.00943     3.08430
      N    6   -0.28443      0.99973     2.77213    0.01256     3.78443
      C    7   -0.08218      0.99961     2.07070    0.01187     3.08218
      C    8   -0.08063      0.99960     2.06808    0.01295     3.08063
      C    9   -0.20408      0.99962     2.19781    0.00664     3.20408
      C   10   -0.19012      0.99961     2.18187    0.00864     3.19012
      C   11   -0.22266      0.99956     2.21190    0.01121     3.22266
      C   12    0.11400      0.99965     1.86485    0.02150     2.88600
      S   13   -0.13734      4.99952     3.12446    0.01336     8.13734
      N   14   -0.37043      0.99966     2.85810    0.01267     3.87043
      H   15    0.09665      0.00000     0.40207    0.00128     0.40335
      H   16    0.09753      0.00000     0.40150    0.00098     0.40247
      H   17    0.09484      0.00000     0.40378    0.00138     0.40516
      H   18    0.09680      0.00000     0.40207    0.00113     0.40320
      H   19    0.09239      0.00000     0.40626    0.00135     0.40761
      H   20    0.09838      0.00000     0.40026    0.00136     0.40162
      H   21    0.09894      0.00000     0.39985    0.00121     0.40106
      H   22    0.09804      0.00000     0.40088    0.00108     0.40196
      H   23    0.08781      0.00000     0.41085    0.00134     0.41219
      H   24    0.09526      0.00000     0.40378    0.00096     0.40474
      H   25    0.10040      0.00000     0.39802    0.00157     0.39960
      H   26    0.08852      0.00000     0.40983    0.00165     0.41148
      H   27    0.09365      0.00000     0.40487    0.00148     0.40635
      H   28    0.09132      0.00000     0.40772    0.00096     0.40868
      H   29    0.10409      0.00000     0.39489    0.00102     0.39591
      H   30    0.09404      0.00000     0.40497    0.00099     0.40596
      H   31    0.10693      0.00000     0.39197    0.00109     0.39307
      H   32    0.09639      0.00000     0.40205    0.00156     0.40361
      H   33    0.11733      0.00000     0.38137    0.00130     0.38267
      H   34    0.09643      0.00000     0.40148    0.00209     0.40357
      H   35    0.19472      0.00000     0.30109    0.00418     0.30528
      H   36    0.19527      0.00000     0.30284    0.00189     0.30473
 =======================================================================
   * Total *    0.00000     17.99467    40.82116    0.18417    59.00000

 Normal termination of Gaussian 16 at Thu Dec 10 10:36:01 2020.
