 Gaussian 16, Revision A.03,

 -----------------------------------------------------------
 # opt freq B3LYP/6-31G(d) empiricaldispersion=gd3bj scf=xqc
 -----------------------------------------------------------

 ------------------------------
 CID_67174067_JID_1358_neutraal
 ------------------------------
 Symbolic Z-matrix:
 Charge =  0 Multiplicity = 1

 SCF Done:  E(RB3LYP) =  -806.142439912     A.U. after   14 cycles
 SCF Done:  E(RB3LYP) =  -806.148142351     A.U. after   12 cycles
 SCF Done:  E(RB3LYP) =  -806.149495120     A.U. after   12 cycles
 SCF Done:  E(RB3LYP) =  -806.149054194     A.U. after   12 cycles
 SCF Done:  E(RB3LYP) =  -806.149411528     A.U. after   12 cycles
 SCF Done:  E(RB3LYP) =  -806.150079355     A.U. after   10 cycles
 SCF Done:  E(RB3LYP) =  -806.150399778     A.U. after   11 cycles
 SCF Done:  E(RB3LYP) =  -806.150558449     A.U. after   11 cycles
 SCF Done:  E(RB3LYP) =  -806.150612458     A.U. after   10 cycles
 SCF Done:  E(RB3LYP) =  -806.150637678     A.U. after   10 cycles
 SCF Done:  E(RB3LYP) =  -806.150658462     A.U. after   10 cycles
 SCF Done:  E(RB3LYP) =  -806.150663143     A.U. after    9 cycles
 SCF Done:  E(RB3LYP) =  -806.150664152     A.U. after    8 cycles
 SCF Done:  E(RB3LYP) =  -806.150664208     A.U. after    7 cycles
 SCF Done:  E(RB3LYP) =  -806.150664222     A.U. after    7 cycles
 Optimization completed.
    -- Stationary point found.
 Normal termination of Gaussian 16 at Tue Dec  8 19:49:29 2020.

 --------------------------------------------------------------------
 #N Geom=AllCheck Guess=TCheck SCRF=Check GenChk RB3LYP/6-31G(d) Freq
 --------------------------------------------------------------------

 Structure from the checkpoint file:  "JID_1358.chk"
 ------------------------------
 CID_67174067_JID_1358_neutraal
 ------------------------------
 Charge =  0 Multiplicity = 1

 SCF Done:  E(RB3LYP) =  -806.150664222     A.U. after    1 cycles

  Exact polarizability: 142.823  -2.842 115.718   1.851  -1.403  93.984
 Approx polarizability: 183.750 -10.080 170.468   1.434  -3.744 143.177

                      1                      2                      3
                      A                      A                      A
 Frequencies --     37.4524                49.0820                82.9056
 Red. masses --      3.4748                 3.7460                 2.7631
 Frc consts  --      0.0029                 0.0053                 0.0112
 IR Inten    --      0.1373                 0.4570                 1.2475

                      4                      5                      6
                      A                      A                      A
 Frequencies --     85.6691               112.6743               140.2119
 Red. masses --      2.5810                 1.9944                 4.0525
 Frc consts  --      0.0112                 0.0149                 0.0469
 IR Inten    --      1.2187                 0.3834                 0.3389

                      7                      8                      9
                      A                      A                      A
 Frequencies --    189.4669               210.2652               218.4843
 Red. masses --      1.8961                 1.0651                 1.3313
 Frc consts  --      0.0401                 0.0277                 0.0374
 IR Inten    --      0.9999                 0.3032                 0.8916

                     10                     11                     12
                      A                      A                      A
 Frequencies --    270.7973               317.8822               336.0802
 Red. masses --      2.8844                 2.7223                 2.4345
 Frc consts  --      0.1246                 0.1621                 0.1620
 IR Inten    --      4.1312                 0.3314                 0.2292

                     13                     14                     15
                      A                      A                      A
 Frequencies --    384.3822               442.7114               511.6602
 Red. masses --      2.7314                 2.3761                 3.2263
 Frc consts  --      0.2378                 0.2744                 0.4976
 IR Inten    --      1.2734                 4.1804                 4.9953

                     16                     17                     18
                      A                      A                      A
 Frequencies --    570.2978               622.8138               644.3564
 Red. masses --      3.8133                 3.5711                 2.2885
 Frc consts  --      0.7307                 0.8161                 0.5598
 IR Inten    --      3.7455                 2.2827                 3.7265

                     19                     20                     21
                      A                      A                      A
 Frequencies --    673.1429               699.9746               784.3401
 Red. masses --      2.2410                 6.0731                 1.8779
 Frc consts  --      0.5983                 1.7532                 0.6807
 IR Inten    --      8.8642                 1.2388                12.2749

                     22                     23                     24
                      A                      A                      A
 Frequencies --    842.1286               854.3418               896.9905
 Red. masses --      1.7146                 1.6253                 3.1439
 Frc consts  --      0.7164                 0.6990                 1.4904
 IR Inten    --      4.6711                 1.6241                 8.2397

                     25                     26                     27
                      A                      A                      A
 Frequencies --    899.6821               926.2493               937.1935
 Red. masses --      1.9218                 2.3781                 2.0193
 Frc consts  --      0.9165                 1.2021                 1.0450
 IR Inten    --      9.5792                 3.5120                 4.5891

                     28                     29                     30
                      A                      A                      A
 Frequencies --    961.3909              1007.2096              1023.7143
 Red. masses --      1.7328                 1.2021                 2.4495
 Frc consts  --      0.9436                 0.7185                 1.5125
 IR Inten    --     18.8348                 7.5524                28.1450

                     31                     32                     33
                      A                      A                      A
 Frequencies --   1033.4056              1049.1858              1061.6212
 Red. masses --      1.2661                 1.5958                 1.9148
 Frc consts  --      0.7967                 1.0350                 1.2715
 IR Inten    --     22.6908                 1.3742                25.1788

                     34                     35                     36
                      A                      A                      A
 Frequencies --   1080.0442              1100.5805              1113.2896
 Red. masses --      1.4799                 2.5207                 3.0172
 Frc consts  --      1.0171                 1.7989                 2.2033
 IR Inten    --      2.2752                 6.5295                 8.1153

                     37                     38                     39
                      A                      A                      A
 Frequencies --   1135.0293              1184.4436              1219.7541
 Red. masses --      2.2524                 2.6652                 1.3331
 Frc consts  --      1.7096                 2.2030                 1.1686
 IR Inten    --      6.9344                11.2362                 5.0239

                     40                     41                     42
                      A                      A                      A
 Frequencies --   1240.2551              1268.0591              1296.6708
 Red. masses --      1.2153                 1.1378                 1.4923
 Frc consts  --      1.1014                 1.0779                 1.4783
 IR Inten    --      3.9083                 2.1691                 4.4453

                     43                     44                     45
                      A                      A                      A
 Frequencies --   1314.2171              1327.5958              1351.0523
 Red. masses --      1.2309                 1.3654                 1.2395
 Frc consts  --      1.2526                 1.4178                 1.3330
 IR Inten    --      5.6111                 0.7405                20.2457

                     46                     47                     48
                      A                      A                      A
 Frequencies --   1358.8314              1365.8228              1381.6885
 Red. masses --      1.2741                 1.3921                 1.2715
 Frc consts  --      1.3861                 1.5300                 1.4301
 IR Inten    --      1.5101                 6.4102                29.7085

                     49                     50                     51
                      A                      A                      A
 Frequencies --   1394.7354              1421.7609              1441.2584
 Red. masses --      1.1650                 1.3894                 1.2436
 Frc consts  --      1.3352                 1.6548                 1.5219
 IR Inten    --      3.5122                 7.3762                 1.6092

                     52                     53                     54
                      A                      A                      A
 Frequencies --   1499.2537              1502.9936              1515.4084
 Red. masses --      1.0474                 1.0457                 1.0663
 Frc consts  --      1.3871                 1.3918                 1.4427
 IR Inten    --      1.3406                 7.4664                 4.0052

                     55                     56                     57
                      A                      A                      A
 Frequencies --   1516.1725              1522.5257              1528.7681
 Red. masses --      1.0673                 1.0874                 1.0852
 Frc consts  --      1.4456                 1.4851                 1.4944
 IR Inten    --      2.4369                 4.5987                 0.2750

                     58                     59                     60
                      A                      A                      A
 Frequencies --   1530.6663              1537.3103              1549.2723
 Red. masses --      1.0873                 1.0574                 1.1005
 Frc consts  --      1.5009                 1.4724                 1.5563
 IR Inten    --      3.3333                 5.5571                 4.2592

                     61                     62                     63
                      A                      A                      A
 Frequencies --   1714.9231              2955.4842              3039.5453
 Red. masses --      6.8406                 1.0716                 1.0347
 Frc consts  --     11.8532                 5.5150                 5.6320
 IR Inten    --      6.4312                65.8295                27.6969

                     64                     65                     66
                      A                      A                      A
 Frequencies --   3047.1405              3051.4281              3054.7684
 Red. masses --      1.0691                 1.0617                 1.0372
 Frc consts  --      5.8487                 5.8243                 5.7023
 IR Inten    --     27.2143                20.9940                80.9839

                     67                     68                     69
                      A                      A                      A
 Frequencies --   3067.5750              3078.8217              3097.2587
 Red. masses --      1.0610                 1.0624                 1.0932
 Frc consts  --      5.8826                 5.9332                 6.1786
 IR Inten    --     22.8227                46.0990                 8.4728

                     70                     71                     72
                      A                      A                      A
 Frequencies --   3098.0067              3101.4926              3115.3165
 Red. masses --      1.0965                 1.1021                 1.1032
 Frc consts  --      6.2007                 6.2464                 6.3083
 IR Inten    --      8.5234                14.1588                18.6705

                     73                     74                     75
                      A                      A                      A
 Frequencies --   3116.3114              3125.1666              3132.5569
 Red. masses --      1.0990                 1.1024                 1.0983
 Frc consts  --      6.2880                 6.3436                 6.3500
 IR Inten    --      9.5922                47.5105                35.2325

                     76                     77                     78
                      A                      A                      A
 Frequencies --   3140.9832              3146.9067              3158.0048
 Red. masses --      1.0896                 1.1065                 1.1088
 Frc consts  --      6.3333                 6.4560                 6.5155
 IR Inten    --     43.0398                14.8740                10.9281

 - Thermochemistry -
 -------------------
 Temperature   298.150 Kelvin.  Pressure   1.00000 Atm.
 Atom     1 has atomic number  6 and mass  12.00000

 Molecular mass:   171.10817 amu.
 Principal axes and moments of inertia in atomic units:
                           1         2         3
     Eigenvalues --  1000.598043535.394843996.83198
           X            0.99986   0.01228   0.01167
           Y           -0.01214   0.99986  -0.01183
           Z           -0.01181   0.01168   0.99986
 This molecule is an asymmetric top.
 Rotational symmetry number  1.
 Warning -- assumption of classical behavior for rotation
           may cause significant error
 Rotational temperatures (Kelvin)      0.08656     0.02450     0.02167
 Rotational constants (GHZ):           1.80366     0.51048     0.45154
 Zero-point vibrational energy     656851.0 (Joules/Mol)
                                  156.99116 (Kcal/Mol)
 Warning -- explicit consideration of  16 degrees of freedom as
           vibrations may cause significant error
 Vibrational temperatures:     53.89    70.62   119.28   123.26   162.11
          (Kelvin)            201.73   272.60   302.52   314.35   389.62
                              457.36   483.54   553.04   636.96   736.16
                              820.53   896.09   927.09   968.50  1007.11
                             1128.49  1211.64  1229.21  1290.57  1294.44
                             1332.67  1348.41  1383.23  1449.15  1472.90
                             1486.84  1509.54  1527.44  1553.94  1583.49
                             1601.78  1633.05  1704.15  1754.95  1784.45
                             1824.45  1865.62  1890.87  1910.11  1943.86
                             1955.06  1965.11  1987.94  2006.71  2045.60
                             2073.65  2157.09  2162.47  2180.33  2181.43
                             2190.57  2199.56  2202.29  2211.85  2229.06
                             2467.39  4252.28  4373.23  4384.16  4390.32
                             4395.13  4413.56  4429.74  4456.26  4457.34
                             4462.36  4482.25  4483.68  4496.42  4507.05
                             4519.17  4527.70  4543.66

 Zero-point correction=                           0.250181 (Hartree/Particle)
 Thermal correction to Energy=                    0.262920
 Thermal correction to Enthalpy=                  0.263864
 Thermal correction to Gibbs Free Energy=         0.210032
 Sum of electronic and zero-point Energies=           -805.900483
 Sum of electronic and thermal Energies=              -805.887744
 Sum of electronic and thermal Enthalpies=            -805.886800
 Sum of electronic and thermal Free Energies=         -805.940632

                     E (Thermal)             CV                S
                      KCal/Mol        Cal/Mol-Kelvin    Cal/Mol-Kelvin
 Total                  164.985             46.575            113.299
 Electronic               0.000              0.000              0.000
 Translational            0.889              2.981             41.319
 Rotational               0.889              2.981             31.026
 Vibrational            163.207             40.613             40.954
 Vibration     1          0.594              1.982              5.389
 Vibration     2          0.595              1.978              4.854
 Vibration     3          0.600              1.961              3.821
 Vibration     4          0.601              1.959              3.757
 Vibration     5          0.607              1.939              3.222
 Vibration     6          0.615              1.913              2.801
 Vibration     7          0.633              1.854              2.233
 Vibration     8          0.642              1.825              2.041
 Vibration     9          0.646              1.813              1.972
 Vibration    10          0.674              1.727              1.591
 Vibration    11          0.704              1.639              1.321
 Vibration    12          0.717              1.603              1.231
 Vibration    13          0.753              1.504              1.022
 Vibration    14          0.802              1.377              0.818
 Vibration    15          0.867              1.224              0.630
 Vibration    16          0.926              1.095              0.504

 Optimization completed.
    -- Stationary point found.
 Normal termination of Gaussian 16 at Tue Dec  8 19:55:19 2020.

 ----------------------------------------------------------------------
 # B3LYP/6-311++G(d,p) empiricaldispersion=gd3bj scf=xqc pop=npa geom=c
 heck
 ----------------------------------------------------------------------

 --------------------------------------
 CID_67174067_JID_1358_Energie_neutraal
 --------------------------------------
 Structure from the checkpoint file:  "JID_1358.chk"
 Charge =  0 Multiplicity = 1

 SCF Done:  E(RB3LYP) =  -806.288842037     A.U. after   14 cycles
 Normal termination of Gaussian 16 at Tue Dec  8 19:57:39 2020.

 ----------------------------------------------------------------------
 # B3LYP/6-311++G(d,p) empiricaldispersion=gd3bj scf=xqc pop=npa geom=c
 heck
 ----------------------------------------------------------------------

 ------------------------------------
 CID_67174067_JID_1358_Energie_kation
 ------------------------------------
 Structure from the checkpoint file:  "JID_1358.chk"
 Charge =  1 Multiplicity = 2

 SCF Done:  E(UB3LYP) =  -806.007031977     A.U. after   23 cycles
 Normal termination of Gaussian 16 at Tue Dec  8 20:03:07 2020.
 Gaussian 16:  ES64L-G16RevA.03 25-Dec-2016

 ----------------------------------------------------------------------
 # B3LYP/6-311++G(d,p) empiricaldispersion=gd3bj scf=xqc pop=npa geom=c
 heck
 ----------------------------------------------------------------------

 -----------------------------------
 CID_67174067_JID_1358_Energie_anion
 -----------------------------------
 Structure from the checkpoint file:  "JID_1358.chk"
 Charge = -1 Multiplicity = 2

                         Standard orientation:
 ---------------------------------------------------------------------
 Center     Atomic      Atomic             Coordinates (Angstroms)
 Number     Number       Type             X           Y           Z
 ---------------------------------------------------------------------
      1          6           0        3.017019    1.765869    0.242684
      2          6           0        1.950777    0.795906   -0.191041
      3          6           0        0.676976    1.162005   -0.396042
      4          6           0       -0.440843    0.280597   -0.878184
      5          7           0       -1.179620   -0.379040    0.222109
      6          6           0       -2.277431   -1.210175   -0.296785
      7          6           0       -3.482953   -0.262049   -0.552109
      8          6           0       -3.198133    0.958584    0.364170
      9          6           0       -1.884562    0.573478    1.094266
     10         16           0        2.520670   -0.895764   -0.447484
     11          6           0        1.761719   -1.729226    1.003959
     12          1           0        2.618458    2.782770    0.331349
     13          1           0        3.846202    1.779573   -0.475051
     14          1           0        3.443663    1.469767    1.208800
     15          1           0        0.429016    2.206911   -0.205716
     16          1           0       -1.106732    0.884424   -1.521163
     17          1           0       -0.021794   -0.519224   -1.495792
     18          1           0       -2.537525   -1.945870    0.474388
     19          1           0       -1.953998   -1.760077   -1.185022
     20          1           0       -3.531300    0.039488   -1.603047
     21          1           0       -4.432559   -0.750987   -0.314453
     22          1           0       -3.061750    1.868239   -0.229651
     23          1           0       -4.010337    1.155277    1.070475
     24          1           0       -1.244282    1.424276    1.338085
     25          1           0       -2.117570    0.056909    2.033749
     26          1           0        2.213438   -1.367922    1.931754
     27          1           0        0.683563   -1.551642    1.006366
     28          1           0        1.974715   -2.796345    0.894406
 ---------------------------------------------------------------------

 SCF Done:  E(UB3LYP) =  -806.272424839     A.U. after   33 cycles
 SCF Done:  E(UB3LYP) =  -806.272424839     a.u. after    1 cycles

 The electronic state is 2-A.
 Alpha  occ. eigenvalues --  -88.73779 -14.19912 -10.10259 -10.08989 -10.08496
 Alpha  occ. eigenvalues --  -10.08395 -10.08074 -10.07145 -10.07037 -10.05970
 Alpha  occ. eigenvalues --  -10.05726  -7.82397  -5.78793  -5.78435  -5.77763
 Alpha  occ. eigenvalues --   -0.82854  -0.72706  -0.67048  -0.64920  -0.61812
 Alpha  occ. eigenvalues --   -0.61388  -0.55556  -0.53468  -0.47445  -0.46994
 Alpha  occ. eigenvalues --   -0.41275  -0.38850  -0.38313  -0.35817  -0.34668
 Alpha  occ. eigenvalues --   -0.32852  -0.32626  -0.31543  -0.31334  -0.31015
 Alpha  occ. eigenvalues --   -0.28338  -0.27810  -0.26728  -0.25225  -0.24385
 Alpha  occ. eigenvalues --   -0.23759  -0.23708  -0.21689  -0.21204  -0.15703
 Alpha  occ. eigenvalues --   -0.12861  -0.11501   0.04705
 Alpha virt. eigenvalues --    0.06771   0.07056   0.08020   0.08342   0.08769
 Alpha virt. eigenvalues --    0.09381   0.09883   0.10240   0.10896   0.11421
 Alpha virt. eigenvalues --    0.11680   0.12220   0.12784   0.13517   0.13946

  Beta  occ. eigenvalues --  -88.73773 -14.19914 -10.10259 -10.08971 -10.08479
  Beta  occ. eigenvalues --  -10.08372 -10.08054 -10.07121 -10.07009 -10.05945
  Beta  occ. eigenvalues --  -10.05696  -7.82390  -5.78778  -5.78430  -5.77759
  Beta  occ. eigenvalues --   -0.82840  -0.72679  -0.67010  -0.64885  -0.61769
  Beta  occ. eigenvalues --   -0.61342  -0.55502  -0.53411  -0.47371  -0.46942
  Beta  occ. eigenvalues --   -0.41224  -0.38819  -0.38256  -0.35781  -0.34619
  Beta  occ. eigenvalues --   -0.32820  -0.32594  -0.31511  -0.31303  -0.30983
  Beta  occ. eigenvalues --   -0.28306  -0.27775  -0.26681  -0.25199  -0.24340
  Beta  occ. eigenvalues --   -0.23716  -0.23660  -0.21651  -0.21173  -0.15675
  Beta  occ. eigenvalues --   -0.12845  -0.11487
  Beta virt. eigenvalues --    0.06898   0.07500   0.07651   0.08565   0.08821
  Beta virt. eigenvalues --    0.09249   0.09861   0.10160   0.10674   0.11347
  Beta virt. eigenvalues --    0.11670   0.12163   0.12468   0.12988   0.13722

 Mulliken charges and spin densities:
               1          2
     1  C    1.511822  -2.129020
     2  C   -1.241070   1.803295
     3  C    1.037849  -1.009996
     4  C   -0.313414  -0.638258
     5  N    0.150080   0.112033
     6  C   -0.125156  -0.079547
     7  C    0.286105  -0.614898
     8  C    0.739849  -1.083908
     9  C   -0.245315  -0.136785
    10  S   -0.221743   0.288179
    11  C   -0.258379  -0.467488
    12  H   -0.469477   0.604810
    13  H    0.022318   0.126352
    14  H   -0.049582   0.206660
    15  H   -0.331529   0.513934
    16  H   -0.388880   0.526836
    17  H    0.208147  -0.076574
    18  H   -0.194906   0.356916
    19  H   -0.021677   0.164217
    20  H   -0.026936   0.168755
    21  H   -0.346447   0.501537
    22  H   -0.183262   0.338557
    23  H   -0.276213   0.434185
    24  H   -0.024817   0.196260
    25  H   -0.266697   0.420825
    26  H   -0.024088   0.191879
    27  H    0.067715   0.128662
    28  H   -0.014296   0.152583
 Sum of Mulliken charges =  -1.00000   1.00000

 Dipole moment (field-independent basis, Debye):
    X=              3.3171    Y=             -2.8075    Z=             -1.4663  Tot=              4.5865
 Quadrupole moment (field-independent basis, Debye-Ang):
   XX=           -149.0305   YY=           -121.7175   ZZ=           -108.9278
   XY=             -2.9763   XZ=              3.5854   YZ=              0.6096

 Summary of Natural Population Analysis:

                                       Natural Population
                Natural  -----------------------------------------------
    Atom  No    Charge         Core      Valence    Rydberg      Total
 -----------------------------------------------------------------------
      C    1   -0.29731      0.99960     2.29032    0.00739     3.29731
      C    2   -0.07703      0.99941     2.06405    0.01357     3.07703
      C    3   -0.09261      0.99940     2.08034    0.01286     3.09261
      C    4   -0.10857      0.99957     2.09648    0.01252     3.10857
      N    5   -0.28276      0.99975     2.76959    0.01343     3.78276
      C    6   -0.08631      0.99962     2.07547    0.01121     3.08631
      C    7   -0.20490      0.99964     2.19770    0.00755     3.20490
      C    8   -0.20423      0.99964     2.19714    0.00744     3.20423
      C    9   -0.08817      0.99962     2.07724    0.01131     3.08817
      S   10    0.08333      4.99954     2.89863    0.01850     7.91667
      C   11   -0.34561      0.99961     2.34042    0.00558     3.34561
      H   12    0.10412      0.00000     0.39423    0.00165     0.39588
      H   13    0.10263      0.00000     0.39619    0.00119     0.39737
      H   14    0.10403      0.00000     0.39474    0.00123     0.39597
      H   15    0.09954      0.00000     0.39855    0.00191     0.40046
      H   16    0.08867      0.00000     0.40952    0.00182     0.41133
      H   17    0.10450      0.00000     0.39356    0.00194     0.39550
      H   18    0.09419      0.00000     0.40449    0.00132     0.40581
      H   19    0.09592      0.00000     0.40292    0.00116     0.40408
      H   20    0.09650      0.00000     0.40230    0.00120     0.40350
      H   21    0.10099      0.00000     0.39738    0.00162     0.39901
      H   22    0.09785      0.00000     0.40046    0.00169     0.40215
      H   23    0.10190      0.00000     0.39624    0.00186     0.39810
      H   24    0.10104      0.00000     0.39747    0.00149     0.39896
      H   25    0.09376      0.00000     0.40478    0.00146     0.40624
      H   26    0.09717      0.00000     0.40106    0.00177     0.40283
      H   27    0.12139      0.00000     0.37621    0.00240     0.37861
      H   28    0.09998      0.00000     0.39865    0.00137     0.40002
 =======================================================================
   * Total *   -0.00000     14.99541    31.85614    0.14845    47.00000

 Normal termination of Gaussian 16 at Tue Dec  8 20:10:18 2020.
