 Gaussian 16, Revision A.03,

 -----------------------------------------------------------
 # opt freq B3LYP/6-31G(d) empiricaldispersion=gd3bj scf=xqc
 -----------------------------------------------------------

 ------------------------------
 CID_63179218_JID_5457_neutraal
 ------------------------------
 Symbolic Z-matrix:
 Charge =  0 Multiplicity = 1

 SCF Done:  E(RB3LYP) =  -616.989604313     A.U. after   15 cycles
 SCF Done:  E(RB3LYP) =  -616.994045428     A.U. after   12 cycles
 SCF Done:  E(RB3LYP) =  -616.994463444     A.U. after   12 cycles
 SCF Done:  E(RB3LYP) =  -616.996118947     A.U. after   12 cycles
 SCF Done:  E(RB3LYP) =  -616.997602040     A.U. after   12 cycles
 SCF Done:  E(RB3LYP) =  -616.985841221     A.U. after   14 cycles
 SCF Done:  E(RB3LYP) =  -616.997747428     A.U. after   12 cycles
 SCF Done:  E(RB3LYP) =  -616.998528180     A.U. after   12 cycles
 SCF Done:  E(RB3LYP) =  -616.998657012     A.U. after   11 cycles
 SCF Done:  E(RB3LYP) =  -616.998682546     A.U. after   11 cycles
 SCF Done:  E(RB3LYP) =  -616.998716787     A.U. after    9 cycles
 SCF Done:  E(RB3LYP) =  -616.998721358     A.U. after   10 cycles
 SCF Done:  E(RB3LYP) =  -616.998724207     A.U. after    9 cycles
 SCF Done:  E(RB3LYP) =  -616.998724871     A.U. after    9 cycles
 SCF Done:  E(RB3LYP) =  -616.998724988     A.U. after    7 cycles
 Optimization completed.
    -- Stationary point found.
 Normal termination of Gaussian 16 at Thu Dec 10 16:25:13 2020.

 --------------------------------------------------------------------
 #N Geom=AllCheck Guess=TCheck SCRF=Check GenChk RB3LYP/6-31G(d) Freq
 --------------------------------------------------------------------

 Structure from the checkpoint file:  "JID_5457.chk"
 ------------------------------
 CID_63179218_JID_5457_neutraal
 ------------------------------
 Charge =  0 Multiplicity = 1

 SCF Done:  E(RB3LYP) =  -616.998724988     A.U. after    1 cycles

  Exact polarizability: 167.081  12.312 146.051 -11.990   8.490 120.137
 Approx polarizability: 218.731  24.744 243.717 -25.594  17.269 186.531

                      1                      2                      3
                      A                      A                      A
 Frequencies --     33.7938                35.3007                46.5442
 Red. masses --      1.1271                 2.8050                 3.4626
 Frc consts  --      0.0008                 0.0021                 0.0044
 IR Inten    --      0.4220                 0.4913                 0.1909

                      4                      5                      6
                      A                      A                      A
 Frequencies --     57.7287                75.3192               112.1833
 Red. masses --      3.5792                 3.3628                 3.7458
 Frc consts  --      0.0070                 0.0112                 0.0278
 IR Inten    --      0.4931                 0.3077                 0.7855

                      7                      8                      9
                      A                      A                      A
 Frequencies --    139.0352               154.3774               199.5489
 Red. masses --      3.5373                 2.3507                 2.3456
 Frc consts  --      0.0403                 0.0330                 0.0550
 IR Inten    --      2.3503                 0.3440                 1.5594

                     10                     11                     12
                      A                      A                      A
 Frequencies --    215.3281               226.0045               236.3654
 Red. masses --      1.7675                 1.1451                 1.9053
 Frc consts  --      0.0483                 0.0345                 0.0627
 IR Inten    --      0.7329                 0.2263                 0.7190

                     13                     14                     15
                      A                      A                      A
 Frequencies --    262.9389               329.3552               351.3431
 Red. masses --      2.7918                 2.6410                 2.5135
 Frc consts  --      0.1137                 0.1688                 0.1828
 IR Inten    --      0.1532                 1.0188                 0.1493

                     16                     17                     18
                      A                      A                      A
 Frequencies --    394.2378               432.5600               448.9463
 Red. masses --      2.6888                 2.6741                 2.8034
 Frc consts  --      0.2462                 0.2948                 0.3329
 IR Inten    --      1.4784                 3.2164                 1.3763

                     19                     20                     21
                      A                      A                      A
 Frequencies --    461.9232               491.8697               498.1054
 Red. masses --      2.7649                 3.0174                 3.2075
 Frc consts  --      0.3476                 0.4301                 0.4689
 IR Inten    --      4.2303                 4.1310                 2.7787

                     22                     23                     24
                      A                      A                      A
 Frequencies --    535.6163               553.7105               585.6240
 Red. masses --      4.7307                 3.3775                 3.2191
 Frc consts  --      0.7996                 0.6101                 0.6505
 IR Inten    --      1.2711                 0.6660                 7.3350

                     25                     26                     27
                      A                      A                      A
 Frequencies --    684.3898               708.5445               743.3260
 Red. masses --      4.5278                 3.0056                 2.4784
 Frc consts  --      1.2495                 0.8890                 0.8068
 IR Inten    --      0.5780                 1.0759                15.3214

                     28                     29                     30
                      A                      A                      A
 Frequencies --    767.7364               797.3120               800.0472
 Red. masses --      2.4550                 1.1941                 1.2644
 Frc consts  --      0.8526                 0.4472                 0.4768
 IR Inten    --     12.9025                16.6598                13.4381

                     31                     32                     33
                      A                      A                      A
 Frequencies --    811.5075               850.8645               906.0469
 Red. masses --      1.6014                 1.3004                 1.3551
 Frc consts  --      0.6213                 0.5547                 0.6554
 IR Inten    --      0.9943                79.0324                 0.2277

                     34                     35                     36
                      A                      A                      A
 Frequencies --    924.6612               936.0841               949.1878
 Red. masses --      1.4461                 2.2184                 2.1945
 Frc consts  --      0.7285                 1.1453                 1.1649
 IR Inten    --      5.0483                 3.8409                 0.3680

                     37                     38                     39
                      A                      A                      A
 Frequencies --    956.7774               974.0337               979.3803
 Red. masses --      2.2948                 1.3026                 1.9838
 Frc consts  --      1.2377                 0.7281                 1.1211
 IR Inten    --      0.3334                 0.0593                 1.4151

                     40                     41                     42
                      A                      A                      A
 Frequencies --   1021.9378              1028.4898              1037.8408
 Red. masses --      5.6817                 1.9935                 1.7768
 Frc consts  --      3.4960                 1.2424                 1.1276
 IR Inten    --      1.2929                11.3160                 5.4566

                     43                     44                     45
                      A                      A                      A
 Frequencies --   1076.4997              1099.8906              1111.8292
 Red. masses --      1.5260                 2.0166                 1.7562
 Frc consts  --      1.0419                 1.4374                 1.2791
 IR Inten    --      8.3105                19.4492                 4.1790

                     46                     47                     48
                      A                      A                      A
 Frequencies --   1129.3042              1132.4420              1139.4761
 Red. masses --      1.6317                 1.6828                 1.6902
 Frc consts  --      1.2261                 1.2715                 1.2930
 IR Inten    --      6.8154                14.8521                18.7284

                     49                     50                     51
                      A                      A                      A
 Frequencies --   1187.3754              1206.4137              1216.7588
 Red. masses --      1.6205                 1.1382                 1.1931
 Frc consts  --      1.3461                 0.9760                 1.0408
 IR Inten    --      1.5210                 6.3788                35.1470

                     52                     53                     54
                      A                      A                      A
 Frequencies --   1244.7113              1270.1077              1277.7817
 Red. masses --      2.2878                 1.8313                 2.8690
 Frc consts  --      2.0884                 1.7406                 2.7599
 IR Inten    --     43.5924                 1.4693                 1.9602

                     55                     56                     57
                      A                      A                      A
 Frequencies --   1326.3200              1337.8496              1356.9675
 Red. masses --      1.7433                 1.1908                 1.4967
 Frc consts  --      1.8069                 1.2557                 1.6238
 IR Inten    --      4.7339                27.9056                15.6820

                     58                     59                     60
                      A                      A                      A
 Frequencies --   1365.6747              1375.8315              1398.8902
 Red. masses --      2.1775                 1.8112                 1.3490
 Frc consts  --      2.3928                 2.0200                 1.5553
 IR Inten    --      5.6307                20.0031                25.7177

                     61                     62                     63
                      A                      A                      A
 Frequencies --   1415.1909              1436.9945              1441.5643
 Red. masses --      1.3413                 1.2654                 1.2524
 Frc consts  --      1.5827                 1.5396                 1.5334
 IR Inten    --     29.0050                13.7471                10.2586

                     64                     65                     66
                      A                      A                      A
 Frequencies --   1442.3023              1471.0914              1484.4233
 Red. masses --      1.2508                 2.2301                 2.2046
 Frc consts  --      1.5331                 2.8435                 2.8621
 IR Inten    --      3.1010                84.9310                49.0565

                     67                     68                     69
                      A                      A                      A
 Frequencies --   1511.4813              1517.6527              1519.4949
 Red. masses --      1.1122                 1.0495                 1.0501
 Frc consts  --      1.4970                 1.4242                 1.4285
 IR Inten    --     28.6848                 5.2789                 4.4606

                     70                     71                     72
                      A                      A                      A
 Frequencies --   1520.8011              1522.4581              1526.2504
 Red. masses --      1.0690                 1.0454                 1.2880
 Frc consts  --      1.4567                 1.4277                 1.7678
 IR Inten    --      3.9139                 5.4547                14.2764

                     73                     74                     75
                      A                      A                      A
 Frequencies --   1531.6222              1540.8729              1544.6037
 Red. masses --      1.0619                 1.0874                 1.1908
 Frc consts  --      1.4677                 1.5212                 1.6739
 IR Inten    --      4.0185                16.1054                12.9240

                     76                     77                     78
                      A                      A                      A
 Frequencies --   1544.8249              1649.1240              1669.9725
 Red. masses --      1.7983                 5.5974                 5.5871
 Frc consts  --      2.5285                 8.9690                 9.1802
 IR Inten    --      8.1973                25.3071                21.3592

                     79                     80                     81
                      A                      A                      A
 Frequencies --   1675.8054              3031.1232              3042.9730
 Red. masses --      6.6152                 1.0746                 1.0395
 Frc consts  --     10.9456                 5.8171                 5.6710
 IR Inten    --    195.7752                48.9439                31.0118

                     82                     83                     84
                      A                      A                      A
 Frequencies --   3051.0552              3055.1759              3056.5051
 Red. masses --      1.0643                 1.0359                 1.0420
 Frc consts  --      5.8375                 5.6969                 5.7352
 IR Inten    --     13.4393                27.4385                29.1105

                     85                     86                     87
                      A                      A                      A
 Frequencies --   3064.5401              3098.2166              3101.5157
 Red. masses --      1.0653                 1.0975                 1.0967
 Frc consts  --      5.8948                 6.2070                 6.2157
 IR Inten    --     19.4260                19.5440                12.2840

                     88                     89                     90
                      A                      A                      A
 Frequencies --   3113.4458              3120.4360              3121.7323
 Red. masses --      1.1011                 1.0978                 1.1027
 Frc consts  --      6.2885                 6.2983                 6.3312
 IR Inten    --     21.9704                 5.0908                33.6513

                     91                     92                     93
                      A                      A                      A
 Frequencies --   3127.6614              3139.0574              3157.4793
 Red. masses --      1.1020                 1.1023                 1.0963
 Frc consts  --      6.3513                 6.3996                 6.4394
 IR Inten    --     16.1949                28.1736                10.7970

                     94                     95                     96
                      A                      A                      A
 Frequencies --   3168.0054              3171.7324              3179.6954
 Red. masses --      1.0920                 1.0860                 1.0902
 Frc consts  --      6.4571                 6.4367                 6.4939
 IR Inten    --     25.6729                 1.4546                26.5041

                     97                     98                     99
                      A                      A                      A
 Frequencies --   3185.1672              3200.0464              3470.1804
 Red. masses --      1.0903                 1.0962                 1.0729
 Frc consts  --      6.5172                 6.6136                 7.6122
 IR Inten    --      5.7420                28.5664                17.2673

 - Thermochemistry -
 -------------------
 Temperature   298.150 Kelvin.  Pressure   1.00000 Atm.
 Atom     1 has atomic number  6 and mass  12.00000

 Molecular mass:   204.16265 amu.
 Principal axes and moments of inertia in atomic units:
                           1         2         3
     Eigenvalues --  1766.875814980.160595235.62260
           X            0.99996  -0.00873  -0.00291
           Y            0.00891   0.99751   0.06995
           Z            0.00229  -0.06997   0.99755
 This molecule is an asymmetric top.
 Rotational symmetry number  1.
 Warning -- assumption of classical behavior for rotation
           may cause significant error
 Rotational temperatures (Kelvin)      0.04902     0.01739     0.01654
 Rotational constants (GHZ):           1.02143     0.36239     0.34470
 Zero-point vibrational energy     817242.8 (Joules/Mol)
                                  195.32572 (Kcal/Mol)
 Warning -- explicit consideration of  24 degrees of freedom as
           vibrations may cause significant error
 Vibrational temperatures:     48.62    50.79    66.97    83.06   108.37
          (Kelvin)            161.41   200.04   222.11   287.11   309.81
                              325.17   340.08   378.31   473.87   505.50
                              567.22   622.36   645.93   664.60   707.69
                              716.66   770.63   796.67   842.58   984.68
                             1019.44  1069.48  1104.60  1147.15  1151.09
                             1167.58  1224.20  1303.60  1330.38  1346.82
                             1365.67  1376.59  1401.42  1409.11  1470.34
                             1479.77  1493.22  1548.84  1582.50  1599.67
                             1624.82  1629.33  1639.45  1708.37  1735.76
                             1750.64  1790.86  1827.40  1838.44  1908.28
                             1924.87  1952.37  1964.90  1979.51  2012.69
                             2036.14  2067.51  2074.09  2075.15  2116.57
                             2135.75  2174.68  2183.56  2186.21  2188.09
                             2190.48  2195.93  2203.66  2216.97  2222.34
                             2222.66  2372.72  2402.72  2411.11  4361.11
                             4378.16  4389.79  4395.72  4397.63  4409.19
                             4457.64  4462.39  4479.55  4489.61  4491.48
                             4500.01  4516.40  4542.91  4558.05  4563.42
                             4574.87  4582.75  4604.15  4992.82

 Zero-point correction=                           0.311271 (Hartree/Particle)
 Thermal correction to Energy=                    0.327252
 Thermal correction to Enthalpy=                  0.328196
 Thermal correction to Gibbs Free Energy=         0.266691
 Sum of electronic and zero-point Energies=           -616.687454
 Sum of electronic and thermal Energies=              -616.671473
 Sum of electronic and thermal Enthalpies=            -616.670529
 Sum of electronic and thermal Free Energies=         -616.732034

                     E (Thermal)             CV                S
                      KCal/Mol        Cal/Mol-Kelvin    Cal/Mol-Kelvin
 Total                  205.354             59.784            129.449
 Electronic               0.000              0.000              0.000
 Translational            0.889              2.981             41.846
 Rotational               0.889              2.981             32.199
 Vibrational            203.576             53.823             55.404
 Vibration     1          0.594              1.983              5.593
 Vibration     2          0.594              1.982              5.507
 Vibration     3          0.595              1.979              4.959
 Vibration     4          0.596              1.974              4.533
 Vibration     5          0.599              1.965              4.009
 Vibration     6          0.607              1.939              3.231
 Vibration     7          0.615              1.914              2.817
 Vibration     8          0.620              1.898              2.618
 Vibration     9          0.638              1.841              2.137
 Vibration    10          0.645              1.818              1.998
 Vibration    11          0.650              1.801              1.910
 Vibration    12          0.655              1.785              1.830
 Vibration    13          0.670              1.741              1.642
 Vibration    14          0.712              1.617              1.263
 Vibration    15          0.728              1.573              1.160
 Vibration    16          0.761              1.482              0.984
 Vibration    17          0.793              1.399              0.850
 Vibration    18          0.808              1.363              0.799
 Vibration    19          0.820              1.335              0.761
 Vibration    20          0.848              1.268              0.679
 Vibration    21          0.854              1.254              0.663
 Vibration    22          0.891              1.171              0.575
 Vibration    23          0.909              1.132              0.537
 Vibration    24          0.943              1.062              0.475

                           ! Non-Optimized Parameters !
 Normal termination of Gaussian 16 at Thu Dec 10 16:38:47 2020.

 ----------------------------------------------------------------------
 # B3LYP/6-311++G(d,p) empiricaldispersion=gd3bj scf=xqc pop=npa geom=c
 heck
 ----------------------------------------------------------------------

 --------------------------------------
 CID_63179218_JID_5457_Energie_neutraal
 --------------------------------------
 Structure from the checkpoint file:  "JID_5457.chk"
 Charge =  0 Multiplicity = 1

 SCF Done:  E(RB3LYP) =  -617.167233701     A.U. after   15 cycles
 Normal termination of Gaussian 16 at Thu Dec 10 16:45:57 2020.

 ----------------------------------------------------------------------
 # B3LYP/6-311++G(d,p) empiricaldispersion=gd3bj scf=xqc pop=npa geom=c
 heck
 ----------------------------------------------------------------------

 ------------------------------------
 CID_63179218_JID_5457_Energie_kation
 ------------------------------------
 Structure from the checkpoint file:  "JID_5457.chk"
 Charge =  1 Multiplicity = 2

 SCF Done:  E(UB3LYP) =  -616.881255691     A.U. after   27 cycles
 Normal termination of Gaussian 16 at Thu Dec 10 17:04:41 2020.
 Gaussian 16:  ES64L-G16RevA.03 25-Dec-2016

 ----------------------------------------------------------------------
 # B3LYP/6-311++G(d,p) empiricaldispersion=gd3bj scf=xqc pop=npa geom=c
 heck
 ----------------------------------------------------------------------

 -----------------------------------
 CID_63179218_JID_5457_Energie_anion
 -----------------------------------
 Structure from the checkpoint file:  "JID_5457.chk"
 Charge = -1 Multiplicity = 2

                         Standard orientation:
 ---------------------------------------------------------------------
 Center     Atomic      Atomic             Coordinates (Angstroms)
 Number     Number       Type             X           Y           Z
 ---------------------------------------------------------------------
      1          6           0        4.356366    0.157787    0.379828
      2          6           0        2.969772    0.217499    1.028880
      3          7           0        1.900116   -0.189265    0.123588
      4          6           0        1.440074   -1.570307    0.265507
      5          6           0        0.518656   -1.789294    1.469259
      6          6           0        1.424369    0.708022   -0.815506
      7          7           0        1.802015    1.932881   -0.967272
      8          6           0        0.321110    0.237514   -1.752887
      9          6           0       -1.001658   -0.009851   -1.054046
     10          6           0       -1.735691   -1.176390   -1.278255
     11          6           0       -2.938533   -1.391568   -0.603266
     12          6           0       -3.415546   -0.442651    0.297519
     13          6           0       -2.701935    0.742134    0.528473
     14          6           0       -1.499071    0.940302   -0.153983
     15          6           0       -3.232040    1.787731    1.479612
     16          1           0        4.583801   -0.862956    0.053545
     17          1           0        5.131599    0.471460    1.088115
     18          1           0        4.404227    0.809467   -0.497623
     19          1           0        2.937578   -0.444049    1.899463
     20          1           0        2.761945    1.225025    1.409428
     21          1           0        0.927066   -1.874548   -0.645580
     22          1           0        2.325116   -2.215982    0.349581
     23          1           0       -0.386731   -1.185229    1.376844
     24          1           0        0.228250   -2.844264    1.533573
     25          1           0        1.018227   -1.522589    2.407376
     26          1           0        2.535485    2.196035   -0.306365
     27          1           0        0.627513   -0.658720   -2.304450
     28          1           0        0.215338    1.043833   -2.483204
     29          1           0       -1.360327   -1.924112   -1.973202
     30          1           0       -3.499478   -2.306331   -0.775089
     31          1           0       -4.348526   -0.618500    0.827808
     32          1           0       -0.922178    1.845714    0.018918
     33          1           0       -4.013267    2.395241    1.004359
     34          1           0       -3.676056    1.330499    2.370886
     35          1           0       -2.439740    2.469134    1.804587
 ---------------------------------------------------------------------

 SCF Done:  E(UB3LYP) =  -617.154209174     A.U. after   33 cycles
 SCF Done:  E(UB3LYP) =  -617.154209174     a.u. after    1 cycles

 The electronic state is 2-A.
 Alpha  occ. eigenvalues --  -14.23870 -14.17101 -10.14522 -10.11066 -10.10827
 Alpha  occ. eigenvalues --  -10.09350 -10.09239 -10.08454 -10.08312 -10.08068
 Alpha  occ. eigenvalues --  -10.07936 -10.07922 -10.07606 -10.06890 -10.06057
 Alpha  occ. eigenvalues --   -0.86932  -0.77515  -0.76769  -0.69890  -0.67751
 Alpha  occ. eigenvalues --   -0.66813  -0.64157  -0.61060  -0.59631  -0.54638
 Alpha  occ. eigenvalues --   -0.53596  -0.51049  -0.48789  -0.44021  -0.43336
 Alpha  occ. eigenvalues --   -0.41263  -0.39712  -0.37892  -0.35620  -0.35566
 Alpha  occ. eigenvalues --   -0.34672  -0.33498  -0.33242  -0.32516  -0.31926
 Alpha  occ. eigenvalues --   -0.31296  -0.30567  -0.29756  -0.29059  -0.28260
 Alpha  occ. eigenvalues --   -0.27543  -0.26069  -0.25656  -0.25413  -0.25092
 Alpha  occ. eigenvalues --   -0.24681  -0.22465  -0.16752  -0.15910  -0.15262
 Alpha  occ. eigenvalues --   -0.12553   0.04119
 Alpha virt. eigenvalues --    0.05809   0.06479   0.07219   0.07428   0.07676
 Alpha virt. eigenvalues --    0.07811   0.08202   0.09537   0.09632   0.09878
 Alpha virt. eigenvalues --    0.10342   0.10648   0.11560   0.11881   0.12122

  Beta  occ. eigenvalues --  -14.23871 -14.17093 -10.14520 -10.11042 -10.10803
  Beta  occ. eigenvalues --  -10.09350 -10.09240 -10.08447 -10.08300 -10.08049
  Beta  occ. eigenvalues --  -10.07923 -10.07909 -10.07599 -10.06854 -10.06034
  Beta  occ. eigenvalues --   -0.86922  -0.77501  -0.76755  -0.69874  -0.67719
  Beta  occ. eigenvalues --   -0.66783  -0.64123  -0.61034  -0.59597  -0.54566
  Beta  occ. eigenvalues --   -0.53545  -0.51022  -0.48760  -0.43982  -0.43310
  Beta  occ. eigenvalues --   -0.41222  -0.39672  -0.37874  -0.35588  -0.35533
  Beta  occ. eigenvalues --   -0.34643  -0.33477  -0.33216  -0.32477  -0.31901
  Beta  occ. eigenvalues --   -0.31269  -0.30543  -0.29713  -0.29038  -0.28206
  Beta  occ. eigenvalues --   -0.27510  -0.26038  -0.25633  -0.25387  -0.25071
  Beta  occ. eigenvalues --   -0.24660  -0.22445  -0.16742  -0.15900  -0.15252
  Beta  occ. eigenvalues --   -0.12539
  Beta virt. eigenvalues --    0.06180   0.06741   0.07209   0.07274   0.07501
  Beta virt. eigenvalues --    0.08127   0.08438   0.08739   0.09807   0.09990
  Beta virt. eigenvalues --    0.10212   0.10650   0.11073   0.11702   0.12130

 Mulliken charges and spin densities:
               1          2
     1  C    0.777714  -1.245652
     2  C   -0.124805   0.036770
     3  N    0.180986   0.008586
     4  C   -0.411305   0.227223
     5  C    0.507631  -1.041518
     6  C   -0.725170   0.407879
     7  N   -0.245990   0.016944
     8  C    0.486715  -1.271064
     9  C    0.060275   0.864810
    10  C    1.467556  -1.685902
    11  C    0.296170  -0.718731
    12  C   -0.078138  -0.204965
    13  C   -0.442219   0.760386
    14  C   -1.792729   1.150391
    15  C    1.037117  -1.550743
    16  H   -0.105723   0.247465
    17  H   -0.381879   0.529201
    18  H   -0.044754   0.178282
    19  H   -0.300323   0.451140
    20  H   -0.056264   0.201664
    21  H    0.045609   0.069005
    22  H   -0.446797   0.640272
    23  H    0.494844  -0.292040
    24  H   -0.317632   0.445979
    25  H   -0.027637   0.149360
    26  H    0.149051   0.048303
    27  H   -0.077870   0.270915
    28  H    0.208862  -0.006865
    29  H   -0.206623   0.359989
    30  H   -0.595296   0.777075
    31  H   -0.434925   0.601525
    32  H    0.232894  -0.012513
    33  H    0.101503   0.062061
    34  H   -0.107477   0.257702
    35  H   -0.123369   0.267068
 Sum of Mulliken charges =  -1.00000   1.00000

 Dipole moment (field-independent basis, Debye):
    X=             -1.6983    Y=              2.8194    Z=             -1.5599  Tot=              3.6423
 Quadrupole moment (field-independent basis, Debye-Ang):
   XX=           -177.9367   YY=           -143.7683   ZZ=           -132.1663
   XY=             -4.7813   XZ=             -4.3168   YZ=              3.4887

 Summary of Natural Population Analysis:

                                       Natural Population
                Natural  -----------------------------------------------
    Atom  No    Charge         Core      Valence    Rydberg      Total
 -----------------------------------------------------------------------
      C    1   -0.29190      0.99966     2.28708    0.00515     3.29190
      C    2   -0.08765      0.99961     2.07628    0.01176     3.08765
      N    3   -0.26273      0.99963     2.75004    0.01306     3.76273
      C    4   -0.08167      0.99961     2.07140    0.01066     3.08167
      C    5   -0.29007      0.99965     2.28500    0.00542     3.29007
      C    6    0.24290      0.99961     1.74041    0.01707     2.75710
      N    7   -0.37968      0.99972     2.87243    0.00754     3.87968
      C    8   -0.22296      0.99955     2.21387    0.00953     3.22296
      C    9   -0.01116      0.99950     2.00108    0.01058     3.01116
      C   10   -0.10746      0.99950     2.09773    0.01023     3.10746
      C   11   -0.09276      0.99956     2.08269    0.01051     3.09276
      C   12   -0.10567      0.99951     2.09613    0.01003     3.10567
      C   13   -0.01481      0.99952     2.00553    0.00977     3.01481
      C   14   -0.10403      0.99946     2.09599    0.00858     3.10403
      C   15   -0.29108      0.99964     2.28664    0.00480     3.29108
      H   16    0.10039      0.00000     0.39835    0.00125     0.39961
      H   17    0.10096      0.00000     0.39764    0.00140     0.39904
      H   18    0.09980      0.00000     0.39910    0.00110     0.40020
      H   19    0.10157      0.00000     0.39684    0.00159     0.39843
      H   20    0.09368      0.00000     0.40483    0.00149     0.40632
      H   21    0.10010      0.00000     0.39799    0.00191     0.39990
      H   22    0.09470      0.00000     0.40361    0.00168     0.40530
      H   23    0.10492      0.00000     0.39314    0.00194     0.39508
      H   24    0.10085      0.00000     0.39796    0.00120     0.39915
      H   25    0.09584      0.00000     0.40297    0.00119     0.40416
      H   26    0.16026      0.00000     0.33750    0.00224     0.33974
      H   27    0.10601      0.00000     0.39274    0.00125     0.39399
      H   28    0.12037      0.00000     0.37832    0.00131     0.37963
      H   29    0.10139      0.00000     0.39726    0.00134     0.39861
      H   30    0.10251      0.00000     0.39615    0.00133     0.39749
      H   31    0.10052      0.00000     0.39828    0.00120     0.39948
      H   32    0.10684      0.00000     0.39154    0.00162     0.39316
      H   33    0.10307      0.00000     0.39591    0.00102     0.39693
      H   34    0.10399      0.00000     0.39496    0.00105     0.39601
      H   35    0.10293      0.00000     0.39621    0.00087     0.39707
 =======================================================================
   * Total *    0.00000     14.99373    40.83361    0.17267    56.00000

 Normal termination of Gaussian 16 at Thu Dec 10 17:25:26 2020.
