 Gaussian 16, Revision A.03,

 -----------------------------------------------------------
 # opt freq B3LYP/6-31G(d) empiricaldispersion=gd3bj scf=xqc
 -----------------------------------------------------------

 -------------------------------
 CID_149249098_JID_1458_neutraal
 -------------------------------
 Symbolic Z-matrix:
 Charge =  0 Multiplicity = 1

 SCF Done:  E(RB3LYP) =  -446.056243684     A.U. after   14 cycles
 SCF Done:  E(RB3LYP) =  -446.060046433     A.U. after   12 cycles
 SCF Done:  E(RB3LYP) =  -446.060924140     A.U. after   11 cycles
 SCF Done:  E(RB3LYP) =  -446.061290345     A.U. after   12 cycles
 SCF Done:  E(RB3LYP) =  -446.061341712     A.U. after   10 cycles
 SCF Done:  E(RB3LYP) =  -446.061353458     A.U. after   10 cycles
 SCF Done:  E(RB3LYP) =  -446.061364036     A.U. after   10 cycles
 SCF Done:  E(RB3LYP) =  -446.061369128     A.U. after    9 cycles
 SCF Done:  E(RB3LYP) =  -446.061373415     A.U. after    9 cycles
 SCF Done:  E(RB3LYP) =  -446.061374112     A.U. after    7 cycles
 SCF Done:  E(RB3LYP) =  -446.061374214     A.U. after    7 cycles
 Optimization completed.
    -- Stationary point found.
 Normal termination of Gaussian 16 at Tue Dec  8 20:04:50 2020.

 --------------------------------------------------------------------
 #N Geom=AllCheck Guess=TCheck SCRF=Check GenChk RB3LYP/6-31G(d) Freq
 --------------------------------------------------------------------

 Structure from the checkpoint file:  "JID_1458.chk"
 -------------------------------
 CID_149249098_JID_1458_neutraal
 -------------------------------
 Charge =  0 Multiplicity = 1

 SCF Done:  E(RB3LYP) =  -446.061374214     A.U. after    1 cycles

  Exact polarizability: 124.584  -6.330 113.678  14.032   0.940  86.246
 Approx polarizability: 162.130 -12.934 160.467  30.833   2.383 143.362

                      1                      2                      3
                      A                      A                      A
 Frequencies --     38.4779                60.3656               101.7343
 Red. masses --      3.4364                 2.8525                 2.3229
 Frc consts  --      0.0030                 0.0061                 0.0142
 IR Inten    --      0.0472                 0.0781                 0.1222

                      4                      5                      6
                      A                      A                      A
 Frequencies --    149.5003               156.9880               199.9258
 Red. masses --      2.4362                 1.3107                 2.7837
 Frc consts  --      0.0321                 0.0190                 0.0656
 IR Inten    --      0.1401                 0.3543                 0.3495

                      7                      8                      9
                      A                      A                      A
 Frequencies --    206.6174               253.2730               260.7687
 Red. masses --      1.2158                 1.0948                 2.0562
 Frc consts  --      0.0306                 0.0414                 0.0824
 IR Inten    --      0.8708                 0.4531                 4.0376

                     10                     11                     12
                      A                      A                      A
 Frequencies --    273.6690               301.8262               343.7578
 Red. masses --      2.5788                 2.4157                 2.6945
 Frc consts  --      0.1138                 0.1297                 0.1876
 IR Inten    --      0.2855                 0.3751                 1.5019

                     13                     14                     15
                      A                      A                      A
 Frequencies --    398.2968               459.1163               527.8208
 Red. masses --      2.1371                 2.9702                 2.5131
 Frc consts  --      0.1997                 0.3689                 0.4125
 IR Inten    --      0.4464                 2.0623                 4.1795

                     16                     17                     18
                      A                      A                      A
 Frequencies --    558.5024               592.5189               639.5092
 Red. masses --      3.0882                 2.5932                 1.8846
 Frc consts  --      0.5675                 0.5364                 0.4541
 IR Inten    --      0.6117                 2.0662               142.8535

                     19                     20                     21
                      A                      A                      A
 Frequencies --    716.3602               755.0748               803.2289
 Red. masses --      1.4323                 1.9513                 2.9792
 Frc consts  --      0.4331                 0.6555                 1.1325
 IR Inten    --     28.5464                25.5470                 0.8333

                     22                     23                     24
                      A                      A                      A
 Frequencies --    820.1057               836.8983               872.0365
 Red. masses --      2.0797                 1.7775                 1.8274
 Frc consts  --      0.8241                 0.7335                 0.8188
 IR Inten    --      1.0813                26.3018                 3.2779

                     25                     26                     27
                      A                      A                      A
 Frequencies --    899.3359               915.2495               973.7835
 Red. masses --      1.9183                 1.4159                 1.7629
 Frc consts  --      0.9141                 0.6988                 0.9849
 IR Inten    --      4.5969                11.0378                 6.3431

                     28                     29                     30
                      A                      A                      A
 Frequencies --    977.3298              1011.4158              1033.7669
 Red. masses --      1.7513                 2.0509                 2.2165
 Frc consts  --      0.9856                 1.2361                 1.3956
 IR Inten    --      0.2817                 2.3370                 2.5508

                     31                     32                     33
                      A                      A                      A
 Frequencies --   1041.3260              1072.5113              1075.0059
 Red. masses --      1.7770                 1.5360                 1.4998
 Frc consts  --      1.1353                 1.0410                 1.0212
 IR Inten    --     12.2009                 1.1159                 5.5167

                     34                     35                     36
                      A                      A                      A
 Frequencies --   1087.2146              1099.4966              1109.8213
 Red. masses --      1.6207                 1.8827                 2.2158
 Frc consts  --      1.1287                 1.3410                 1.6080
 IR Inten    --      0.8993                 4.9231                 2.8637

                     37                     38                     39
                      A                      A                      A
 Frequencies --   1133.0026              1150.5096              1158.6229
 Red. masses --      2.4936                 1.3143                 1.7880
 Frc consts  --      1.8860                 1.0250                 1.4142
 IR Inten    --     11.1312                 2.4170                23.1175

                     40                     41                     42
                      A                      A                      A
 Frequencies --   1213.1973              1264.9424              1278.6730
 Red. masses --      1.8941                 1.2678                 1.5768
 Frc consts  --      1.6425                 1.1952                 1.5190
 IR Inten    --      1.4817                 4.8408                 8.0105

                     43                     44                     45
                      A                      A                      A
 Frequencies --   1311.9260              1331.7768              1366.0444
 Red. masses --      1.5142                 1.3454                 1.2612
 Frc consts  --      1.5355                 1.4060                 1.3867
 IR Inten    --      5.4519                14.7940                 6.4462

                     46                     47                     48
                      A                      A                      A
 Frequencies --   1380.5489              1395.5317              1409.9094
 Red. masses --      1.4668                 1.5099                 1.3354
 Frc consts  --      1.6471                 1.7325                 1.5640
 IR Inten    --     17.8936                 3.6946                 5.4449

                     49                     50                     51
                      A                      A                      A
 Frequencies --   1428.5301              1441.6616              1445.8513
 Red. masses --      1.2619                 1.2626                 1.2771
 Frc consts  --      1.5173                 1.5461                 1.5730
 IR Inten    --      9.0914                 6.1235                 3.3923

                     52                     53                     54
                      A                      A                      A
 Frequencies --   1453.5596              1506.9316              1508.1015
 Red. masses --      1.7120                 1.0643                 1.0651
 Frc consts  --      2.1312                 1.4240                 1.4273
 IR Inten    --     47.9155                 7.9017                 1.4352

                     55                     56                     57
                      A                      A                      A
 Frequencies --   1517.1113              1524.5894              1527.5275
 Red. masses --      1.0504                 1.0449                 1.0519
 Frc consts  --      1.4244                 1.4310                 1.4461
 IR Inten    --      4.7438                 4.8883                 3.8628

                     58                     59                     60
                      A                      A                      A
 Frequencies --   1527.9709              1530.5595              1686.1901
 Red. masses --      1.0584                 1.0683                 5.1969
 Frc consts  --      1.4559                 1.4745                 8.7058
 IR Inten    --      2.5666                 6.7475                38.9390

                     61                     62                     63
                      A                      A                      A
 Frequencies --   1754.9686              3023.1429              3025.2605
 Red. masses --      6.2996                 1.0810                 1.0404
 Frc consts  --     11.4314                 5.8208                 5.6104
 IR Inten    --      0.1058                22.5433                32.0288

                     64                     65                     66
                      A                      A                      A
 Frequencies --   3033.1000              3039.1294              3041.8343
 Red. masses --      1.0413                 1.0371                 1.0613
 Frc consts  --      5.6444                 5.6438                 5.7860
 IR Inten    --     29.4674                34.4907                31.7663

                     67                     68                     69
                      A                      A                      A
 Frequencies --   3067.7836              3068.7480              3077.3191
 Red. masses --      1.0971                 1.0907                 1.0984
 Frc consts  --      6.0833                 6.0514                 6.1287
 IR Inten    --     24.3686                11.9731                26.3093

                     70                     71                     72
                      A                      A                      A
 Frequencies --   3089.6493              3104.3196              3120.1711
 Red. masses --      1.0992                 1.1007                 1.0997
 Frc consts  --      6.1820                 6.2495                 6.3076
 IR Inten    --     37.2750                42.5000                26.0480

                     73                     74                     75
                      A                      A                      A
 Frequencies --   3122.9574              3126.7939              3145.2344
 Red. masses --      1.1026                 1.0943                 1.0911
 Frc consts  --      6.3359                 6.3037                 6.3592
 IR Inten    --     29.7833                 0.5888                57.7704

                     76                     77                     78
                      A                      A                      A
 Frequencies --   3217.9497              3249.5763              3562.0433
 Red. masses --      1.0890                 1.1021                 1.0758
 Frc consts  --      6.6441                 6.8568                 8.0423
 IR Inten    --     10.0714                15.5170                 5.6409

 - Thermochemistry -
 -------------------
 Temperature   298.150 Kelvin.  Pressure   1.00000 Atm.
 Atom     1 has atomic number  6 and mass  12.00000

 Molecular mass:   151.13610 amu.
 Principal axes and moments of inertia in atomic units:
                           1         2         3
     Eigenvalues --  1027.550132485.986563074.93418
           X            0.99988   0.01386   0.00620
           Y           -0.01381   0.99987  -0.00852
           Z           -0.00631   0.00843   0.99994
 This molecule is an asymmetric top.
 Rotational symmetry number  1.
 Warning -- assumption of classical behavior for rotation
           may cause significant error
 Rotational temperatures (Kelvin)      0.08429     0.03484     0.02817
 Rotational constants (GHZ):           1.75635     0.72597     0.58692
 Zero-point vibrational energy     663843.0 (Joules/Mol)
                                  158.66228 (Kcal/Mol)
 Warning -- explicit consideration of  17 degrees of freedom as
           vibrations may cause significant error
 Vibrational temperatures:     55.36    86.85   146.37   215.10   225.87
          (Kelvin)            287.65   297.28   364.40   375.19   393.75
                              434.26   494.59   573.06   660.57   759.42
                              803.56   852.50   920.11  1030.68  1086.38
                             1155.67  1179.95  1204.11  1254.67  1293.94
                             1316.84  1401.06  1406.16  1455.20  1487.36
                             1498.24  1543.10  1546.69  1564.26  1581.93
                             1596.79  1630.14  1655.33  1667.00  1745.52
                             1819.97  1839.73  1887.57  1916.13  1965.43
                             1986.30  2007.86  2028.55  2055.34  2074.23
                             2080.26  2091.35  2168.14  2169.82  2182.78
                             2193.54  2197.77  2198.41  2202.13  2426.05
                             2525.01  4349.63  4352.68  4363.95  4372.63
                             4376.52  4413.86  4415.24  4427.58  4445.32
                             4466.42  4489.23  4493.24  4498.76  4525.29
                             4629.91  4675.42  5124.99

 Zero-point correction=                           0.252844 (Hartree/Particle)
 Thermal correction to Energy=                    0.265029
 Thermal correction to Enthalpy=                  0.265973
 Thermal correction to Gibbs Free Energy=         0.214585
 Sum of electronic and zero-point Energies=           -445.808530
 Sum of electronic and thermal Energies=              -445.796345
 Sum of electronic and thermal Enthalpies=            -445.795401
 Sum of electronic and thermal Free Energies=         -445.846789

                     E (Thermal)             CV                S
                      KCal/Mol        Cal/Mol-Kelvin    Cal/Mol-Kelvin
 Total                  166.308             46.026            108.155
 Electronic               0.000              0.000              0.000
 Translational            0.889              2.981             40.949
 Rotational               0.889              2.981             30.442
 Vibrational            164.531             40.064             36.764
 Vibration     1          0.594              1.982              5.336
 Vibration     2          0.597              1.973              4.445
 Vibration     3          0.604              1.948              3.421
 Vibration     4          0.618              1.903              2.679
 Vibration     5          0.621              1.895              2.586
 Vibration     6          0.638              1.840              2.134
 Vibration     7          0.641              1.830              2.073
 Vibration     8          0.664              1.757              1.708
 Vibration     9          0.669              1.744              1.657
 Vibration    10          0.676              1.722              1.573
 Vibration    11          0.694              1.670              1.407
 Vibration    12          0.723              1.588              1.195
 Vibration    13          0.765              1.474              0.969
 Vibration    14          0.817              1.341              0.769
 Vibration    15          0.883              1.188              0.592
 Vibration    16          0.914              1.121              0.527
 Vibration    17          0.950              1.048              0.463

 Optimization completed.
    -- Stationary point found.
 Normal termination of Gaussian 16 at Tue Dec  8 20:11:24 2020.

 ----------------------------------------------------------------------
 # B3LYP/6-311++G(d,p) empiricaldispersion=gd3bj scf=xqc pop=npa geom=c
 heck
 ----------------------------------------------------------------------

 ---------------------------------------
 CID_149249098_JID_1458_Energie_neutraal
 ---------------------------------------
 Structure from the checkpoint file:  "JID_1458.chk"
 Charge =  0 Multiplicity = 1

 SCF Done:  E(RB3LYP) =  -446.188413461     A.U. after   14 cycles
 Normal termination of Gaussian 16 at Tue Dec  8 20:14:39 2020.

 ----------------------------------------------------------------------
 # B3LYP/6-311++G(d,p) empiricaldispersion=gd3bj scf=xqc pop=npa geom=c
 heck
 ----------------------------------------------------------------------

 -------------------------------------
 CID_149249098_JID_1458_Energie_kation
 -------------------------------------
 Structure from the checkpoint file:  "JID_1458.chk"
 Charge =  1 Multiplicity = 2

 SCF Done:  E(UB3LYP) =  -445.919329295     A.U. after   21 cycles
 Normal termination of Gaussian 16 at Tue Dec  8 20:21:30 2020.
 Gaussian 16:  ES64L-G16RevA.03 25-Dec-2016

 ----------------------------------------------------------------------
 # B3LYP/6-311++G(d,p) empiricaldispersion=gd3bj scf=xqc pop=npa geom=c
 heck
 ----------------------------------------------------------------------

 ------------------------------------
 CID_149249098_JID_1458_Energie_anion
 ------------------------------------
 Structure from the checkpoint file:  "JID_1458.chk"
 Charge = -1 Multiplicity = 2

                         Standard orientation:
 ---------------------------------------------------------------------
 Center     Atomic      Atomic             Coordinates (Angstroms)
 Number     Number       Type             X           Y           Z
 ---------------------------------------------------------------------
      1          6           0       -2.576745    1.942067   -0.332548
      2          6           0       -2.733258    0.450079   -0.256284
      3          6           0       -1.883355   -0.422470    0.304184
      4          6           0       -2.192960   -1.899483    0.335042
      5          6           0       -0.563030   -0.015585    0.931867
      6          6           0        0.524531    0.386070   -0.089287
      7          6           0        1.921021    0.498648    0.591004
      8          6           0        2.502199   -0.876119    0.313278
      9          6           0        1.794951   -1.452431   -0.668827
     10          7           0        0.739748   -0.647025   -1.124562
     11          6           0        2.780295    1.621183   -0.012238
     12          1           0       -1.747577    2.309676    0.278395
     13          1           0       -3.491863    2.445957    0.004333
     14          1           0       -2.399050    2.272815   -1.365283
     15          1           0       -3.646820    0.055077   -0.702405
     16          1           0       -1.385001   -2.490051   -0.118545
     17          1           0       -2.282235   -2.256419    1.370549
     18          1           0       -3.125580   -2.134991   -0.187491
     19          1           0       -0.701130    0.828049    1.620622
     20          1           0       -0.171379   -0.847051    1.529886
     21          1           0        0.238353    1.326251   -0.572455
     22          1           0        1.794000    0.693059    1.665299
     23          1           0        3.421898   -1.252032    0.742928
     24          1           0        1.981041   -2.401223   -1.161284
     25          1           0       -0.102482   -1.122584   -1.429166
     26          1           0        2.329686    2.605479    0.168362
     27          1           0        3.785321    1.623701    0.424819
     28          1           0        2.882689    1.481714   -1.093772
 ---------------------------------------------------------------------

 SCF Done:  E(UB3LYP) =  -446.171481126     A.U. after   33 cycles
 SCF Done:  E(UB3LYP) =  -446.171481126     a.u. after    1 cycles

 The electronic state is 2-A.
 Alpha  occ. eigenvalues --  -14.20968 -10.09994 -10.09282 -10.07573 -10.07145
 Alpha  occ. eigenvalues --  -10.06431 -10.06191 -10.06046 -10.06036 -10.05827
 Alpha  occ. eigenvalues --  -10.04789  -0.83757  -0.71489  -0.68475  -0.64573
 Alpha  occ. eigenvalues --   -0.62724  -0.60063  -0.54957  -0.53179  -0.47179
 Alpha  occ. eigenvalues --   -0.45447  -0.42820  -0.41089  -0.36497  -0.34643
 Alpha  occ. eigenvalues --   -0.33756  -0.32490  -0.32131  -0.31106  -0.30233
 Alpha  occ. eigenvalues --   -0.30141  -0.29230  -0.28093  -0.26613  -0.25676
 Alpha  occ. eigenvalues --   -0.25022  -0.24132  -0.23772  -0.21394  -0.21093
 Alpha  occ. eigenvalues --   -0.13567  -0.09610   0.04623
 Alpha virt. eigenvalues --    0.06783   0.06853   0.08100   0.08665   0.08763
 Alpha virt. eigenvalues --    0.10018   0.10134   0.10722   0.10981   0.11530
 Alpha virt. eigenvalues --    0.11767   0.12278   0.12711   0.12962   0.13669

  Beta  occ. eigenvalues --  -14.20954 -10.09989 -10.09267 -10.07564 -10.07146
  Beta  occ. eigenvalues --  -10.06411 -10.06159 -10.06025 -10.06000 -10.05806
  Beta  occ. eigenvalues --  -10.04782  -0.83731  -0.71460  -0.68448  -0.64540
  Beta  occ. eigenvalues --   -0.62679  -0.60023  -0.54894  -0.53114  -0.47135
  Beta  occ. eigenvalues --   -0.45415  -0.42771  -0.41038  -0.36448  -0.34604
  Beta  occ. eigenvalues --   -0.33706  -0.32459  -0.32103  -0.31069  -0.30203
  Beta  occ. eigenvalues --   -0.30108  -0.29194  -0.28057  -0.26576  -0.25628
  Beta  occ. eigenvalues --   -0.24987  -0.24107  -0.23741  -0.21364  -0.21066
  Beta  occ. eigenvalues --   -0.13529  -0.09588
  Beta virt. eigenvalues --    0.06752   0.07599   0.07725   0.08631   0.09136
  Beta virt. eigenvalues --    0.09425   0.10457   0.10537   0.11037   0.11359
  Beta virt. eigenvalues --    0.11921   0.12080   0.12409   0.13004   0.13358

 Mulliken charges and spin densities:
               1          2
     1  C    1.912507  -2.675156
     2  C    0.664720  -0.906044
     3  C   -1.092498   2.000861
     4  C    1.982788  -2.738390
     5  C   -3.068255   2.256511
     6  C    0.879706  -0.853963
     7  C   -0.356946   0.491747
     8  C   -0.387222   0.199210
     9  C    0.547524  -0.928036
    10  N   -0.226648   0.110686
    11  C    0.705410  -1.390382
    12  H    0.001209   0.144422
    13  H   -0.283359   0.428144
    14  H   -0.208515   0.373367
    15  H   -0.609463   0.780798
    16  H   -0.263102   0.407653
    17  H   -0.252058   0.414258
    18  H   -0.421271   0.562339
    19  H   -0.259331   0.447485
    20  H    0.220743  -0.062201
    21  H    0.453101  -0.188429
    22  H   -0.169784   0.377747
    23  H   -0.291564   0.442671
    24  H   -0.482238   0.626047
    25  H    0.239448   0.026223
    26  H   -0.156281   0.268793
    27  H   -0.118171   0.251749
    28  H    0.039549   0.131890
 Sum of Mulliken charges =  -1.00000   1.00000

 Dipole moment (field-independent basis, Debye):
    X=              2.5830    Y=              0.8251    Z=             -0.0756  Tot=              2.7127
 Quadrupole moment (field-independent basis, Debye-Ang):
   XX=           -139.0640   YY=           -119.1640   ZZ=           -102.2833
   XY=             -0.3515   XZ=             -1.7317   YZ=             -1.6234

 Summary of Natural Population Analysis:

                                       Natural Population
                Natural  -----------------------------------------------
    Atom  No    Charge         Core      Valence    Rydberg      Total
 -----------------------------------------------------------------------
      C    1   -0.29947      0.99965     2.29485    0.00497     3.29947
      C    2   -0.09099      0.99944     2.08200    0.00955     3.09099
      C    3   -0.01949      0.99949     2.00672    0.01329     3.01949
      C    4   -0.29191      0.99962     2.28599    0.00630     3.29191
      C    5   -0.21228      0.99956     2.20244    0.01028     3.21228
      C    6    0.00289      0.99958     1.98499    0.01254     2.99711
      C    7   -0.12403      0.99959     2.11219    0.01224     3.12403
      C    8   -0.15025      0.99952     2.13956    0.01116     3.15025
      C    9    0.00902      0.99951     1.97866    0.01281     2.99098
      N   10   -0.32949      0.99972     2.81773    0.01203     3.82949
      C   11   -0.28024      0.99965     2.27549    0.00510     3.28024
      H   12    0.10042      0.00000     0.39811    0.00146     0.39958
      H   13    0.10207      0.00000     0.39660    0.00133     0.39793
      H   14    0.10300      0.00000     0.39536    0.00164     0.39700
      H   15    0.09204      0.00000     0.40661    0.00135     0.40796
      H   16    0.09892      0.00000     0.39942    0.00166     0.40108
      H   17    0.10228      0.00000     0.39642    0.00130     0.39772
      H   18    0.10241      0.00000     0.39613    0.00146     0.39759
      H   19    0.10695      0.00000     0.39152    0.00154     0.39305
      H   20    0.10404      0.00000     0.39401    0.00196     0.39596
      H   21    0.09467      0.00000     0.40307    0.00227     0.40533
      H   22    0.09838      0.00000     0.39972    0.00190     0.40162
      H   23    0.10243      0.00000     0.39665    0.00092     0.39757
      H   24    0.09741      0.00000     0.40140    0.00118     0.40259
      H   25    0.18785      0.00000     0.30909    0.00307     0.31215
      H   26    0.09685      0.00000     0.40181    0.00134     0.40315
      H   27    0.09674      0.00000     0.40199    0.00127     0.40326
      H   28    0.09977      0.00000     0.39895    0.00128     0.40023
 =======================================================================
   * Total *   -0.00000     10.99533    30.86748    0.13719    42.00000

 Normal termination of Gaussian 16 at Tue Dec  8 20:32:43 2020.
