 Gaussian 16, Revision A.03,

 -----------------------------------------------------------
 # opt freq B3LYP/6-31G(d) empiricaldispersion=gd3bj scf=xqc
 -----------------------------------------------------------

 ------------------------------
 CID_97539686_JID_1397_neutraal
 ------------------------------
 Symbolic Z-matrix:
 Charge =  0 Multiplicity = 1

 SCF Done:  E(RB3LYP) =  -484.403694657     A.U. after   13 cycles
 SCF Done:  E(RB3LYP) =  -484.406862343     A.U. after   11 cycles
 SCF Done:  E(RB3LYP) =  -484.406798673     A.U. after   10 cycles
 SCF Done:  E(RB3LYP) =  -484.407332905     A.U. after   10 cycles
 SCF Done:  E(RB3LYP) =  -484.407357464     A.U. after   10 cycles
 SCF Done:  E(RB3LYP) =  -484.407344257     A.U. after   10 cycles
 SCF Done:  E(RB3LYP) =  -484.407330546     A.U. after    9 cycles
 SCF Done:  E(RB3LYP) =  -484.407344498     A.U. after   10 cycles
 SCF Done:  E(RB3LYP) =  -484.407370971     A.U. after    9 cycles
 SCF Done:  E(RB3LYP) =  -484.407378364     A.U. after    9 cycles
 SCF Done:  E(RB3LYP) =  -484.407379497     A.U. after    7 cycles
 SCF Done:  E(RB3LYP) =  -484.407380113     A.U. after    7 cycles
 SCF Done:  E(RB3LYP) =  -484.407380195     A.U. after    6 cycles
 SCF Done:  E(RB3LYP) =  -484.407380229     A.U. after    6 cycles
 Optimization completed.
    -- Stationary point found.
 Normal termination of Gaussian 16 at Tue Dec  8 19:54:59 2020.

 --------------------------------------------------------------------
 #N Geom=AllCheck Guess=TCheck SCRF=Check GenChk RB3LYP/6-31G(d) Freq
 --------------------------------------------------------------------

 Structure from the checkpoint file:  "JID_1397.chk"
 ------------------------------
 CID_97539686_JID_1397_neutraal
 ------------------------------
 Charge =  0 Multiplicity = 1

 SCF Done:  E(RB3LYP) =  -484.407380229     A.U. after    1 cycles

  Exact polarizability: 112.127   2.199 101.696  -0.176   0.297  91.269
 Approx polarizability: 142.446   0.005 139.852   1.593  -0.370 140.129

                      1                      2                      3
                      A                      A                      A
 Frequencies --     67.4102                83.5323               103.0706
 Red. masses --      2.7826                 2.6111                 2.8522
 Frc consts  --      0.0074                 0.0107                 0.0179
 IR Inten    --      0.9917                 0.5308                 1.4117

                      4                      5                      6
                      A                      A                      A
 Frequencies --    146.0697               160.0533               229.8233
 Red. masses --      3.2236                 2.5588                 1.2472
 Frc consts  --      0.0405                 0.0386                 0.0388
 IR Inten    --      0.2328                 1.5157                 0.3939

                      7                      8                      9
                      A                      A                      A
 Frequencies --    252.7774               253.8944               272.4321
 Red. masses --      1.6508                 1.7961                 1.9015
 Frc consts  --      0.0621                 0.0682                 0.0831
 IR Inten    --      0.9246                 1.9287                 1.4217

                     10                     11                     12
                      A                      A                      A
 Frequencies --    310.4952               327.3556               348.7232
 Red. masses --      2.4272                 2.0441                 1.5255
 Frc consts  --      0.1379                 0.1291                 0.1093
 IR Inten    --      2.1483                12.4745                82.7855

                     13                     14                     15
                      A                      A                      A
 Frequencies --    375.0413               408.2802               430.0128
 Red. masses --      1.8141                 1.7250                 2.0971
 Frc consts  --      0.1503                 0.1694                 0.2285
 IR Inten    --     24.8386                40.3430                 0.6956

                     16                     17                     18
                      A                      A                      A
 Frequencies --    453.3608               577.5120               611.8512
 Red. masses --      2.3780                 2.0297                 2.9871
 Frc consts  --      0.2880                 0.3988                 0.6589
 IR Inten    --      6.6499                 4.4303                 3.2361

                     19                     20                     21
                      A                      A                      A
 Frequencies --    654.6750               767.7940               817.1671
 Red. masses --      2.9806                 3.4271                 2.2528
 Frc consts  --      0.7527                 1.1903                 0.8863
 IR Inten    --     11.4813                 6.2460                22.9015

                     22                     23                     24
                      A                      A                      A
 Frequencies --    828.5791               863.0911               880.3701
 Red. masses --      2.1160                 1.5858                 1.9318
 Frc consts  --      0.8559                 0.6960                 0.8822
 IR Inten    --     20.1073                 6.3415                29.8541

                     25                     26                     27
                      A                      A                      A
 Frequencies --    900.9494               919.7828               926.5263
 Red. masses --      1.7809                 1.6854                 2.1431
 Frc consts  --      0.8517                 0.8401                 1.0840
 IR Inten    --      1.2454                 8.7237                 5.2597

                     28                     29                     30
                      A                      A                      A
 Frequencies --    944.8824               970.3128               980.6602
 Red. masses --      1.2224                 1.7746                 1.5244
 Frc consts  --      0.6430                 0.9844                 0.8637
 IR Inten    --      2.4442                 6.7726                 2.6521

                     31                     32                     33
                      A                      A                      A
 Frequencies --   1011.4351              1021.1258              1068.0039
 Red. masses --      2.0059                 1.5517                 2.1956
 Frc consts  --      1.2090                 0.9533                 1.4755
 IR Inten    --      8.8297                12.4490                44.4723

                     34                     35                     36
                      A                      A                      A
 Frequencies --   1078.5258              1087.2100              1122.8480
 Red. masses --      2.6221                 2.5928                 2.0018
 Frc consts  --      1.7971                 1.8057                 1.4870
 IR Inten    --     13.8225                31.0330                17.7143

                     37                     38                     39
                      A                      A                      A
 Frequencies --   1147.4950              1172.6697              1190.8043
 Red. masses --      2.3780                 1.6124                 2.1287
 Frc consts  --      1.8449                 1.3064                 1.7785
 IR Inten    --     14.2479                 5.3396                 7.5153

                     40                     41                     42
                      A                      A                      A
 Frequencies --   1201.6553              1235.0676              1243.4858
 Red. masses --      1.7026                 1.4741                 1.7928
 Frc consts  --      1.4485                 1.3249                 1.6333
 IR Inten    --     11.8573                35.7722                 2.6598

                     43                     44                     45
                      A                      A                      A
 Frequencies --   1267.4776              1283.4628              1304.7996
 Red. masses --      1.5212                 1.3072                 1.4684
 Frc consts  --      1.4398                 1.2687                 1.4730
 IR Inten    --      0.9387                 1.4890                 1.9209

                     46                     47                     48
                      A                      A                      A
 Frequencies --   1333.9733              1351.0815              1368.1942
 Red. masses --      1.3947                 1.3083                 1.3058
 Frc consts  --      1.4622                 1.4071                 1.4402
 IR Inten    --      1.9455                 0.2485                 2.5861

                     49                     50                     51
                      A                      A                      A
 Frequencies --   1378.3736              1390.3486              1406.1699
 Red. masses --      1.2712                 1.3743                 1.3624
 Frc consts  --      1.4230                 1.5653                 1.5871
 IR Inten    --      3.8621                 4.5490                 3.0253

                     52                     53                     54
                      A                      A                      A
 Frequencies --   1414.1904              1430.4297              1438.4716
 Red. masses --      1.3400                 1.2732                 1.2462
 Frc consts  --      1.5790                 1.5349                 1.5193
 IR Inten    --      1.4267                12.3328                24.3033

                     55                     56                     57
                      A                      A                      A
 Frequencies --   1451.9487              1504.6418              1515.7988
 Red. masses --      1.2357                 1.0851                 1.0779
 Frc consts  --      1.5348                 1.4474                 1.4591
 IR Inten    --      2.0168                 1.6807                 2.4444

                     58                     59                     60
                      A                      A                      A
 Frequencies --   1518.3156              1523.0838              1526.2994
 Red. masses --      1.0668                 1.0990                 1.0682
 Frc consts  --      1.4490                 1.5021                 1.4662
 IR Inten    --      1.7414                 8.6871                 4.2522

                     61                     62                     63
                      A                      A                      A
 Frequencies --   1531.0062              1535.1316              1535.7232
 Red. masses --      1.0964                 1.0863                 1.0702
 Frc consts  --      1.5142                 1.5083                 1.4870
 IR Inten    --      7.1256                 3.3549                 6.9061

                     64                     65                     66
                      A                      A                      A
 Frequencies --   1545.0447              1559.0654              3010.8600
 Red. masses --      1.0757                 1.0739                 1.0608
 Frc consts  --      1.5129                 1.5380                 5.6659
 IR Inten    --      3.5344                 6.5428                 3.9297

                     67                     68                     69
                      A                      A                      A
 Frequencies --   3021.0898              3034.2768              3040.2346
 Red. masses --      1.0669                 1.0375                 1.0479
 Frc consts  --      5.7374                 5.6277                 5.7067
 IR Inten    --     62.7454                31.7386                23.3316

                     70                     71                     72
                      A                      A                      A
 Frequencies --   3040.8497              3049.0393              3054.6525
 Red. masses --      1.0684                 1.0938                 1.0690
 Frc consts  --      5.8204                 5.9912                 5.8771
 IR Inten    --     46.6453                19.4085                38.4503

                     73                     74                     75
                      A                      A                      A
 Frequencies --   3057.9318              3062.3333              3094.7621
 Red. masses --      1.0631                 1.0858                 1.1007
 Frc consts  --      5.8572                 5.9993                 6.2110
 IR Inten    --     46.3341                13.0812                 2.7288

                     76                     77                     78
                      A                      A                      A
 Frequencies --   3097.0054              3103.8303              3106.8713
 Red. masses --      1.0976                 1.0993                 1.0974
 Frc consts  --      6.2027                 6.2396                 6.2410
 IR Inten    --     32.4589                64.5411                42.6164

                     79                     80                     81
                      A                      A                      A
 Frequencies --   3110.4578              3111.6780              3127.5766
 Red. masses --      1.1044                 1.1024                 1.0950
 Frc consts  --      6.2952                 6.2887                 6.3110
 IR Inten    --     34.7776                54.8672                60.3021

                     82                     83                     84
                      A                      A                      A
 Frequencies --   3141.3658              3473.0785              3741.0933
 Red. masses --      1.0928                 1.0738                 1.0656
 Frc consts  --      6.3540                 7.6311                 8.7873
 IR Inten    --     15.5975                 4.0634                 8.7210

 - Thermochemistry -
 -------------------
 Temperature   298.150 Kelvin.  Pressure   1.00000 Atm.
 Atom     1 has atomic number  6 and mass  12.00000

 Molecular mass:   157.14666 amu.
 Principal axes and moments of inertia in atomic units:
                           1         2         3
     Eigenvalues --  1115.451582348.773472847.06589
           X            0.99978   0.02058  -0.00323
           Y           -0.02059   0.99978  -0.00323
           Z            0.00316   0.00329   0.99999
 This molecule is an asymmetric top.
 Rotational symmetry number  1.
 Warning -- assumption of classical behavior for rotation
           may cause significant error
 Rotational temperatures (Kelvin)      0.07765     0.03688     0.03042
 Rotational constants (GHZ):           1.61795     0.76838     0.63390
 Zero-point vibrational energy     729954.3 (Joules/Mol)
                                  174.46327 (Kcal/Mol)
 Warning -- explicit consideration of  18 degrees of freedom as
           vibrations may cause significant error
 Vibrational temperatures:     96.99   120.18   148.30   210.16   230.28
          (Kelvin)            330.66   363.69   365.30   391.97   446.73
                              470.99   501.73   539.60   587.42   618.69
                              652.29   830.91   880.32   941.93  1104.68
                             1175.72  1192.14  1241.80  1266.66  1296.27
                             1323.36  1333.06  1359.48  1396.06  1410.95
                             1455.23  1469.17  1536.62  1551.76  1564.25
                             1615.53  1650.99  1687.21  1713.30  1728.91
                             1776.99  1789.10  1823.62  1846.62  1877.32
                             1919.29  1943.90  1968.53  1983.17  2000.40
                             2023.16  2034.70  2058.07  2069.64  2089.03
                             2164.84  2180.90  2184.52  2191.38  2196.00
                             2202.78  2208.71  2209.56  2222.97  2243.15
                             4331.96  4346.67  4365.65  4374.22  4375.10
                             4386.89  4394.96  4399.68  4406.01  4452.67
                             4455.90  4465.72  4470.09  4475.26  4477.01
                             4499.89  4519.72  4996.99  5382.60

 Zero-point correction=                           0.278025 (Hartree/Particle)
 Thermal correction to Energy=                    0.290220
 Thermal correction to Enthalpy=                  0.291164
 Thermal correction to Gibbs Free Energy=         0.240578
 Sum of electronic and zero-point Energies=           -484.129355
 Sum of electronic and thermal Energies=              -484.117161
 Sum of electronic and thermal Enthalpies=            -484.116216
 Sum of electronic and thermal Free Energies=         -484.166802

                     E (Thermal)             CV                S
                      KCal/Mol        Cal/Mol-Kelvin    Cal/Mol-Kelvin
 Total                  182.116             47.309            106.466
 Electronic               0.000              0.000              0.000
 Translational            0.889              2.981             41.065
 Rotational               0.889              2.981             30.390
 Vibrational            180.338             41.347             35.010
 Vibration     1          0.598              1.970              4.228
 Vibration     2          0.600              1.961              3.806
 Vibration     3          0.605              1.947              3.395
 Vibration     4          0.617              1.907              2.723
 Vibration     5          0.622              1.891              2.549
 Vibration     6          0.652              1.795              1.880
 Vibration     7          0.664              1.758              1.711
 Vibration     8          0.665              1.756              1.703
 Vibration     9          0.675              1.724              1.581
 Vibration    10          0.699              1.654              1.360
 Vibration    11          0.711              1.621              1.273
 Vibration    12          0.726              1.578              1.172
 Vibration    13          0.746              1.523              1.059
 Vibration    14          0.773              1.452              0.933
 Vibration    15          0.791              1.405              0.859
 Vibration    16          0.812              1.353              0.786
 Vibration    17          0.934              1.080              0.490
 Vibration    18          0.971              1.007              0.430

 Optimization completed.
    -- Stationary point found.
 Normal termination of Gaussian 16 at Tue Dec  8 20:02:05 2020.

 ----------------------------------------------------------------------
 # B3LYP/6-311++G(d,p) empiricaldispersion=gd3bj scf=xqc pop=npa geom=c
 heck
 ----------------------------------------------------------------------

 --------------------------------------
 CID_97539686_JID_1397_Energie_neutraal
 --------------------------------------
 Structure from the checkpoint file:  "JID_1397.chk"
 Charge =  0 Multiplicity = 1

 SCF Done:  E(RB3LYP) =  -484.556771286     A.U. after   14 cycles
 Normal termination of Gaussian 16 at Tue Dec  8 20:05:15 2020.

 ----------------------------------------------------------------------
 # B3LYP/6-311++G(d,p) empiricaldispersion=gd3bj scf=xqc pop=npa geom=c
 heck
 ----------------------------------------------------------------------

 ------------------------------------
 CID_97539686_JID_1397_Energie_kation
 ------------------------------------
 Structure from the checkpoint file:  "JID_1397.chk"
 Charge =  1 Multiplicity = 2

 SCF Done:  E(UB3LYP) =  -484.243609005     A.U. after   20 cycles
 Normal termination of Gaussian 16 at Tue Dec  8 20:10:27 2020.
 Gaussian 16:  ES64L-G16RevA.03 25-Dec-2016

 ----------------------------------------------------------------------
 # B3LYP/6-311++G(d,p) empiricaldispersion=gd3bj scf=xqc pop=npa geom=c
 heck
 ----------------------------------------------------------------------

 -----------------------------------
 CID_97539686_JID_1397_Energie_anion
 -----------------------------------
 Structure from the checkpoint file:  "JID_1397.chk"
 Charge = -1 Multiplicity = 2

                         Standard orientation:
 ---------------------------------------------------------------------
 Center     Atomic      Atomic             Coordinates (Angstroms)
 Number     Number       Type             X           Y           Z
 ---------------------------------------------------------------------
      1          6           0       -2.382080    1.114258   -0.675434
      2          6           0       -2.063510   -0.089366    0.224244
      3          6           0       -3.321400   -0.958528    0.373283
      4          6           0       -0.896272   -0.966531   -0.270770
      5          6           0        0.545059   -0.435468   -0.089710
      6          6           0        0.942515    0.655551   -1.145037
      7          6           0        1.517619    1.822017   -0.321918
      8          6           0        0.828737    1.637788    1.041925
      9          7           0        0.726719    0.185622    1.247603
     10          6           0        1.490955   -1.647050   -0.182750
     11          8           0        2.859605   -1.312016    0.026172
     12          1           0       -2.581145    0.790752   -1.705810
     13          1           0       -1.573426    1.848832   -0.705945
     14          1           0       -3.277896    1.633810   -0.315166
     15          1           0       -1.785307    0.277193    1.219898
     16          1           0       -3.622230   -1.383656   -0.593574
     17          1           0       -3.151304   -1.791032    1.065443
     18          1           0       -4.165142   -0.370653    0.753162
     19          1           0       -0.958019   -1.913443    0.282738
     20          1           0       -1.051775   -1.220966   -1.330192
     21          1           0        1.660475    0.270228   -1.880826
     22          1           0        0.070136    0.973206   -1.719334
     23          1           0        2.601507    1.705701   -0.198544
     24          1           0        1.336465    2.801808   -0.777136
     25          1           0        1.370572    2.099805    1.873207
     26          1           0       -0.176437    2.075671    1.024495
     27          1           0        1.634544   -0.128704    1.589828
     28          1           0        1.246509   -2.356914    0.613770
     29          1           0        1.346056   -2.157103   -1.146889
     30          1           0        3.142801   -0.753778   -0.714711
 ---------------------------------------------------------------------

 SCF Done:  E(UB3LYP) =  -484.541689963     A.U. after   27 cycles

 The electronic state is 2-A.
 Alpha  occ. eigenvalues --  -19.01912 -14.18468 -10.10863 -10.09609 -10.08271
 Alpha  occ. eigenvalues --  -10.06822 -10.05775 -10.05731 -10.05636 -10.05530
 Alpha  occ. eigenvalues --  -10.05305  -0.92086  -0.81154  -0.70439  -0.65500
 Alpha  occ. eigenvalues --   -0.65212  -0.58208  -0.56880  -0.55735  -0.48597
 Alpha  occ. eigenvalues --   -0.46568  -0.44415  -0.41500  -0.38026  -0.37563
 Alpha  occ. eigenvalues --   -0.34841  -0.33958  -0.33438  -0.32197  -0.31924
 Alpha  occ. eigenvalues --   -0.29893  -0.28339  -0.27789  -0.26615  -0.25511
 Alpha  occ. eigenvalues --   -0.24709  -0.23719  -0.23425  -0.23116  -0.21665
 Alpha  occ. eigenvalues --   -0.21087  -0.20662  -0.17157  -0.12774   0.04744
 Alpha virt. eigenvalues --    0.06748   0.07595   0.08238   0.09113   0.09517
 Alpha virt. eigenvalues --    0.09779   0.10467   0.10896   0.11861   0.12263
 Alpha virt. eigenvalues --    0.12498   0.13100   0.13501   0.14301   0.15022

  Beta  occ. eigenvalues --  -19.01869 -14.18454 -10.10843 -10.09611 -10.08259
  Beta  occ. eigenvalues --  -10.06817 -10.05766 -10.05710 -10.05607 -10.05489
  Beta  occ. eigenvalues --  -10.05276  -0.91996  -0.81124  -0.70419  -0.65464
  Beta  occ. eigenvalues --   -0.65155  -0.58156  -0.56830  -0.55661  -0.48529
  Beta  occ. eigenvalues --   -0.46502  -0.44368  -0.41437  -0.37972  -0.37509
  Beta  occ. eigenvalues --   -0.34805  -0.33928  -0.33405  -0.32156  -0.31867
  Beta  occ. eigenvalues --   -0.29859  -0.28311  -0.27756  -0.26571  -0.25476
  Beta  occ. eigenvalues --   -0.24672  -0.23664  -0.23391  -0.23086  -0.21633
  Beta  occ. eigenvalues --   -0.21053  -0.20625  -0.17113  -0.12747
  Beta virt. eigenvalues --    0.06899   0.07821   0.08277   0.08782   0.09727
  Beta virt. eigenvalues --    0.09909   0.10241   0.10895   0.11243   0.12255
  Beta virt. eigenvalues --    0.12577   0.12838   0.13590   0.13812   0.14667

 Mulliken charges and spin densities:
               1          2
     1  C    0.844103  -1.480664
     2  C   -1.766501   2.160899
     3  C    0.443481  -1.134058
     4  C    0.698309  -1.510971
     5  C   -1.005685   1.089808
     6  C   -0.546667   0.194976
     7  C    1.794980  -2.152386
     8  C   -0.872898   0.586737
     9  N    0.043835   0.045163
    10  C    1.606925  -1.963590
    11  O   -0.234929   0.063037
    12  H   -0.249235   0.409765
    13  H    0.228071  -0.113355
    14  H   -0.183234   0.310385
    15  H    0.049898   0.136771
    16  H   -0.053143   0.190536
    17  H   -0.083329   0.206563
    18  H   -0.089505   0.224481
    19  H    0.079638   0.038782
    20  H   -0.027732   0.194682
    21  H   -1.114308   1.279520
    22  H   -0.033003   0.205172
    23  H    0.166034  -0.036483
    24  H   -0.465799   0.644502
    25  H   -0.267383   0.425411
    26  H    0.126730   0.010834
    27  H    0.170231   0.110785
    28  H    0.122818   0.058338
    29  H   -0.319206   0.486177
    30  H   -0.062494   0.318180
 Sum of Mulliken charges =  -1.00000   1.00000

 Dipole moment (field-independent basis, Debye):
    X=             -2.3813    Y=             -0.6974    Z=              3.6672  Tot=              4.4278
 Quadrupole moment (field-independent basis, Debye-Ang):
   XX=           -135.3773   YY=           -107.8045   ZZ=           -111.2411
   XY=              1.2289   XZ=              5.9868   YZ=              1.5876

 Summary of Natural Population Analysis:

                                       Natural Population
                Natural  -----------------------------------------------
    Atom  No    Charge         Core      Valence    Rydberg      Total
 -----------------------------------------------------------------------
      C    1   -0.28526      0.99964     2.27964    0.00598     3.28526
      C    2   -0.12021      0.99961     2.11111    0.00949     3.12021
      C    3   -0.27873      0.99965     2.27447    0.00461     3.27873
      C    4   -0.18660      0.99956     2.17621    0.01083     3.18660
      C    5    0.04804      0.99956     1.93627    0.01613     2.95196
      C    6   -0.20361      0.99959     2.19235    0.01166     3.20361
      C    7   -0.19976      0.99963     2.19157    0.00857     3.19976
      C    8   -0.08869      0.99963     2.07851    0.01054     3.08869
      N    9   -0.34641      0.99973     2.83602    0.01066     3.84641
      C   10   -0.00786      0.99950     1.99483    0.01353     3.00786
      O   11   -0.37393      0.99990     3.36744    0.00659     4.37393
      H   12    0.09660      0.00000     0.40229    0.00111     0.40340
      H   13    0.09932      0.00000     0.39928    0.00140     0.40068
      H   14    0.09693      0.00000     0.40212    0.00095     0.40307
      H   15    0.10123      0.00000     0.39648    0.00229     0.39877
      H   16    0.09521      0.00000     0.40378    0.00101     0.40479
      H   17    0.09688      0.00000     0.40220    0.00092     0.40312
      H   18    0.09669      0.00000     0.40241    0.00089     0.40331
      H   19    0.09653      0.00000     0.40197    0.00150     0.40347
      H   20    0.09781      0.00000     0.40094    0.00125     0.40219
      H   21    0.10289      0.00000     0.39270    0.00441     0.39711
      H   22    0.10369      0.00000     0.39437    0.00194     0.39631
      H   23    0.09632      0.00000     0.40162    0.00206     0.40368
      H   24    0.09976      0.00000     0.39906    0.00118     0.40024
      H   25    0.09296      0.00000     0.40617    0.00087     0.40704
      H   26    0.08583      0.00000     0.41241    0.00177     0.41417
      H   27    0.17925      0.00000     0.31762    0.00312     0.32075
      H   28    0.08654      0.00000     0.41218    0.00128     0.41346
      H   29    0.08402      0.00000     0.41462    0.00136     0.41598
      H   30    0.23454      0.00000     0.25920    0.00626     0.26546
 =======================================================================
   * Total *   -0.00000     10.99601    32.85985    0.14414    44.00000

 Normal termination of Gaussian 16 at Tue Dec  8 20:17:43 2020.
