 Gaussian 16, Revision A.03,

 -----------------------------------------------------------
 # opt freq B3LYP/6-31G(d) empiricaldispersion=gd3bj scf=xqc
 -----------------------------------------------------------

 -------------------------------
 CID_103101165_JID_5956_neutraal
 -------------------------------
 Symbolic Z-matrix:
 Charge =  0 Multiplicity = 1

 SCF Done:  E(RB3LYP) =  -668.949220385     A.U. after   15 cycles
 SCF Done:  E(RB3LYP) =  -668.954664444     A.U. after   12 cycles
 SCF Done:  E(RB3LYP) =  -668.955176171     A.U. after   12 cycles
 SCF Done:  E(RB3LYP) =  -668.955154819     A.U. after   12 cycles
 SCF Done:  E(RB3LYP) =  -668.955438698     A.U. after   11 cycles
 SCF Done:  E(RB3LYP) =  -668.955491470     A.U. after   10 cycles
 SCF Done:  E(RB3LYP) =  -668.955525452     A.U. after   11 cycles
 SCF Done:  E(RB3LYP) =  -668.955543165     A.U. after   10 cycles
 SCF Done:  E(RB3LYP) =  -668.955563730     A.U. after   10 cycles
 SCF Done:  E(RB3LYP) =  -668.955594620     A.U. after   10 cycles
 SCF Done:  E(RB3LYP) =  -668.955660027     A.U. after   10 cycles
 SCF Done:  E(RB3LYP) =  -668.955664002     A.U. after   10 cycles
 SCF Done:  E(RB3LYP) =  -668.955664180     A.U. after    8 cycles
 SCF Done:  E(RB3LYP) =  -668.955664183     A.U. after    8 cycles
 SCF Done:  E(RB3LYP) =  -668.955664196     A.U. after    7 cycles
 SCF Done:  E(RB3LYP) =  -668.955664196     A.U. after    6 cycles
 Optimization completed.
    -- Stationary point found.
 Normal termination of Gaussian 16 at Thu Dec 10 17:52:46 2020.

 --------------------------------------------------------------------
 #N Geom=AllCheck Guess=TCheck SCRF=Check GenChk RB3LYP/6-31G(d) Freq
 --------------------------------------------------------------------

 Structure from the checkpoint file:  "JID_5956.chk"
 -------------------------------
 CID_103101165_JID_5956_neutraal
 -------------------------------
 Charge =  0 Multiplicity = 1

 SCF Done:  E(RB3LYP) =  -668.955664196     A.U. after    1 cycles

  Exact polarizability: 171.530  12.578 138.225   5.074 -19.055 100.261
 Approx polarizability: 246.795  24.239 216.142   4.469 -45.177 151.184

                      1                      2                      3
                      A                      A                      A
 Frequencies --     32.8005                35.4163                50.1675
 Red. masses --      1.1098                 3.8699                 4.2114
 Frc consts  --      0.0007                 0.0029                 0.0062
 IR Inten    --      0.3007                 1.6174                 0.8506

                      4                      5                      6
                      A                      A                      A
 Frequencies --     57.2361                83.0948               108.5735
 Red. masses --      4.9503                 3.2720                 4.4224
 Frc consts  --      0.0096                 0.0133                 0.0307
 IR Inten    --      0.2617                 0.6631                 1.0772

                      7                      8                      9
                      A                      A                      A
 Frequencies --    137.5052               158.2558               223.2295
 Red. masses --      2.5009                 2.9223                 3.7603
 Frc consts  --      0.0279                 0.0431                 0.1104
 IR Inten    --      0.4561                 2.9239                 5.8266

                     10                     11                     12
                      A                      A                      A
 Frequencies --    250.1149               255.0896               269.1298
 Red. masses --      3.1071                 1.6322                 1.9008
 Frc consts  --      0.1145                 0.0626                 0.0811
 IR Inten    --      4.8526                37.9232                 0.2481

                     13                     14                     15
                      A                      A                      A
 Frequencies --    282.2479               308.1814               330.0646
 Red. masses --      1.2603                 2.3022                 1.2876
 Frc consts  --      0.0592                 0.1288                 0.0826
 IR Inten    --    168.7418                 6.9824                28.2114

                     16                     17                     18
                      A                      A                      A
 Frequencies --    346.9218               365.2278               394.2130
 Red. masses --      2.3915                 2.4271                 2.8824
 Frc consts  --      0.1696                 0.1908                 0.2639
 IR Inten    --      3.2688                 2.4903                19.4125

                     19                     20                     21
                      A                      A                      A
 Frequencies --    457.9353               468.4951               502.5718
 Red. masses --      3.2127                 4.2517                 2.4800
 Frc consts  --      0.3969                 0.5498                 0.3691
 IR Inten    --      3.1909                 2.5273                20.0697

                     22                     23                     24
                      A                      A                      A
 Frequencies --    509.9617               540.1754               559.2031
 Red. masses --      2.8595                 3.3985                 2.5886
 Frc consts  --      0.4381                 0.5843                 0.4769
 IR Inten    --      5.8486                16.1160                 4.8854

                     25                     26                     27
                      A                      A                      A
 Frequencies --    601.9319               635.4214               680.7357
 Red. masses --      3.5889                 4.3596                 1.5391
 Frc consts  --      0.7661                 1.0371                 0.4202
 IR Inten    --      3.2674                 3.2420               225.5840

                     28                     29                     30
                      A                      A                      A
 Frequencies --    695.9017               732.5803               751.1461
 Red. masses --      1.2749                 4.0346                 3.4980
 Frc consts  --      0.3638                 1.2757                 1.1628
 IR Inten    --     12.8213                12.5337                17.4425

                     31                     32                     33
                      A                      A                      A
 Frequencies --    797.0767               811.9431               825.0560
 Red. masses --      2.0383                 1.4442                 1.6576
 Frc consts  --      0.7630                 0.5610                 0.6648
 IR Inten    --      1.3870                 9.4706                58.6434

                     34                     35                     36
                      A                      A                      A
 Frequencies --    860.7538               879.8890               900.7484
 Red. masses --      3.3315                 2.9015                 1.4200
 Frc consts  --      1.4543                 1.3235                 0.6788
 IR Inten    --      7.7337                 2.5209                 2.6154

                     37                     38                     39
                      A                      A                      A
 Frequencies --    933.5246               948.5304               995.3608
 Red. masses --      1.2994                 2.7965                 2.5691
 Frc consts  --      0.6672                 1.4824                 1.4997
 IR Inten    --      0.3435                 2.4413                18.8603

                     40                     41                     42
                      A                      A                      A
 Frequencies --   1023.0900              1050.9182              1074.9700
 Red. masses --      1.6263                 2.1526                 1.4757
 Frc consts  --      1.0029                 1.4007                 1.0047
 IR Inten    --      2.2412                15.9227                 8.3254

                     43                     44                     45
                      A                      A                      A
 Frequencies --   1096.9267              1100.1216              1103.8782
 Red. masses --      1.7794                 1.6486                 1.8876
 Frc consts  --      1.2615                 1.1756                 1.3552
 IR Inten    --     10.3220                 4.5120                21.8213

                     46                     47                     48
                      A                      A                      A
 Frequencies --   1143.2875              1191.9696              1196.3777
 Red. masses --      1.9456                 1.3496                 1.8306
 Frc consts  --      1.4984                 1.1298                 1.5438
 IR Inten    --     22.8879                23.2793                15.7159

                     49                     50                     51
                      A                      A                      A
 Frequencies --   1239.8725              1267.9935              1307.6999
 Red. masses --      2.6430                 1.7810                 2.3258
 Frc consts  --      2.3939                 1.6871                 2.3434
 IR Inten    --     15.8202                27.3034                33.3741

                     52                     53                     54
                      A                      A                      A
 Frequencies --   1319.1811              1341.9422              1363.9814
 Red. masses --      1.5823                 1.7010                 2.7880
 Frc consts  --      1.6223                 1.8048                 3.0561
 IR Inten    --     22.1547                36.3071                55.9917

                     55                     56                     57
                      A                      A                      A
 Frequencies --   1368.1534              1375.8987              1406.8251
 Red. masses --      2.8977                 1.3961                 1.3395
 Frc consts  --      3.1957                 1.5572                 1.5620
 IR Inten    --      3.0484                34.8419                 3.5747

                     58                     59                     60
                      A                      A                      A
 Frequencies --   1417.4512              1430.8473              1444.1810
 Red. masses --      1.7014                 1.2643                 1.2452
 Frc consts  --      2.0141                 1.5251                 1.5302
 IR Inten    --     30.9688                21.2630                 1.0467

                     61                     62                     63
                      A                      A                      A
 Frequencies --   1470.2761              1487.3404              1515.3309
 Red. masses --      3.0252                 1.0943                 1.0778
 Frc consts  --      3.8531                 1.4263                 1.4582
 IR Inten    --      7.7520                12.3371                 3.1049

                     64                     65                     66
                      A                      A                      A
 Frequencies --   1516.9121              1528.4756              1529.4349
 Red. masses --      1.0472                 1.1061                 1.0718
 Frc consts  --      1.4198                 1.5225                 1.4771
 IR Inten    --      4.7186                 9.7072                 4.7826

                     67                     68                     69
                      A                      A                      A
 Frequencies --   1536.1941              1560.4101              1599.3681
 Red. masses --      1.0865                 2.9252                 1.3699
 Frc consts  --      1.5106                 4.1965                 2.0646
 IR Inten    --      9.4993               101.4606               165.3044

                     70                     71                     72
                      A                      A                      A
 Frequencies --   1633.5032              1671.7814              1696.4711
 Red. masses --      5.6184                 2.9320                 1.4195
 Frc consts  --      8.8329                 4.8280                 2.4070
 IR Inten    --      9.1826                 6.8037                55.1153

                     73                     74                     75
                      A                      A                      A
 Frequencies --   1814.9102              3028.6665              3037.0188
 Red. masses --      9.5386                 1.0683                 1.0406
 Frc consts  --     18.5117                 5.7737                 5.6550
 IR Inten    --    345.0146                26.0785                46.7092

                     76                     77                     78
                      A                      A                      A
 Frequencies --   3045.3022              3056.0708              3091.6728
 Red. masses --      1.0372                 1.0602                 1.0962
 Frc consts  --      5.6675                 5.8341                 6.1733
 IR Inten    --     21.2693                27.1675                24.6219

                     79                     80                     81
                      A                      A                      A
 Frequencies --   3092.3917              3112.7817              3120.4064
 Red. masses --      1.1039                 1.1015                 1.1019
 Frc consts  --      6.2197                 6.2885                 6.3214
 IR Inten    --      5.4062                44.0893                17.6801

                     82                     83                     84
                      A                      A                      A
 Frequencies --   3123.5935              3128.2388              3166.8692
 Red. masses --      1.1035                 1.0927                 1.0870
 Frc consts  --      6.3436                 6.3001                 6.4227
 IR Inten    --     41.8974                 5.1182                18.7305

                     85                     86                     87
                      A                      A                      A
 Frequencies --   3171.2232              3187.9766              3549.5675
 Red. masses --      1.0896                 1.0940                 1.0482
 Frc consts  --      6.4563                 6.5510                 7.7813
 IR Inten    --     19.0316                23.8867                 9.0179

                     88                     89                     90
                      A                      A                      A
 Frequencies --   3585.7144              3646.9860              3721.0709
 Red. masses --      1.0436                 1.0966                 1.1055
 Frc consts  --      7.9058                 8.5937                 9.0189
 IR Inten    --     28.9241                12.6713                83.6550

 - Thermochemistry -
 -------------------
 Temperature   298.150 Kelvin.  Pressure   1.00000 Atm.
 Atom     1 has atomic number  6 and mass  12.00000

 Molecular mass:   207.13716 amu.
 Principal axes and moments of inertia in atomic units:
                           1         2         3
     Eigenvalues --  2066.808674798.131785345.87200
           X            0.99963   0.02444   0.01207
           Y           -0.02442   0.99970  -0.00153
           Z           -0.01211   0.00123   0.99993
 This molecule is an asymmetric top.
 Rotational symmetry number  1.
 Warning -- assumption of classical behavior for rotation
           may cause significant error
 Rotational temperatures (Kelvin)      0.04191     0.01805     0.01620
 Rotational constants (GHZ):           0.87320     0.37613     0.33760
 Zero-point vibrational energy     720558.3 (Joules/Mol)
                                  172.21756 (Kcal/Mol)
 Warning -- explicit consideration of  25 degrees of freedom as
           vibrations may cause significant error
 Vibrational temperatures:     47.19    50.96    72.18    82.35   119.55
          (Kelvin)            156.21   197.84   227.69   321.18   359.86
                              367.02   387.22   406.09   443.40   474.89
                              499.14   525.48   567.18   658.87   674.06
                              723.09   733.72   777.19   804.57   866.05
                              914.23   979.43  1001.25  1054.02  1080.73
                             1146.82  1168.21  1187.07  1238.43  1265.96
                             1295.98  1343.13  1364.72  1432.10  1472.00
                             1512.04  1546.64  1578.23  1582.83  1588.23
                             1644.94  1714.98  1721.32  1783.90  1824.36
                             1881.49  1898.01  1930.76  1962.46  1968.47
                             1979.61  2024.11  2039.40  2058.67  2077.85
                             2115.40  2139.95  2180.22  2182.50  2199.14
                             2200.52  2210.24  2245.08  2301.13  2350.25
                             2405.32  2440.84  2611.25  4357.58  4369.59
                             4381.51  4397.00  4448.23  4449.26  4478.60
                             4489.57  4494.15  4500.84  4556.42  4562.68
                             4586.79  5107.04  5159.04  5247.20  5353.79

 Zero-point correction=                           0.274446 (Hartree/Particle)
 Thermal correction to Energy=                    0.290627
 Thermal correction to Enthalpy=                  0.291571
 Thermal correction to Gibbs Free Energy=         0.229878
 Sum of electronic and zero-point Energies=           -668.681218
 Sum of electronic and thermal Energies=              -668.665037
 Sum of electronic and thermal Enthalpies=            -668.664093
 Sum of electronic and thermal Free Energies=         -668.725786

                     E (Thermal)             CV                S
                      KCal/Mol        Cal/Mol-Kelvin    Cal/Mol-Kelvin
 Total                  182.371             60.342            129.845
 Electronic               0.000              0.000              0.000
 Translational            0.889              2.981             41.889
 Rotational               0.889              2.981             32.339
 Vibrational            180.594             54.381             55.617
 Vibration     1          0.594              1.983              5.652
 Vibration     2          0.594              1.982              5.500
 Vibration     3          0.595              1.978              4.811
 Vibration     4          0.596              1.975              4.550
 Vibration     5          0.600              1.961              3.816
 Vibration     6          0.606              1.942              3.294
 Vibration     7          0.614              1.916              2.838
 Vibration     8          0.621              1.893              2.571
 Vibration     9          0.649              1.806              1.933
 Vibration    10          0.663              1.763              1.730
 Vibration    11          0.665              1.754              1.695
 Vibration    12          0.674              1.730              1.602
 Vibration    13          0.681              1.707              1.520
 Vibration    14          0.698              1.658              1.372
 Vibration    15          0.713              1.615              1.260
 Vibration    16          0.725              1.582              1.180
 Vibration    17          0.738              1.544              1.100
 Vibration    18          0.761              1.483              0.984
 Vibration    19          0.816              1.343              0.772
 Vibration    20          0.826              1.320              0.742
 Vibration    21          0.858              1.244              0.652
 Vibration    22          0.865              1.228              0.634
 Vibration    23          0.895              1.161              0.565
 Vibration    24          0.915              1.120              0.525
 Vibration    25          0.960              1.028              0.446

 Optimization completed.
    -- Stationary point found.
 Normal termination of Gaussian 16 at Thu Dec 10 18:03:09 2020.

 ----------------------------------------------------------------------
 # B3LYP/6-311++G(d,p) empiricaldispersion=gd3bj scf=xqc pop=npa geom=c
 heck
 ----------------------------------------------------------------------

 ---------------------------------------
 CID_103101165_JID_5956_Energie_neutraal
 ---------------------------------------
 Structure from the checkpoint file:  "JID_5956.chk"
 Charge =  0 Multiplicity = 1

 SCF Done:  E(RB3LYP) =  -669.155772209     A.U. after   15 cycles
 Normal termination of Gaussian 16 at Thu Dec 10 18:07:06 2020.

 ----------------------------------------------------------------------
 # B3LYP/6-311++G(d,p) empiricaldispersion=gd3bj scf=xqc pop=npa geom=c
 heck
 ----------------------------------------------------------------------

 -------------------------------------
 CID_103101165_JID_5956_Energie_kation
 -------------------------------------
 Structure from the checkpoint file:  "JID_5956.chk"
 Charge =  1 Multiplicity = 2

 SCF Done:  E(UB3LYP) =  -668.886741756     A.U. after   22 cycles
 Normal termination of Gaussian 16 at Thu Dec 10 18:14:50 2020.
 Gaussian 16:  ES64L-G16RevA.03 25-Dec-2016

 ----------------------------------------------------------------------
 # B3LYP/6-311++G(d,p) empiricaldispersion=gd3bj scf=xqc pop=npa geom=c
 heck
 ----------------------------------------------------------------------

 ------------------------------------
 CID_103101165_JID_5956_Energie_anion
 ------------------------------------
 Structure from the checkpoint file:  "JID_5956.chk"
 Charge = -1 Multiplicity = 2

                         Standard orientation:
 ---------------------------------------------------------------------
 Center     Atomic      Atomic             Coordinates (Angstroms)
 Number     Number       Type             X           Y           Z
 ---------------------------------------------------------------------
      1          6           0        1.084727    1.770253    2.190136
      2          6           0        1.153088    0.286285    1.810243
      3          7           0        0.830225   -0.008507    0.411382
      4          6           0        1.878918    0.273218   -0.557811
      5          6           0        2.929734   -0.841066   -0.686774
      6          8           0        4.001338   -0.637783   -1.239416
      7          7           0        2.548547   -2.036625   -0.164959
      8          6           0       -0.541049    0.105675    0.026688
      9          6           0       -1.059541    1.231369   -0.652006
     10          6           0       -2.416907    1.228128   -1.009443
     11          6           0       -3.251357    0.169775   -0.672266
     12          6           0       -2.764157   -0.936716    0.034338
     13          6           0       -1.406616   -0.943948    0.355928
     14          6           0       -3.672313   -2.074533    0.432875
     15          7           0       -0.234159    2.302197   -1.024940
     16          1           0        1.798213    2.366650    1.608587
     17          1           0        1.329378    1.911089    3.249095
     18          1           0        0.076663    2.164796    2.021453
     19          1           0        2.156862   -0.108241    2.007401
     20          1           0        0.459822   -0.280508    2.441304
     21          1           0        1.431901    0.407356   -1.546358
     22          1           0        2.441355    1.194058   -0.348673
     23          1           0        1.616616   -2.127602    0.213786
     24          1           0        3.139349   -2.843538   -0.297875
     25          1           0       -2.818534    2.082573   -1.550222
     26          1           0       -4.299466    0.206907   -0.959460
     27          1           0       -0.982313   -1.797939    0.879798
     28          1           0       -4.373741   -2.328403   -0.369982
     29          1           0       -3.099556   -2.975903    0.674515
     30          1           0       -4.272485   -1.821705    1.317279
     31          1           0        0.513740    2.493360   -0.370024
     32          1           0       -0.747954    3.149219   -1.237125
 ---------------------------------------------------------------------

 SCF Done:  E(UB3LYP) =  -669.145178275     A.U. after   32 cycles

 The electronic state is 2-A.
 Alpha  occ. eigenvalues --  -18.99350 -14.23575 -14.22389 -14.22193 -10.17728
 Alpha  occ. eigenvalues --  -10.11710 -10.11159 -10.10825 -10.10718 -10.08087
 Alpha  occ. eigenvalues --  -10.07602 -10.07531 -10.07497 -10.07359 -10.06909
 Alpha  occ. eigenvalues --   -0.94273  -0.85528  -0.81908  -0.80505  -0.74906
 Alpha  occ. eigenvalues --   -0.67048  -0.66350  -0.65625  -0.59958  -0.58410
 Alpha  occ. eigenvalues --   -0.54271  -0.50714  -0.49875  -0.47444  -0.44943
 Alpha  occ. eigenvalues --   -0.43102  -0.42048  -0.39908  -0.39589  -0.35739
 Alpha  occ. eigenvalues --   -0.35434  -0.35283  -0.33785  -0.33486  -0.32950
 Alpha  occ. eigenvalues --   -0.32721  -0.31765  -0.30350  -0.29251  -0.28998
 Alpha  occ. eigenvalues --   -0.28081  -0.27170  -0.26418  -0.25857  -0.25149
 Alpha  occ. eigenvalues --   -0.21178  -0.18128  -0.17474  -0.16592  -0.12720
 Alpha  occ. eigenvalues --   -0.10798   0.03996
 Alpha virt. eigenvalues --    0.05643   0.06472   0.07022   0.07831   0.08188
 Alpha virt. eigenvalues --    0.08542   0.08940   0.09820   0.10250   0.10282
 Alpha virt. eigenvalues --    0.10594   0.11110   0.11802   0.12203   0.12754

  Beta  occ. eigenvalues --  -18.99347 -14.23539 -14.22391 -14.22154 -10.17726
  Beta  occ. eigenvalues --  -10.11708 -10.11145 -10.10822 -10.10698 -10.08089
  Beta  occ. eigenvalues --  -10.07592 -10.07509 -10.07482 -10.07343 -10.06871
  Beta  occ. eigenvalues --   -0.94264  -0.85515  -0.81863  -0.80459  -0.74885
  Beta  occ. eigenvalues --   -0.67014  -0.66317  -0.65601  -0.59919  -0.58361
  Beta  occ. eigenvalues --   -0.54216  -0.50660  -0.49827  -0.47401  -0.44907
  Beta  occ. eigenvalues --   -0.43061  -0.41997  -0.39883  -0.39563  -0.35693
  Beta  occ. eigenvalues --   -0.35410  -0.35251  -0.33752  -0.33463  -0.32917
  Beta  occ. eigenvalues --   -0.32696  -0.31743  -0.30308  -0.29220  -0.28960
  Beta  occ. eigenvalues --   -0.28051  -0.27146  -0.26387  -0.25824  -0.25123
  Beta  occ. eigenvalues --   -0.21154  -0.18100  -0.17458  -0.16581  -0.12706
  Beta  occ. eigenvalues --   -0.10781
  Beta virt. eigenvalues --    0.06157   0.06810   0.06999   0.07659   0.07956
  Beta virt. eigenvalues --    0.08687   0.08757   0.09377   0.10002   0.10427
  Beta virt. eigenvalues --    0.10664   0.10860   0.11430   0.11962   0.12467

 Mulliken charges and spin densities:
               1          2
     1  C    0.857302  -1.427064
     2  C   -0.483540   0.418661
     3  N    0.283408  -0.043452
     4  C    0.558040  -0.541788
     5  C   -0.093745  -0.029399
     6  O   -0.376567   0.011486
     7  N   -0.348651  -0.052950
     8  C   -0.697868   0.100068
     9  C    0.130833  -0.026450
    10  C   -0.043194  -0.234893
    11  C   -0.120222  -0.379883
    12  C    0.264440   0.222441
    13  C   -0.410278   0.025248
    14  C    1.426204  -1.865606
    15  N   -0.357801   0.086404
    16  H   -0.188315   0.324008
    17  H   -0.343727   0.500248
    18  H    0.014659   0.143866
    19  H    0.130739   0.027756
    20  H   -0.336638   0.479462
    21  H    0.174497   0.039723
    22  H    0.157818   0.047476
    23  H   -0.024246   0.310267
    24  H   -0.061715   0.376632
    25  H   -0.525303   0.668942
    26  H   -0.086893   0.227357
    27  H   -0.210873   0.341171
    28  H   -0.009125   0.137722
    29  H   -0.251473   0.402578
    30  H    0.023802   0.139899
    31  H    0.170277   0.082404
    32  H   -0.221844   0.487670
 Sum of Mulliken charges =  -1.00000   1.00000

 Dipole moment (field-independent basis, Debye):
    X=             -1.4838    Y=             -0.8677    Z=              0.0535  Tot=              1.7198
 Quadrupole moment (field-independent basis, Debye-Ang):
   XX=           -158.4856   YY=           -144.1951   ZZ=           -132.3826
   XY=              3.8318   XZ=              4.2933   YZ=              2.1399

 Summary of Natural Population Analysis:

                                       Natural Population
                Natural  -----------------------------------------------
    Atom  No    Charge         Core      Valence    Rydberg      Total
 -----------------------------------------------------------------------
      C    1   -0.29926      0.99966     2.29442    0.00518     3.29926
      C    2   -0.07897      0.99960     2.06887    0.01050     3.07897
      N    3   -0.29532      0.99969     2.77967    0.01596     3.79532
      C    4   -0.12928      0.99955     2.11873    0.01099     3.12928
      C    5    0.33387      0.99970     1.64279    0.02363     2.66613
      O    6   -0.32731      0.99988     3.32140    0.00603     4.32731
      N    7   -0.40209      0.99970     2.89494    0.00744     3.90209
      C    8    0.06482      0.99941     1.92259    0.01318     2.93518
      C    9    0.07232      0.99944     1.91657    0.01167     2.92768
      C   10   -0.11564      0.99953     2.10575    0.01036     3.11564
      C   11   -0.09519      0.99952     2.08673    0.00895     3.09519
      C   12   -0.03338      0.99951     2.02477    0.00909     3.03338
      C   13   -0.09392      0.99947     2.08438    0.01007     3.09392
      C   14   -0.28859      0.99964     2.28403    0.00493     3.28859
      N   15   -0.39902      0.99972     2.88931    0.01000     3.89902
      H   16    0.09447      0.00000     0.40431    0.00122     0.40553
      H   17    0.10296      0.00000     0.39588    0.00116     0.39704
      H   18    0.10155      0.00000     0.39696    0.00149     0.39845
      H   19    0.09413      0.00000     0.40439    0.00148     0.40587
      H   20    0.09761      0.00000     0.40106    0.00133     0.40239
      H   21    0.11997      0.00000     0.37874    0.00129     0.38003
      H   22    0.09949      0.00000     0.39918    0.00133     0.40051
      H   23    0.20403      0.00000     0.29310    0.00288     0.29597
      H   24    0.19613      0.00000     0.30171    0.00216     0.30387
      H   25    0.09989      0.00000     0.39882    0.00128     0.40011
      H   26    0.09771      0.00000     0.40137    0.00092     0.40229
      H   27    0.10033      0.00000     0.39783    0.00184     0.39967
      H   28    0.09984      0.00000     0.39898    0.00117     0.40016
      H   29    0.10272      0.00000     0.39599    0.00129     0.39728
      H   30    0.10137      0.00000     0.39724    0.00138     0.39863
      H   31    0.18736      0.00000     0.30996    0.00269     0.31264
      H   32    0.18739      0.00000     0.30944    0.00317     0.31261
 =======================================================================
   * Total *    0.00000     14.99401    40.81994    0.18605    56.00000

 Normal termination of Gaussian 16 at Thu Dec 10 18:25:50 2020.
