 Gaussian 16, Revision A.03,

 -----------------------------------------------------------
 # opt freq B3LYP/6-31G(d) empiricaldispersion=gd3bj scf=xqc
 -----------------------------------------------------------

 -------------------------------
 CID_131549196_JID_5878_neutraal
 -------------------------------
 Symbolic Z-matrix:
 Charge =  0 Multiplicity = 1

 SCF Done:  E(RB3LYP) =  -670.347889384     A.U. after   15 cycles
 SCF Done:  E(RB3LYP) =  -670.353352625     A.U. after   12 cycles
 SCF Done:  E(RB3LYP) =  -670.353855437     A.U. after   11 cycles
 SCF Done:  E(RB3LYP) =  -670.354102920     A.U. after   11 cycles
 SCF Done:  E(RB3LYP) =  -670.354285193     A.U. after   12 cycles
 SCF Done:  E(RB3LYP) =  -670.354514406     A.U. after   12 cycles
 SCF Done:  E(RB3LYP) =  -670.354633807     A.U. after   11 cycles
 SCF Done:  E(RB3LYP) =  -670.354733603     A.U. after   12 cycles
 SCF Done:  E(RB3LYP) =  -670.354824373     A.U. after   11 cycles
 SCF Done:  E(RB3LYP) =  -670.355246492     A.U. after   14 cycles
 SCF Done:  E(RB3LYP) =  -670.355734082     A.U. after   10 cycles
 SCF Done:  E(RB3LYP) =  -670.355740119     A.U. after    9 cycles
 SCF Done:  E(RB3LYP) =  -670.355741609     A.U. after    9 cycles
 SCF Done:  E(RB3LYP) =  -670.355742721     A.U. after    8 cycles
 SCF Done:  E(RB3LYP) =  -670.355743113     A.U. after    8 cycles
 SCF Done:  E(RB3LYP) =  -670.355743145     A.U. after    6 cycles
 Optimization completed.
    -- Stationary point found.
 Normal termination of Gaussian 16 at Thu Dec 10 17:29:55 2020.

 --------------------------------------------------------------------
 #N Geom=AllCheck Guess=TCheck SCRF=Check GenChk RB3LYP/6-31G(d) Freq
 --------------------------------------------------------------------

 Structure from the checkpoint file:  "JID_5878.chk"
 -------------------------------
 CID_131549196_JID_5878_neutraal
 -------------------------------
 Charge =  0 Multiplicity = 1

 SCF Done:  E(RB3LYP) =  -670.355743145     A.U. after    1 cycles

  Exact polarizability: 201.691  15.930 154.601  -8.768   9.279  70.208
 Approx polarizability: 316.716  27.047 249.440 -24.942  24.775 111.888

                      1                      2                      3
                      A                      A                      A
 Frequencies --     33.8566                59.3652                78.4186
 Red. masses --      3.2137                 3.6190                 2.9003
 Frc consts  --      0.0022                 0.0075                 0.0105
 IR Inten    --      0.6147                 2.3919                 0.6014

                      4                      5                      6
                      A                      A                      A
 Frequencies --     94.2964               122.1868               138.5321
 Red. masses --      6.1035                 3.9117                 1.0570
 Frc consts  --      0.0320                 0.0344                 0.0120
 IR Inten    --      0.0160                 2.8212                 0.7959

                      7                      8                      9
                      A                      A                      A
 Frequencies --    140.4555               219.7946               243.1426
 Red. masses --      2.5961                 4.1087                 1.7336
 Frc consts  --      0.0302                 0.1169                 0.0604
 IR Inten    --      2.7326                 0.5198                 1.6041

                     10                     11                     12
                      A                      A                      A
 Frequencies --    263.5653               284.9294               328.9066
 Red. masses --      5.1687                 2.2143                 4.3382
 Frc consts  --      0.2115                 0.1059                 0.2765
 IR Inten    --      5.3358                 1.1869                 0.1212

                     13                     14                     15
                      A                      A                      A
 Frequencies --    341.5534               410.5110               426.2440
 Red. masses --      3.6747                 1.3302                 3.0109
 Frc consts  --      0.2526                 0.1321                 0.3223
 IR Inten    --      5.3174                59.1804                 5.4509

                     16                     17                     18
                      A                      A                      A
 Frequencies --    472.1061               497.3927               541.5534
 Red. masses --      4.9956                 5.3090                 3.7766
 Frc consts  --      0.6560                 0.7739                 0.6526
 IR Inten    --      9.3493                16.0603                 4.6408

                     19                     20                     21
                      A                      A                      A
 Frequencies --    551.7836               571.1923               613.0273
 Red. masses --      3.1941                 3.5112                 4.4352
 Frc consts  --      0.5730                 0.6749                 0.9820
 IR Inten    --      0.1937                 0.2830                16.3200

                     22                     23                     24
                      A                      A                      A
 Frequencies --    624.6309               648.4424               677.0956
 Red. masses --      5.4515                 4.0345                 2.8019
 Frc consts  --      1.2532                 0.9995                 0.7568
 IR Inten    --      7.9747                 2.2935                11.3758

                     25                     26                     27
                      A                      A                      A
 Frequencies --    732.5423               753.0895               798.1399
 Red. masses --      4.3757                 1.9568                 1.8110
 Frc consts  --      1.3835                 0.6539                 0.6797
 IR Inten    --      5.7978                27.8351                 4.7158

                     28                     29                     30
                      A                      A                      A
 Frequencies --    825.0581               858.9144               872.4193
 Red. masses --      1.1910                 1.5894                 3.1262
 Frc consts  --      0.4777                 0.6908                 1.4019
 IR Inten    --      0.7501                23.1395                16.4212

                     31                     32                     33
                      A                      A                      A
 Frequencies --    895.5371               908.5917               939.8733
 Red. masses --      2.4894                 1.6799                 3.5685
 Frc consts  --      1.1763                 0.8171                 1.8573
 IR Inten    --     10.7236                 3.4677                36.5033

                     34                     35                     36
                      A                      A                      A
 Frequencies --    957.6110               999.3655              1033.2096
 Red. masses --      1.2559                 2.5370                 3.0461
 Frc consts  --      0.6786                 1.4929                 1.9159
 IR Inten    --      1.1374                15.1184                25.3540

                     37                     38                     39
                      A                      A                      A
 Frequencies --   1050.5247              1072.0379              1095.3267
 Red. masses --      1.7946                 2.1457                 2.0196
 Frc consts  --      1.1669                 1.4529                 1.4276
 IR Inten    --      2.7147                23.9358                36.0141

                     40                     41                     42
                      A                      A                      A
 Frequencies --   1105.6328              1125.0681              1193.8770
 Red. masses --      2.2420                 2.0567                 1.3095
 Frc consts  --      1.6147                 1.5338                 1.0997
 IR Inten    --     17.6377                51.8284                11.1162

                     43                     44                     45
                      A                      A                      A
 Frequencies --   1212.6826              1216.3841              1263.3454
 Red. masses --      1.6319                 1.6886                 2.2054
 Frc consts  --      1.4140                 1.4720                 2.0739
 IR Inten    --     12.1622                42.4331               210.1895

                     46                     47                     48
                      A                      A                      A
 Frequencies --   1274.7656              1340.4431              1342.6946
 Red. masses --      2.3388                 1.3332                 2.7876
 Frc consts  --      2.2393                 1.4114                 2.9610
 IR Inten    --    141.6340                 8.1319                78.7961

                     49                     50                     51
                      A                      A                      A
 Frequencies --   1362.9370              1402.8860              1405.4666
 Red. masses --      2.8515                 5.9744                 1.3703
 Frc consts  --      3.1209                 6.9277                 1.5948
 IR Inten    --     57.1881                19.3993                41.3417

                     52                     53                     54
                      A                      A                      A
 Frequencies --   1417.6225              1439.3083              1443.8235
 Red. masses --      1.2966                 2.0120                 1.6452
 Frc consts  --      1.5352                 2.4558                 2.0206
 IR Inten    --      4.6996                68.5642                 9.3333

                     55                     56                     57
                      A                      A                      A
 Frequencies --   1470.7102              1502.7761              1508.8045
 Red. masses --      3.1521                 1.0671                 1.0479
 Frc consts  --      4.0171                 1.4199                 1.4055
 IR Inten    --     10.6080                 8.1025                10.0872

                     58                     59                     60
                      A                      A                      A
 Frequencies --   1515.5631              1524.1996              1540.1657
 Red. masses --      1.0436                 1.0720                 1.1071
 Frc consts  --      1.4123                 1.4673                 1.5472
 IR Inten    --      4.5136                 0.3447                 1.3779

                     61                     62                     63
                      A                      A                      A
 Frequencies --   1549.3784              1591.0550              1634.1985
 Red. masses --      3.2238                 5.6949                 5.9075
 Frc consts  --      4.5596                 8.4939                 9.2953
 IR Inten    --     27.4732               173.4374                36.6274

                     64                     65                     66
                      A                      A                      A
 Frequencies --   1674.3847              1772.2875              3031.9201
 Red. masses --      7.3935                10.6363                 1.0672
 Frc consts  --     12.2127                19.6837                 5.7801
 IR Inten    --      1.4743               256.1534                32.2283

                     67                     68                     69
                      A                      A                      A
 Frequencies --   3042.9493              3058.0523              3100.8633
 Red. masses --      1.0395                 1.0357                 1.1002
 Frc consts  --      5.6712                 5.7067                 6.2326
 IR Inten    --      4.9597                14.9738                12.0593

                     70                     71                     72
                      A                      A                      A
 Frequencies --   3107.9924              3127.0418              3142.7989
 Red. masses --      1.0982                 1.1013                 1.1039
 Frc consts  --      6.2501                 6.3451                 6.4240
 IR Inten    --     23.2096                24.8604                39.4859

                     73                     74                     75
                      A                      A                      A
 Frequencies --   3172.3551              3193.2805              3209.0222
 Red. masses --      1.0995                 1.0863                 1.0923
 Frc consts  --      6.5192                 6.5266                 6.6274
 IR Inten    --      9.6308                 4.1245                20.9235

                     76                     77                     78
                      A                      A                      A
 Frequencies --   3219.1359              3281.8246              3674.5236
 Red. masses --      1.0948                 1.0958                 1.0793
 Frc consts  --      6.6842                 6.9539                 8.5858
 IR Inten    --     13.7411                 0.0126                57.2808

 - Thermochemistry -
 -------------------
 Temperature   298.150 Kelvin.  Pressure   1.00000 Atm.
 Atom     1 has atomic number  6 and mass  12.00000

 Molecular mass:   203.09463 amu.
 Principal axes and moments of inertia in atomic units:
                           1         2         3
     Eigenvalues --  1845.257064458.641145976.47705
           X            0.99992   0.00308   0.01194
           Y           -0.00302   0.99998  -0.00534
           Z           -0.01195   0.00530   0.99991
 This molecule is an asymmetric top.
 Rotational symmetry number  1.
 Warning -- assumption of classical behavior for rotation
           may cause significant error
 Rotational temperatures (Kelvin)      0.04694     0.01943     0.01449
 Rotational constants (GHZ):           0.97804     0.40477     0.30197
 Zero-point vibrational energy     600330.6 (Joules/Mol)
                                  143.48246 (Kcal/Mol)
 Warning -- explicit consideration of  21 degrees of freedom as
           vibrations may cause significant error
 Vibrational temperatures:     48.71    85.41   112.83   135.67   175.80
          (Kelvin)            199.32   202.08   316.24   349.83   379.21
                              409.95   473.22   491.42   590.63   613.27
                              679.26   715.64   779.17   793.89   821.82
                              882.01   898.70   932.96   974.19  1053.96
                             1083.53  1148.35  1187.07  1235.79  1255.22
                             1288.48  1307.26  1352.27  1377.79  1437.86
                             1486.56  1511.47  1542.42  1575.93  1590.76
                             1618.72  1717.72  1744.78  1750.11  1817.67
                             1834.10  1928.60  1931.84  1960.96  2018.44
                             2022.15  2039.64  2070.84  2077.34  2116.02
                             2162.16  2170.83  2180.56  2192.98  2215.95
                             2229.21  2289.17  2351.25  2409.07  2549.93
                             4362.26  4378.13  4399.86  4461.45  4471.71
                             4499.12  4521.79  4564.31  4594.42  4617.07
                             4631.62  4721.81  5286.82

 Zero-point correction=                           0.228654 (Hartree/Particle)
 Thermal correction to Energy=                    0.242614
 Thermal correction to Enthalpy=                  0.243558
 Thermal correction to Gibbs Free Energy=         0.187151
 Sum of electronic and zero-point Energies=           -670.127089
 Sum of electronic and thermal Energies=              -670.113129
 Sum of electronic and thermal Enthalpies=            -670.112185
 Sum of electronic and thermal Free Energies=         -670.168593

                     E (Thermal)             CV                S
                      KCal/Mol        Cal/Mol-Kelvin    Cal/Mol-Kelvin
 Total                  152.243             52.798            118.720
 Electronic               0.000              0.000              0.000
 Translational            0.889              2.981             41.830
 Rotational               0.889              2.981             32.264
 Vibrational            150.465             46.836             44.626
 Vibration     1          0.594              1.983              5.590
 Vibration     2          0.597              1.974              4.478
 Vibration     3          0.600              1.964              3.930
 Vibration     4          0.603              1.953              3.569
 Vibration     5          0.610              1.931              3.065
 Vibration     6          0.614              1.915              2.824
 Vibration     7          0.615              1.913              2.798
 Vibration     8          0.647              1.811              1.961
 Vibration     9          0.659              1.774              1.780
 Vibration    10          0.670              1.740              1.638
 Vibration    11          0.683              1.702              1.504
 Vibration    12          0.712              1.618              1.265
 Vibration    13          0.721              1.592              1.205
 Vibration    14          0.775              1.447              0.925
 Vibration    15          0.788              1.413              0.871
 Vibration    16          0.829              1.312              0.732
 Vibration    17          0.853              1.256              0.665
 Vibration    18          0.897              1.158              0.562
 Vibration    19          0.907              1.136              0.540
 Vibration    20          0.927              1.094              0.502
 Vibration    21          0.972              1.004              0.428

                           ! Non-Optimized Parameters !
 Normal termination of Gaussian 16 at Thu Dec 10 17:39:26 2020.

 ----------------------------------------------------------------------
 # B3LYP/6-311++G(d,p) empiricaldispersion=gd3bj scf=xqc pop=npa geom=c
 heck
 ----------------------------------------------------------------------

 ---------------------------------------
 CID_131549196_JID_5878_Energie_neutraal
 ---------------------------------------
 Structure from the checkpoint file:  "JID_5878.chk"
 Charge =  0 Multiplicity = 1

 SCF Done:  E(RB3LYP) =  -670.539646931     A.U. after   15 cycles
 Normal termination of Gaussian 16 at Thu Dec 10 17:43:47 2020.

 ----------------------------------------------------------------------
 # B3LYP/6-311++G(d,p) empiricaldispersion=gd3bj scf=xqc pop=npa geom=c
 heck
 ----------------------------------------------------------------------

 -------------------------------------
 CID_131549196_JID_5878_Energie_kation
 -------------------------------------
 Structure from the checkpoint file:  "JID_5878.chk"
 Charge =  1 Multiplicity = 2

 SCF Done:  E(UB3LYP) =  -670.252456693     A.U. after   25 cycles
 Normal termination of Gaussian 16 at Thu Dec 10 17:53:19 2020.
 Gaussian 16:  ES64L-G16RevA.03 25-Dec-2016

 ----------------------------------------------------------------------
 # B3LYP/6-311++G(d,p) empiricaldispersion=gd3bj scf=xqc pop=npa geom=c
 heck
 ----------------------------------------------------------------------

 ------------------------------------
 CID_131549196_JID_5878_Energie_anion
 ------------------------------------
 Structure from the checkpoint file:  "JID_5878.chk"
 Charge = -1 Multiplicity = 2

                         Standard orientation:
 ---------------------------------------------------------------------
 Center     Atomic      Atomic             Coordinates (Angstroms)
 Number     Number       Type             X           Y           Z
 ---------------------------------------------------------------------
      1          6           0        3.512998   -1.840549    0.985579
      2          6           0        2.232559   -2.128109    0.216491
      3          8           0        2.027352   -1.217966   -0.882440
      4          6           0        1.629817    0.049617   -0.509218
      5          6           0        2.512345    1.114636   -0.425316
      6          6           0        2.061984    2.406889   -0.065560
      7          6           0        0.730100    2.657749    0.217947
      8          6           0       -0.194726    1.596812    0.124980
      9          6           0        0.276337    0.303980   -0.240669
     10          7           0       -0.797590   -0.549479   -0.270295
     11          6           0       -1.954408    0.164410    0.041623
     12          6           0       -1.606613    1.476435    0.301082
     13          6           0       -3.291608   -0.441597    0.085451
     14          8           0       -4.274728    0.227469    0.371065
     15          6           0       -3.402474   -1.923907   -0.238327
     16          1           0        4.378025   -1.877889    0.315611
     17          1           0        3.652162   -2.586531    1.776434
     18          1           0        3.476540   -0.851243    1.451584
     19          1           0        2.270443   -3.117445   -0.248741
     20          1           0        1.363041   -2.096205    0.887899
     21          1           0        3.559710    0.937673   -0.646967
     22          1           0        2.786086    3.214126   -0.008887
     23          1           0        0.398257    3.653265    0.496578
     24          1           0       -0.759962   -1.490573   -0.628890
     25          1           0       -2.308330    2.246625    0.586414
     26          1           0       -3.066713   -2.125825   -1.263922
     27          1           0       -2.780812   -2.521755    0.440029
     28          1           0       -4.444170   -2.232091   -0.138441
 ---------------------------------------------------------------------

 SCF Done:  E(UB3LYP) =  -670.552662590     A.U. after   27 cycles

 The electronic state is 2-A.
 Alpha  occ. eigenvalues --  -19.02372 -18.91636 -14.20975 -10.12367 -10.08412
 Alpha  occ. eigenvalues --  -10.07149 -10.06616 -10.06461 -10.04166 -10.03562
 Alpha  occ. eigenvalues --  -10.03524 -10.03066 -10.02927 -10.02625 -10.00165
 Alpha  occ. eigenvalues --   -0.93665  -0.85974  -0.83501  -0.70584  -0.66617
 Alpha  occ. eigenvalues --   -0.63450  -0.61390  -0.59258  -0.57775  -0.53138
 Alpha  occ. eigenvalues --   -0.48880  -0.46714  -0.44771  -0.41742  -0.38529
 Alpha  occ. eigenvalues --   -0.37787  -0.37484  -0.34016  -0.32821  -0.32250
 Alpha  occ. eigenvalues --   -0.30996  -0.30561  -0.29425  -0.29031  -0.28613
 Alpha  occ. eigenvalues --   -0.27347  -0.26510  -0.25660  -0.24485  -0.23886
 Alpha  occ. eigenvalues --   -0.22350  -0.21732  -0.20884  -0.19358  -0.16630
 Alpha  occ. eigenvalues --   -0.13871  -0.09241  -0.08536  -0.07367   0.04542
 Alpha virt. eigenvalues --    0.06995   0.08484   0.09192   0.09889   0.10239
 Alpha virt. eigenvalues --    0.11395   0.11812   0.12135   0.13108   0.13492
 Alpha virt. eigenvalues --    0.13796   0.14156   0.14376   0.14672   0.15043

  Beta  occ. eigenvalues --  -19.02373 -18.91030 -14.20852 -10.12353 -10.08288
  Beta  occ. eigenvalues --  -10.07149 -10.06484 -10.06267 -10.04033 -10.03614
  Beta  occ. eigenvalues --  -10.03557 -10.03111 -10.02795 -10.02422  -9.99958
  Beta  occ. eigenvalues --   -0.93617  -0.84967  -0.83212  -0.70380  -0.66555
  Beta  occ. eigenvalues --   -0.63168  -0.60982  -0.58994  -0.57575  -0.53033
  Beta  occ. eigenvalues --   -0.48398  -0.46504  -0.44527  -0.41544  -0.38272
  Beta  occ. eigenvalues --   -0.37465  -0.37406  -0.33929  -0.32693  -0.31955
  Beta  occ. eigenvalues --   -0.30863  -0.29911  -0.29368  -0.28849  -0.28486
  Beta  occ. eigenvalues --   -0.27099  -0.26318  -0.25457  -0.24361  -0.23362
  Beta  occ. eigenvalues --   -0.22211  -0.21479  -0.19624  -0.17517  -0.16556
  Beta  occ. eigenvalues --   -0.12918  -0.08528  -0.07978  -0.05768
  Beta virt. eigenvalues --    0.06938   0.08414   0.09139   0.09691   0.10196
  Beta virt. eigenvalues --    0.10752   0.11376   0.11899   0.12098   0.13100
  Beta virt. eigenvalues --    0.13481   0.14137   0.14321   0.14582   0.14917

 Mulliken charges and spin densities:
               1          2
     1  C   -0.597739  -0.002705
     2  C   -0.023785  -0.033367
     3  O   -0.143951  -0.004234
     4  C   -0.770480   0.067834
     5  C    0.167325   0.146646
     6  C   -0.170392  -0.048678
     7  C   -0.284366   0.169859
     8  C    0.799453  -0.050981
     9  C   -0.787655  -0.045227
    10  N   -0.011617   0.063088
    11  C   -0.100133   0.037536
    12  C    0.620618   0.204717
    13  C   -0.435988   0.251024
    14  O   -0.446097   0.213709
    15  C   -0.605420  -0.030388
    16  H    0.144379   0.003137
    17  H    0.107066  -0.001570
    18  H    0.171976   0.001107
    19  H    0.101169   0.030659
    20  H    0.124086   0.001825
    21  H    0.117700  -0.003360
    22  H    0.117062   0.001997
    23  H    0.101027  -0.011269
    24  H    0.297240   0.007538
    25  H    0.155043  -0.012494
    26  H    0.095111   0.035605
    27  H    0.111803   0.009388
    28  H    0.146568  -0.001393
 Sum of Mulliken charges =  -1.00000   1.00000

 Dipole moment (field-independent basis, Debye):
    X=              7.1906    Y=             -4.0968    Z=              0.4414  Tot=              8.2875
 Quadrupole moment (field-independent basis, Debye-Ang):
   XX=           -148.6374   YY=            -99.7516   ZZ=           -100.6039
   XY=              0.9061   XZ=              7.2636   YZ=             -1.1113

 Summary of Natural Population Analysis:

                                       Natural Population
                Natural  -----------------------------------------------
    Atom  No    Charge         Core      Valence    Rydberg      Total
 -----------------------------------------------------------------------
      C    1   -0.30238      0.99967     2.29855    0.00417     3.30238
      C    2   -0.00652      0.99959     1.99704    0.00989     3.00652
      O    3   -0.29847      0.99987     3.28765    0.01095     4.29847
      C    4    0.14331      0.99930     1.84377    0.01362     2.85669
      C    5   -0.11276      0.99953     2.10369    0.00953     3.11276
      C    6   -0.13232      0.99959     2.12329    0.00943     3.13232
      C    7   -0.06664      0.99954     2.05835    0.00876     3.06664
      C    8   -0.05352      0.99952     2.04538    0.00862     3.05352
      C    9    0.05833      0.99944     1.93179    0.01044     2.94167
      N   10   -0.26143      0.99964     2.75407    0.00773     3.76143
      C   11    0.06945      0.99950     1.91889    0.01216     2.93055
      C   12   -0.08643      0.99949     2.07820    0.00874     3.08643
      C   13    0.29158      0.99963     1.68879    0.02000     2.70842
      O   14   -0.24187      0.99988     3.23506    0.00693     4.24187
      C   15   -0.33271      0.99965     2.32894    0.00412     3.33271
      H   16    0.09633      0.00000     0.40260    0.00107     0.40367
      H   17    0.09431      0.00000     0.40481    0.00088     0.40569
      H   18    0.10774      0.00000     0.39124    0.00102     0.39226
      H   19    0.07996      0.00000     0.41812    0.00192     0.42004
      H   20    0.08256      0.00000     0.41609    0.00135     0.41744
      H   21    0.09359      0.00000     0.40507    0.00134     0.40641
      H   22    0.09002      0.00000     0.40888    0.00110     0.40998
      H   23    0.09040      0.00000     0.40805    0.00155     0.40960
      H   24    0.19669      0.00000     0.30171    0.00161     0.30331
      H   25    0.10465      0.00000     0.39434    0.00101     0.39535
      H   26    0.09549      0.00000     0.40097    0.00354     0.40451
      H   27    0.09724      0.00000     0.40166    0.00110     0.40276
      H   28    0.10339      0.00000     0.39519    0.00142     0.39661
 =======================================================================
   * Total *   -0.00000     14.99383    38.84220    0.16397    54.00000

 Normal termination of Gaussian 16 at Thu Dec 10 18:03:35 2020.
