 Gaussian 16, Revision A.03,

 -----------------------------------------------------------
 # opt freq B3LYP/6-31G(d) empiricaldispersion=gd3bj scf=xqc
 -----------------------------------------------------------

 ------------------------------
 CID_22372108_JID_4554_neutraal
 ------------------------------
 Symbolic Z-matrix:
 Charge =  0 Multiplicity = 1

 SCF Done:  E(RB3LYP) =  -646.820201678     A.U. after   14 cycles
 SCF Done:  E(RB3LYP) =  -646.825354392     A.U. after   12 cycles
 SCF Done:  E(RB3LYP) =  -646.825307998     A.U. after   13 cycles
 SCF Done:  E(RB3LYP) =  -646.825936472     A.U. after   12 cycles
 SCF Done:  E(RB3LYP) =  -646.826645695     A.U. after   12 cycles
 SCF Done:  E(RB3LYP) =  -646.827281295     A.U. after   12 cycles
 SCF Done:  E(RB3LYP) =  -646.827153817     A.U. after   13 cycles
 SCF Done:  E(RB3LYP) =  -646.827648950     A.U. after   12 cycles
 SCF Done:  E(RB3LYP) =  -646.827611968     A.U. after   12 cycles
 SCF Done:  E(RB3LYP) =  -646.827981621     A.U. after   12 cycles
 SCF Done:  E(RB3LYP) =  -646.828071445     A.U. after    8 cycles
 SCF Done:  E(RB3LYP) =  -646.828072435     A.U. after    9 cycles
 SCF Done:  E(RB3LYP) =  -646.828072495     A.U. after    7 cycles
 SCF Done:  E(RB3LYP) =  -646.828072525     A.U. after    7 cycles
 SCF Done:  E(RB3LYP) =  -646.828072527     A.U. after    6 cycles
 Optimization completed.
    -- Stationary point found.
 Normal termination of Gaussian 16 at Thu Dec 10 10:16:53 2020.

 --------------------------------------------------------------------
 #N Geom=AllCheck Guess=TCheck SCRF=Check GenChk RB3LYP/6-31G(d) Freq
 --------------------------------------------------------------------

 Structure from the checkpoint file:  "JID_4554.chk"
 ------------------------------
 CID_22372108_JID_4554_neutraal
 ------------------------------
 Charge =  0 Multiplicity = 1

 SCF Done:  E(RB3LYP) =  -646.828072527     A.U. after    1 cycles

  Exact polarizability: 128.210  16.119 107.376   4.518  -2.324 122.186
 Approx polarizability: 189.711  33.654 152.703  10.572 -10.610 198.269

                      1                      2                      3
                      A                      A                      A
 Frequencies --     23.3065                47.3965                67.5777
 Red. masses --      3.0713                 4.2847                 2.0564
 Frc consts  --      0.0010                 0.0057                 0.0055
 IR Inten    --      0.5369                 0.1840                 2.5115

                      4                      5                      6
                      A                      A                      A
 Frequencies --     81.7465               111.8128               144.7771
 Red. masses --      3.7025                 2.3879                 1.9492
 Frc consts  --      0.0146                 0.0176                 0.0241
 IR Inten    --      0.6377                 0.1669                 0.5667

                      7                      8                      9
                      A                      A                      A
 Frequencies --    165.4395               190.2768               203.0532
 Red. masses --      3.1610                 1.9076                 1.5845
 Frc consts  --      0.0510                 0.0407                 0.0385
 IR Inten    --      1.1204                 1.3446                 2.6305

                     10                     11                     12
                      A                      A                      A
 Frequencies --    226.6002               232.0638               264.1305
 Red. masses --      1.7816                 1.4428                 2.5515
 Frc consts  --      0.0539                 0.0458                 0.1049
 IR Inten    --      0.9760                 1.6627                 1.4579

                     13                     14                     15
                      A                      A                      A
 Frequencies --    301.7395               317.2020               350.3472
 Red. masses --      2.6451                 2.7591                 3.0853
 Frc consts  --      0.1419                 0.1636                 0.2231
 IR Inten    --      6.7011                 4.3910                 1.4697

                     16                     17                     18
                      A                      A                      A
 Frequencies --    383.2402               411.6565               499.1111
 Red. masses --      3.5470                 2.5138                 3.5622
 Frc consts  --      0.3069                 0.2510                 0.5228
 IR Inten    --      0.2204                 4.4437                 1.9127

                     19                     20                     21
                      A                      A                      A
 Frequencies --    526.9108               544.1272               575.2258
 Red. masses --      5.0977                 2.8439                 5.2269
 Frc consts  --      0.8339                 0.4961                 1.0190
 IR Inten    --      8.9258                 8.5599                 1.1852

                     22                     23                     24
                      A                      A                      A
 Frequencies --    627.3294               653.7606               722.5146
 Red. masses --      3.3450                 5.8169                 3.9227
 Frc consts  --      0.7756                 1.4648                 1.2065
 IR Inten    --     12.9181                17.8506                25.3417

                     25                     26                     27
                      A                      A                      A
 Frequencies --    790.1447               818.5236               850.3641
 Red. masses --      1.6362                 3.7669                 4.0727
 Frc consts  --      0.6019                 1.4870                 1.7352
 IR Inten    --     88.2889                16.4938                17.3585

                     28                     29                     30
                      A                      A                      A
 Frequencies --    867.0022               908.7800               942.7554
 Red. masses --      2.4026                 2.6994                 1.4832
 Frc consts  --      1.0641                 1.3135                 0.7767
 IR Inten    --     17.7403                50.2557                 4.0509

                     31                     32                     33
                      A                      A                      A
 Frequencies --    988.2619              1006.9540              1020.7741
 Red. masses --      1.4721                 2.4285                 1.8593
 Frc consts  --      0.8471                 1.4508                 1.1414
 IR Inten    --      0.3241                14.3493                11.2266

                     34                     35                     36
                      A                      A                      A
 Frequencies --   1038.0395              1068.7703              1112.2448
 Red. masses --      8.3257                 2.0567                 3.0715
 Frc consts  --      5.2856                 1.3842                 2.2387
 IR Inten    --     51.8031                 5.7401                55.7845

                     37                     38                     39
                      A                      A                      A
 Frequencies --   1152.5269              1168.2544              1178.5077
 Red. masses --      1.4340                 1.4635                 2.5734
 Frc consts  --      1.1223                 1.1768                 2.1059
 IR Inten    --      2.5426                10.7236                12.0157

                     40                     41                     42
                      A                      A                      A
 Frequencies --   1184.2999              1188.2328              1199.2951
 Red. masses --      1.2591                 2.1804                 2.2435
 Frc consts  --      1.0405                 1.8138                 1.9012
 IR Inten    --      6.1382                27.2580                 6.8284

                     43                     44                     45
                      A                      A                      A
 Frequencies --   1210.1740              1222.2446              1235.3599
 Red. masses --      2.1971                 1.9475                 2.9327
 Frc consts  --      1.8958                 1.7142                 2.6370
 IR Inten    --     17.0338                18.5701                35.2340

                     46                     47                     48
                      A                      A                      A
 Frequencies --   1259.7482              1300.3043              1322.0749
 Red. masses --      2.9726                 1.8274                 1.9424
 Frc consts  --      2.7794                 1.8205                 2.0003
 IR Inten    --     13.7103                 4.8464                79.2794

                     49                     50                     51
                      A                      A                      A
 Frequencies --   1332.7947              1362.1362              1413.8380
 Red. masses --      1.7638                 1.3351                 1.3195
 Frc consts  --      1.8460                 1.4595                 1.5541
 IR Inten    --     17.0098                 9.9057                23.8900

                     52                     53                     54
                      A                      A                      A
 Frequencies --   1417.2727              1439.2750              1468.1389
 Red. masses --      1.3158                 2.0467                 1.3855
 Frc consts  --      1.5572                 2.4980                 1.7595
 IR Inten    --     18.5540               118.3351                27.6293

                     55                     56                     57
                      A                      A                      A
 Frequencies --   1481.2527              1486.9965              1491.1430
 Red. masses --      1.1445                 1.4796                 1.3371
 Frc consts  --      1.4795                 1.9276                 1.7517
 IR Inten    --      2.6045                75.2858                 8.7622

                     58                     59                     60
                      A                      A                      A
 Frequencies --   1498.8142              1509.7100              1516.2392
 Red. masses --      1.1587                 1.0866                 1.0492
 Frc consts  --      1.5336                 1.4592                 1.4211
 IR Inten    --      2.8126                 5.3153                 5.4073

                     61                     62                     63
                      A                      A                      A
 Frequencies --   1516.8587              1529.8070              1537.3659
 Red. masses --      1.1389                 1.0876                 1.1164
 Frc consts  --      1.5439                 1.4997                 1.5546
 IR Inten    --      1.9000                 5.8921                 5.8752

                     64                     65                     66
                      A                      A                      A
 Frequencies --   1543.2778              1549.7487              1559.3257
 Red. masses --      1.1149                 1.0509                 1.0914
 Frc consts  --      1.5645                 1.4870                 1.5635
 IR Inten    --     18.2444                 8.3753                 4.7668

                     67                     68                     69
                      A                      A                      A
 Frequencies --   1600.5933              1620.2599              2973.7335
 Red. masses --      8.2148                 5.3975                 1.0575
 Frc consts  --     12.3997                 8.3486                 5.5099
 IR Inten    --     91.6825                31.7647                59.0887

                     70                     71                     72
                      A                      A                      A
 Frequencies --   3012.7355              3020.0225              3031.8463
 Red. masses --      1.0661                 1.0655                 1.0407
 Frc consts  --      5.7012                 5.7258                 5.6364
 IR Inten    --     23.9277                55.6187                53.5050

                     73                     74                     75
                      A                      A                      A
 Frequencies --   3052.0052              3062.7664              3078.1371
 Red. masses --      1.0388                 1.0776                 1.0955
 Frc consts  --      5.7010                 5.9557                 6.1156
 IR Inten    --     63.4637                56.9337                27.9233

                     76                     77                     78
                      A                      A                      A
 Frequencies --   3088.9336              3103.6584              3114.5099
 Red. masses --      1.0977                 1.0959                 1.1006
 Frc consts  --      6.1709                 6.2199                 6.2902
 IR Inten    --     45.6970                27.9492                25.0312

                     79                     80                     81
                      A                      A                      A
 Frequencies --   3132.8827              3141.9065              3178.8889
 Red. masses --      1.1045                 1.0949                 1.1082
 Frc consts  --      6.3869                 6.3681                 6.5983
 IR Inten    --     28.9649                28.6630                 7.0788

                     82                     83                     84
                      A                      A                      A
 Frequencies --   3186.7037              3195.4584              3550.8188
 Red. masses --      1.0907                 1.0920                 1.0746
 Frc consts  --      6.5257                 6.5696                 7.9828
 IR Inten    --     18.2349                22.6782                34.7106

 - Thermochemistry -
 -------------------
 Temperature   298.150 Kelvin.  Pressure   1.00000 Atm.
 Atom     1 has atomic number  6 and mass  12.00000

 Molecular mass:   196.13241 amu.
 Principal axes and moments of inertia in atomic units:
                           1         2         3
     Eigenvalues --  2244.184592930.018683015.22411
           X            0.99961   0.00432  -0.02770
           Y            0.00160   0.97772   0.20989
           Z            0.02799  -0.20986   0.97733
 This molecule is an asymmetric top.
 Rotational symmetry number  1.
 Warning -- assumption of classical behavior for rotation
           may cause significant error
 Rotational temperatures (Kelvin)      0.03859     0.02956     0.02873
 Rotational constants (GHZ):           0.80419     0.61595     0.59854
 Zero-point vibrational energy     678909.7 (Joules/Mol)
                                  162.26331 (Kcal/Mol)
 Warning -- explicit consideration of  21 degrees of freedom as
           vibrations may cause significant error
 Vibrational temperatures:     33.53    68.19    97.23   117.61   160.87
          (Kelvin)            208.30   238.03   273.77   292.15   326.03
                              333.89   380.02   434.14   456.38   504.07
                              551.40   592.28   718.11   758.11   782.88
                              827.62   902.59   940.62  1039.54  1136.84
                             1177.67  1223.48  1247.42  1307.53  1356.41
                             1421.89  1448.78  1468.67  1493.51  1537.72
                             1600.27  1658.23  1680.86  1695.61  1703.94
                             1709.60  1725.52  1741.17  1758.54  1777.41
                             1812.50  1870.85  1902.17  1917.59  1959.81
                             2034.20  2039.14  2070.80  2112.32  2131.19
                             2139.46  2145.42  2156.46  2172.14  2181.53
                             2182.42  2201.05  2211.93  2220.43  2229.74
                             2243.52  2302.90  2331.19  4278.54  4334.65
                             4345.14  4362.15  4391.15  4406.64  4428.75
                             4444.29  4465.47  4481.09  4507.52  4520.50
                             4573.71  4584.96  4597.55  5108.84

 Zero-point correction=                           0.258583 (Hartree/Particle)
 Thermal correction to Energy=                    0.273178
 Thermal correction to Enthalpy=                  0.274122
 Thermal correction to Gibbs Free Energy=         0.216153
 Sum of electronic and zero-point Energies=           -646.569489
 Sum of electronic and thermal Energies=              -646.554894
 Sum of electronic and thermal Enthalpies=            -646.553950
 Sum of electronic and thermal Free Energies=         -646.611920

                     E (Thermal)             CV                S
                      KCal/Mol        Cal/Mol-Kelvin    Cal/Mol-Kelvin
 Total                  171.422             53.098            122.007
 Electronic               0.000              0.000              0.000
 Translational            0.889              2.981             41.726
 Rotational               0.889              2.981             31.361
 Vibrational            169.644             47.136             48.920
 Vibration     1          0.593              1.985              6.330
 Vibration     2          0.595              1.979              4.923
 Vibration     3          0.598              1.970              4.223
 Vibration     4          0.600              1.962              3.848
 Vibration     5          0.607              1.940              3.237
 Vibration     6          0.616              1.908              2.740
 Vibration     7          0.624              1.885              2.487
 Vibration     8          0.634              1.853              2.225
 Vibration     9          0.639              1.836              2.105
 Vibration    10          0.650              1.800              1.906
 Vibration    11          0.653              1.792              1.863
 Vibration    12          0.671              1.739              1.634
 Vibration    13          0.694              1.670              1.407
 Vibration    14          0.704              1.641              1.324
 Vibration    15          0.727              1.575              1.165
 Vibration    16          0.752              1.506              1.026
 Vibration    17          0.776              1.445              0.921
 Vibration    18          0.855              1.252              0.660
 Vibration    19          0.882              1.190              0.594
 Vibration    20          0.899              1.153              0.556
 Vibration    21          0.932              1.085              0.494

                           ! Non-Optimized Parameters !
 Normal termination of Gaussian 16 at Thu Dec 10 10:26:48 2020.

 ----------------------------------------------------------------------
 # B3LYP/6-311++G(d,p) empiricaldispersion=gd3bj scf=xqc pop=npa geom=c
 heck
 ----------------------------------------------------------------------

 --------------------------------------
 CID_22372108_JID_4554_Energie_neutraal
 --------------------------------------
 Structure from the checkpoint file:  "JID_4554.chk"
 Charge =  0 Multiplicity = 1

 SCF Done:  E(RB3LYP) =  -647.007813536     A.U. after   14 cycles
 Normal termination of Gaussian 16 at Thu Dec 10 10:30:31 2020.

 ----------------------------------------------------------------------
 # B3LYP/6-311++G(d,p) empiricaldispersion=gd3bj scf=xqc pop=npa geom=c
 heck
 ----------------------------------------------------------------------

 ------------------------------------
 CID_22372108_JID_4554_Energie_kation
 ------------------------------------
 Structure from the checkpoint file:  "JID_4554.chk"
 Charge =  1 Multiplicity = 2

 SCF Done:  E(UB3LYP) =  -646.717872648     A.U. after   25 cycles
 Normal termination of Gaussian 16 at Thu Dec 10 10:39:04 2020.
 Gaussian 16:  ES64L-G16RevA.03 25-Dec-2016

 ----------------------------------------------------------------------
 # B3LYP/6-311++G(d,p) empiricaldispersion=gd3bj scf=xqc pop=npa geom=c
 heck
 ----------------------------------------------------------------------

 -----------------------------------
 CID_22372108_JID_4554_Energie_anion
 -----------------------------------
 Structure from the checkpoint file:  "JID_4554.chk"
 Charge = -1 Multiplicity = 2

                         Standard orientation:
 ---------------------------------------------------------------------
 Center     Atomic      Atomic             Coordinates (Angstroms)
 Number     Number       Type             X           Y           Z
 ---------------------------------------------------------------------
      1          6           0        1.146837   -2.498495   -0.623984
      2          7           0        1.798797   -1.671078    0.378262
      3          6           0        2.549910   -0.535740   -0.129235
      4          6           0        1.842701    0.491117   -1.030223
      5          7           0        0.762245    1.252452   -0.359244
      6          6           0        0.593271    2.585478   -0.959473
      7          6           0       -0.477485    0.542252   -0.344154
      8          7           0       -1.182341    0.467389   -1.480887
      9          6           0       -2.330265   -0.209975   -1.465887
     10          7           0       -2.867090   -0.845159   -0.419131
     11          6           0       -2.173684   -0.760046    0.718340
     12          6           0       -0.966563   -0.063861    0.825679
     13          8           0       -0.322744   -0.109448    2.029742
     14          6           0        0.095758    1.139270    2.604572
     15          1           0        1.904911   -2.907738   -1.303874
     16          1           0        0.388819   -1.987482   -1.243516
     17          1           0        0.656857   -3.342563   -0.127776
     18          1           0        1.147231   -1.372951    1.097230
     19          1           0        2.966692   -0.002963    0.733837
     20          1           0        3.401743   -0.923758   -0.708334
     21          1           0        2.597322    1.224309   -1.335678
     22          1           0        1.466574    0.022922   -1.952756
     23          1           0        0.346023    2.548082   -2.029290
     24          1           0       -0.210156    3.115308   -0.438568
     25          1           0        1.521824    3.147538   -0.821766
     26          1           0       -2.881838   -0.256687   -2.402014
     27          1           0       -2.572039   -1.262007    1.597876
     28          1           0        0.861314    1.610856    1.986934
     29          1           0       -0.765777    1.809340    2.711675
     30          1           0        0.488287    0.888153    3.591263
 ---------------------------------------------------------------------

 SCF Done:  E(UB3LYP) =  -647.003820076     A.U. after   33 cycles
 SCF Done:  E(UB3LYP) =  -647.003820076     a.u. after    1 cycles

 The electronic state is 2-A.
 Alpha  occ. eigenvalues --  -19.02595 -14.18610 -14.17293 -14.15880 -14.15513
 Alpha  occ. eigenvalues --  -10.09732 -10.09576 -10.08978 -10.07807 -10.07460
 Alpha  occ. eigenvalues --  -10.07166 -10.07013 -10.06921 -10.05545  -0.93905
 Alpha  occ. eigenvalues --   -0.84328  -0.80193  -0.77831  -0.72769  -0.64693
 Alpha  occ. eigenvalues --   -0.62178  -0.58033  -0.56283  -0.54648  -0.50128
 Alpha  occ. eigenvalues --   -0.49194  -0.46066  -0.40111  -0.38860  -0.38458
 Alpha  occ. eigenvalues --   -0.37648  -0.35566  -0.34070  -0.33190  -0.31977
 Alpha  occ. eigenvalues --   -0.31764  -0.30843  -0.29582  -0.28619  -0.27139
 Alpha  occ. eigenvalues --   -0.26908  -0.25845  -0.25116  -0.24166  -0.23807
 Alpha  occ. eigenvalues --   -0.23060  -0.18986  -0.17201  -0.16517  -0.12416
 Alpha  occ. eigenvalues --   -0.11175  -0.10615  -0.09614   0.05210
 Alpha virt. eigenvalues --    0.07346   0.08117   0.09101   0.09476   0.10675
 Alpha virt. eigenvalues --    0.10919   0.11057   0.11418   0.11528   0.11962
 Alpha virt. eigenvalues --    0.13230   0.13520   0.14019   0.14544   0.14843

  Beta  occ. eigenvalues --  -19.02604 -14.18649 -14.17289 -14.15643 -14.15172
  Beta  occ. eigenvalues --  -10.09706 -10.09695 -10.09040 -10.07446 -10.07353
  Beta  occ. eigenvalues --  -10.07117 -10.07012 -10.06885 -10.05274  -0.93917
  Beta  occ. eigenvalues --   -0.83868  -0.79953  -0.77761  -0.72195  -0.64441
  Beta  occ. eigenvalues --   -0.62118  -0.57830  -0.56208  -0.54384  -0.49871
  Beta  occ. eigenvalues --   -0.49042  -0.45841  -0.39999  -0.38740  -0.38338
  Beta  occ. eigenvalues --   -0.37553  -0.35326  -0.34055  -0.33086  -0.31863
  Beta  occ. eigenvalues --   -0.31706  -0.30754  -0.29425  -0.28390  -0.26827
  Beta  occ. eigenvalues --   -0.26579  -0.25650  -0.25056  -0.23892  -0.23745
  Beta  occ. eigenvalues --   -0.23003  -0.18842  -0.16138  -0.15097  -0.11883
  Beta  occ. eigenvalues --   -0.10821  -0.10245  -0.09579
  Beta virt. eigenvalues --    0.07633   0.08535   0.09077   0.09562   0.10700
  Beta virt. eigenvalues --    0.10796   0.11108   0.11291   0.11546   0.12033
  Beta virt. eigenvalues --    0.12081   0.13283   0.13658   0.14163   0.14456

 Mulliken charges and spin densities:
               1          2
     1  C   -0.404937  -0.041497
     2  N   -0.191517   0.034677
     3  C   -0.177009  -0.385886
     4  C    0.069163  -0.114941
     5  N    0.396626   0.002137
     6  C   -0.011874  -0.203678
     7  C   -1.043614   0.245112
     8  N    0.006370   0.141131
     9  C   -0.043314  -0.045795
    10  N   -0.164539   0.142551
    11  C   -0.506979   0.324789
    12  C   -0.014336  -0.076971
    13  O   -0.202579   0.043985
    14  C    0.582280  -0.771930
    15  H    0.099961   0.022713
    16  H    0.155559   0.001047
    17  H    0.142044  -0.003425
    18  H    0.333607  -0.010115
    19  H   -0.010171   0.177064
    20  H   -0.031702   0.162610
    21  H   -0.276212   0.418952
    22  H    0.219224  -0.079510
    23  H    0.114499   0.033822
    24  H    0.123742   0.016989
    25  H   -0.034096   0.149046
    26  H    0.122421   0.010558
    27  H    0.119210   0.006842
    28  H   -0.097860   0.254830
    29  H   -0.172140   0.299546
    30  H   -0.101829   0.245349
 Sum of Mulliken charges =  -1.00000   1.00000

 Dipole moment (field-independent basis, Debye):
    X=              1.2825    Y=             -0.4496    Z=             -1.3500  Tot=              1.9156
 Quadrupole moment (field-independent basis, Debye-Ang):
   XX=           -130.2271   YY=           -108.6998   ZZ=           -112.3896
   XY=             -4.0820   XZ=             -2.6499   YZ=             -1.3434

 Summary of Natural Population Analysis:

                                       Natural Population
                Natural  -----------------------------------------------
    Atom  No    Charge         Core      Valence    Rydberg      Total
 -----------------------------------------------------------------------
      C    1   -0.18037      0.99966     2.17392    0.00679     3.18037
      N    2   -0.35027      0.99975     2.83812    0.01240     3.85027
      C    3   -0.09070      0.99962     2.07652    0.01456     3.09070
      C    4   -0.08445      0.99959     2.07416    0.01070     3.08445
      N    5   -0.30375      0.99970     2.78943    0.01462     3.80375
      C    6   -0.16818      0.99964     2.16070    0.00784     3.16818
      C    7    0.25166      0.99944     1.73219    0.01671     2.74834
      N    8   -0.23669      0.99966     2.72653    0.01049     3.73669
      C    9    0.11606      0.99967     1.86618    0.01809     2.88394
      N   10   -0.21477      0.99971     2.70340    0.01165     3.71477
      C   11    0.06580      0.99955     1.91825    0.01640     2.93420
      C   12    0.08937      0.99929     1.89704    0.01430     2.91063
      O   13   -0.29476      0.99986     3.28425    0.01065     4.29476
      C   14   -0.09965      0.99958     2.09086    0.00920     3.09965
      H   15    0.08292      0.00000     0.41612    0.00096     0.41708
      H   16    0.08751      0.00000     0.41105    0.00143     0.41249
      H   17    0.09201      0.00000     0.40720    0.00079     0.40799
      H   18    0.18781      0.00000     0.30897    0.00322     0.31219
      H   19    0.09461      0.00000     0.40389    0.00150     0.40539
      H   20    0.08363      0.00000     0.41538    0.00099     0.41637
      H   21    0.09308      0.00000     0.40509    0.00183     0.40692
      H   22    0.08800      0.00000     0.41065    0.00135     0.41200
      H   23    0.09002      0.00000     0.40872    0.00126     0.40998
      H   24    0.09417      0.00000     0.40505    0.00078     0.40583
      H   25    0.08755      0.00000     0.41155    0.00090     0.41245
      H   26    0.07345      0.00000     0.42536    0.00119     0.42655
      H   27    0.08341      0.00000     0.41476    0.00182     0.41659
      H   28    0.09720      0.00000     0.40073    0.00206     0.40280
      H   29    0.08077      0.00000     0.41750    0.00173     0.41923
      H   30    0.08454      0.00000     0.41432    0.00114     0.41546
 =======================================================================
   * Total *   -0.00000     13.99475    38.80790    0.19735    53.00000

 Normal termination of Gaussian 16 at Thu Dec 10 10:52:00 2020.
