 Gaussian 16, Revision A.03,

 -----------------------------------------------------------
 # opt freq B3LYP/6-31G(d) empiricaldispersion=gd3bj scf=xqc
 -----------------------------------------------------------

 -----------------------------
 CID_13333790_JID_343_neutraal
 -----------------------------
 Symbolic Z-matrix:
 Charge =  0 Multiplicity = 1

 SCF Done:  E(RB3LYP) =  -442.670028831     A.U. after   15 cycles
 SCF Done:  E(RB3LYP) =  -442.678244026     A.U. after   12 cycles
 SCF Done:  E(RB3LYP) =  -442.678688747     A.U. after   11 cycles
 SCF Done:  E(RB3LYP) =  -442.678744847     A.U. after   10 cycles
 SCF Done:  E(RB3LYP) =  -442.678750302     A.U. after    9 cycles
 SCF Done:  E(RB3LYP) =  -442.678751147     A.U. after    8 cycles
 SCF Done:  E(RB3LYP) =  -442.678751447     A.U. after    7 cycles
 SCF Done:  E(RB3LYP) =  -442.678751576     A.U. after    7 cycles
 SCF Done:  E(RB3LYP) =  -442.678751640     A.U. after    7 cycles
 Optimization completed.
    -- Stationary point found.
 Normal termination of Gaussian 16 at Tue Dec  8 10:24:30 2020.

 --------------------------------------------------------------------
 #N Geom=AllCheck Guess=TCheck SCRF=Check GenChk RB3LYP/6-31G(d) Freq
 --------------------------------------------------------------------

 Structure from the checkpoint file:  "JID_343.chk"
 -----------------------------
 CID_13333790_JID_343_neutraal
 -----------------------------
 Charge =  0 Multiplicity = 1

 SCF Done:  E(RB3LYP) =  -442.678751640     A.U. after    1 cycles

  Exact polarizability: 118.985   6.782  90.685  -5.853  -2.906  67.898
 Approx polarizability: 171.294  27.088 144.558 -15.978 -11.045  96.345

                      1                      2                      3
                      A                      A                      A
 Frequencies --     55.8393                80.0666               132.8088
 Red. masses --      2.5026                 3.3185                 3.3722
 Frc consts  --      0.0046                 0.0125                 0.0350
 IR Inten    --      0.0925                 0.6963                 0.0275

                      4                      5                      6
                      A                      A                      A
 Frequencies --    197.0532               223.2672               226.4849
 Red. masses --      1.3465                 2.5712                 1.0829
 Frc consts  --      0.0308                 0.0755                 0.0327
 IR Inten    --      0.1741                 1.2617                 0.1037

                      7                      8                      9
                      A                      A                      A
 Frequencies --    252.4950               260.7854               294.6800
 Red. masses --      1.2256                 1.8097                 2.4936
 Frc consts  --      0.0460                 0.0725                 0.1276
 IR Inten    --      1.2584                 0.9266                 6.1258

                     10                     11                     12
                      A                      A                      A
 Frequencies --    323.4964               345.1777               455.2356
 Red. masses --      2.3822                 2.5128                 4.1215
 Frc consts  --      0.1469                 0.1764                 0.5032
 IR Inten    --      1.1684                 2.3860                13.6773

                     13                     14                     15
                      A                      A                      A
 Frequencies --    521.1082               574.0284               609.4621
 Red. masses --      2.7285                 4.1019                 4.5840
 Frc consts  --      0.4366                 0.7963                 1.0032
 IR Inten    --     16.6803                 2.8140                 0.0944

                     16                     17                     18
                      A                      A                      A
 Frequencies --    671.2703               721.7109               733.5656
 Red. masses --      4.0869                 2.7672                 3.4521
 Frc consts  --      1.0850                 0.8492                 1.0945
 IR Inten    --      2.0800                 2.8641                 0.7582

                     19                     20                     21
                      A                      A                      A
 Frequencies --    797.4067               811.2009               872.1476
 Red. masses --      1.2751                 1.4312                 1.2200
 Frc consts  --      0.4777                 0.5549                 0.5467
 IR Inten    --     13.3098                40.5925                16.2991

                     22                     23                     24
                      A                      A                      A
 Frequencies --    881.7858               939.7393               957.0835
 Red. masses --      2.6458                 3.4433                 1.4398
 Frc consts  --      1.2121                 1.7916                 0.7771
 IR Inten    --     13.7500                16.5087                 0.5396

                     25                     26                     27
                      A                      A                      A
 Frequencies --    976.0217              1012.9950              1035.5744
 Red. masses --      2.1014                 2.8944                 1.3124
 Frc consts  --      1.1795                 1.7499                 0.8292
 IR Inten    --     11.4864                38.5714                 0.7765

                     28                     29                     30
                      A                      A                      A
 Frequencies --   1085.6215              1094.5738              1107.7104
 Red. masses --      1.7821                 1.7314                 1.5763
 Frc consts  --      1.2375                 1.2222                 1.1396
 IR Inten    --     25.4351                83.6900                12.9830

                     31                     32                     33
                      A                      A                      A
 Frequencies --   1182.0091              1193.5374              1233.5299
 Red. masses --      2.2851                 1.7658                 3.7588
 Frc consts  --      1.8810                 1.4821                 3.3698
 IR Inten    --     70.8148                18.3747                10.0217

                     34                     35                     36
                      A                      A                      A
 Frequencies --   1268.1802              1285.4622              1349.3857
 Red. masses --      2.2031                 1.4503                 1.9161
 Frc consts  --      2.0876                 1.4120                 2.0556
 IR Inten    --      7.4089                15.6090                13.0832

                     37                     38                     39
                      A                      A                      A
 Frequencies --   1370.9721              1416.9473              1425.9255
 Red. masses --      1.5215                 2.4059                 1.2687
 Frc consts  --      1.6849                 2.8460                 1.5199
 IR Inten    --      5.9150                48.8054                 8.1403

                     40                     41                     42
                      A                      A                      A
 Frequencies --   1438.4671              1442.8624              1504.7608
 Red. masses --      1.3582                 1.2856                 1.0761
 Frc consts  --      1.6559                 1.5769                 1.4356
 IR Inten    --     11.5062                16.3348                 2.1813

                     43                     44                     45
                      A                      A                      A
 Frequencies --   1505.4271              1512.2816              1523.0082
 Red. masses --      1.0565                 1.0461                 1.0661
 Frc consts  --      1.4107                 1.4096                 1.4569
 IR Inten    --      4.3735                 0.3336                 6.1308

                     46                     47                     48
                      A                      A                      A
 Frequencies --   1526.4156              1533.3104              1539.0502
 Red. masses --      1.0404                 1.0527                 1.0632
 Frc consts  --      1.4282                 1.4582                 1.4838
 IR Inten    --      6.4093                 7.8805                 4.4789

                     49                     50                     51
                      A                      A                      A
 Frequencies --   1683.1480              1722.7248              3047.0370
 Red. masses --      7.7771                 9.2986                 1.0658
 Frc consts  --     12.9812                16.2592                 5.8303
 IR Inten    --    206.1156               101.7029                17.0020

                     52                     53                     54
                      A                      A                      A
 Frequencies --   3057.7377              3061.8540              3062.2064
 Red. masses --      1.0343                 1.0349                 1.0348
 Frc consts  --      5.6975                 5.7163                 5.7171
 IR Inten    --     12.9123                29.5043                16.3207

                     55                     56                     57
                      A                      A                      A
 Frequencies --   3105.2779              3128.3959              3130.7178
 Red. masses --      1.0972                 1.1028                 1.1036
 Frc consts  --      6.2335                 6.3591                 6.3728
 IR Inten    --      8.4852                 0.6968                32.1473

                     58                     59                     60
                      A                      A                      A
 Frequencies --   3134.0174              3141.4470              3143.0662
 Red. masses --      1.1022                 1.1038                 1.1038
 Frc consts  --      6.3783                 6.4179                 6.4249
 IR Inten    --     26.6989                12.8932                24.5838

                     61                     62                     63
                      A                      A                      A
 Frequencies --   3144.9977              3274.5816              3399.2207
 Red. masses --      1.1028                 1.0968                 1.0743
 Frc consts  --      6.4268                 6.9294                 7.3134
 IR Inten    --     25.7015                 1.1835                 8.5044

 - Thermochemistry -
 -------------------
 Temperature   298.150 Kelvin.  Pressure   1.00000 Atm.
 Atom     1 has atomic number  6 and mass  12.00000

 Molecular mass:   139.09971 amu.
 Principal axes and moments of inertia in atomic units:
                           1         2         3
     Eigenvalues --   803.029191878.080092176.19389
           X            0.99959  -0.02762   0.00772
           Y            0.02739   0.99923   0.02798
           Z           -0.00849  -0.02776   0.99958
 This molecule is an asymmetric top.
 Rotational symmetry number  1.
 Warning -- assumption of classical behavior for rotation
           may cause significant error
 Rotational temperatures (Kelvin)      0.10786     0.04612     0.03980
 Rotational constants (GHZ):           2.24742     0.96095     0.82931
 Zero-point vibrational energy     524791.9 (Joules/Mol)
                                  125.42828 (Kcal/Mol)
 Warning -- explicit consideration of  15 degrees of freedom as
           vibrations may cause significant error
 Vibrational temperatures:     80.34   115.20   191.08   283.52   321.23
          (Kelvin)            325.86   363.28   375.21   423.98   465.44
                              496.63   654.98   749.76   825.90   876.88
                              965.81  1038.38  1055.44  1147.29  1167.14
                             1254.83  1268.69  1352.08  1377.03  1404.28
                             1457.47  1489.96  1561.97  1574.85  1593.75
                             1700.65  1717.23  1774.77  1824.63  1849.49
                             1941.47  1972.52  2038.67  2051.59  2069.63
                             2075.96  2165.02  2165.97  2175.84  2191.27
                             2196.17  2206.09  2214.35  2421.67  2478.62
                             4384.01  4399.40  4405.32  4405.83  4467.80
                             4501.06  4504.40  4509.15  4519.84  4522.17
                             4524.95  4711.39  4890.72

 Zero-point correction=                           0.199883 (Hartree/Particle)
 Thermal correction to Energy=                    0.210562
 Thermal correction to Enthalpy=                  0.211506
 Thermal correction to Gibbs Free Energy=         0.164013
 Sum of electronic and zero-point Energies=           -442.478869
 Sum of electronic and thermal Energies=              -442.468189
 Sum of electronic and thermal Enthalpies=            -442.467245
 Sum of electronic and thermal Free Energies=         -442.514738

                     E (Thermal)             CV                S
                      KCal/Mol        Cal/Mol-Kelvin    Cal/Mol-Kelvin
 Total                  132.130             40.062             99.957
 Electronic               0.000              0.000              0.000
 Translational            0.889              2.981             40.702
 Rotational               0.889              2.981             29.574
 Vibrational            130.352             34.100             29.681
 Vibration     1          0.596              1.975              4.599
 Vibration     2          0.600              1.963              3.889
 Vibration     3          0.613              1.921              2.905
 Vibration     4          0.636              1.844              2.160
 Vibration     5          0.649              1.806              1.932
 Vibration     6          0.650              1.801              1.907
 Vibration     7          0.664              1.759              1.713
 Vibration     8          0.669              1.744              1.657
 Vibration     9          0.689              1.684              1.447
 Vibration    10          0.708              1.628              1.292
 Vibration    11          0.724              1.585              1.188
 Vibration    12          0.814              1.349              0.780
 Vibration    13          0.876              1.203              0.607
 Vibration    14          0.930              1.087              0.497
 Vibration    15          0.968              1.012              0.434

 Optimization completed.
    -- Stationary point found.
 Normal termination of Gaussian 16 at Tue Dec  8 10:28:32 2020.

 ----------------------------------------------------------------------
 # B3LYP/6-311++G(d,p) empiricaldispersion=gd3bj scf=xqc pop=npa geom=c
 heck
 ----------------------------------------------------------------------

 -------------------------------------
 CID_13333790_JID_343_Energie_neutraal
 -------------------------------------
 Structure from the checkpoint file:  "JID_343.chk"
 Charge =  0 Multiplicity = 1

 SCF Done:  E(RB3LYP) =  -442.806242814     A.U. after   14 cycles
 Normal termination of Gaussian 16 at Tue Dec  8 10:30:14 2020.

 ----------------------------------------------------------------------
 # B3LYP/6-311++G(d,p) empiricaldispersion=gd3bj scf=xqc pop=npa geom=c
 heck
 ----------------------------------------------------------------------

 -----------------------------------
 CID_13333790_JID_343_Energie_kation
 -----------------------------------
 Structure from the checkpoint file:  "JID_343.chk"
 Charge =  1 Multiplicity = 2

 SCF Done:  E(UB3LYP) =  -442.503865023     A.U. after   21 cycles
 Normal termination of Gaussian 16 at Tue Dec  8 10:35:27 2020.
 Gaussian 16:  ES64L-G16RevA.03 25-Dec-2016

 ----------------------------------------------------------------------
 # B3LYP/6-311++G(d,p) empiricaldispersion=gd3bj scf=xqc pop=npa geom=c
 heck
 ----------------------------------------------------------------------

 ----------------------------------
 CID_13333790_JID_343_Energie_anion
 ----------------------------------
 Structure from the checkpoint file:  "JID_343.chk"
 Charge = -1 Multiplicity = 2

                         Standard orientation:
 ---------------------------------------------------------------------
 Center     Atomic      Atomic             Coordinates (Angstroms)
 Number     Number       Type             X           Y           Z
 ---------------------------------------------------------------------
      1          6           0       -3.217148   -0.469297   -0.553237
      2          6           0       -2.494836    0.367748    0.516099
      3          6           0       -1.022605    0.429102    0.284783
      4          6           0       -0.212505    1.477155    0.017395
      5          6           0        1.138742    0.979241   -0.150779
      6          7           0        2.184965    1.671580   -0.412614
      7          6           0        1.032361   -0.544457    0.047861
      8          8           0       -0.385348   -0.774327    0.325860
      9          6           0        1.379601   -1.305913   -1.227080
     10          6           0        1.823566   -1.016287    1.262850
     11          1           0       -3.078977   -0.030874   -1.547190
     12          1           0       -4.290635   -0.515382   -0.344396
     13          1           0       -2.823650   -1.489485   -0.573696
     14          1           0       -2.888626    1.388801    0.538185
     15          1           0       -2.674458   -0.073837    1.505458
     16          1           0       -0.508274    2.513410   -0.061050
     17          1           0        3.010014    1.064330   -0.480025
     18          1           0        2.421978   -1.116153   -1.504731
     19          1           0        1.245753   -2.382369   -1.081216
     20          1           0        0.739355   -0.977376   -2.050890
     21          1           0        1.492746   -0.486609    2.160836
     22          1           0        1.689825   -2.091760    1.415746
     23          1           0        2.889910   -0.812883    1.117034
 ---------------------------------------------------------------------

 SCF Done:  E(UB3LYP) =  -442.793286980     A.U. after   32 cycles

 The electronic state is 2-A.
 Alpha  occ. eigenvalues --  -19.04171 -14.16427 -10.13261 -10.12133 -10.09643
 Alpha  occ. eigenvalues --  -10.06884 -10.06471 -10.06197 -10.05147 -10.04354
 Alpha  occ. eigenvalues --   -0.96693  -0.78193  -0.70354  -0.66674  -0.64277
 Alpha  occ. eigenvalues --   -0.59693  -0.55494  -0.49886  -0.46031  -0.43966
 Alpha  occ. eigenvalues --   -0.38282  -0.36145  -0.35142  -0.33804  -0.33285
 Alpha  occ. eigenvalues --   -0.31234  -0.29833  -0.28985  -0.28201  -0.26772
 Alpha  occ. eigenvalues --   -0.26155  -0.25613  -0.24450  -0.23895  -0.22301
 Alpha  occ. eigenvalues --   -0.21558  -0.14150  -0.11175   0.04785
 Alpha virt. eigenvalues --    0.06868   0.08094   0.08724   0.08990   0.09824
 Alpha virt. eigenvalues --    0.10093   0.10670   0.11617   0.12444   0.12591
 Alpha virt. eigenvalues --    0.13544   0.13711   0.14111   0.15912   0.15986

  Beta  occ. eigenvalues --  -19.04136 -14.16316 -10.13266 -10.11990 -10.09583
  Beta  occ. eigenvalues --  -10.06875 -10.06446 -10.06146 -10.05084 -10.04357
  Beta  occ. eigenvalues --   -0.96603  -0.78011  -0.70229  -0.66572  -0.64176
  Beta  occ. eigenvalues --   -0.59622  -0.55321  -0.49797  -0.45965  -0.43819
  Beta  occ. eigenvalues --   -0.38188  -0.35989  -0.35031  -0.33753  -0.33235
  Beta  occ. eigenvalues --   -0.31113  -0.29774  -0.28927  -0.28054  -0.26690
  Beta  occ. eigenvalues --   -0.26091  -0.25544  -0.24381  -0.23809  -0.22128
  Beta  occ. eigenvalues --   -0.21134  -0.14025  -0.10749
  Beta virt. eigenvalues --    0.07207   0.07989   0.08874   0.09131   0.09760
  Beta virt. eigenvalues --    0.10430   0.10614   0.11154   0.11795   0.12829
  Beta virt. eigenvalues --    0.13130   0.13769   0.14025   0.14342   0.16014

 Mulliken charges and spin densities:
               1          2
     1  C    1.270739  -1.823389
     2  C   -0.876994   0.380311
     3  C    0.338061  -0.345416
     4  C    0.978810  -0.322269
     5  C    0.297147  -1.161622
     6  N   -0.472017   0.187328
     7  C   -1.356670   1.960631
     8  O   -0.003724   0.040012
     9  C    0.132004  -0.710621
    10  C    0.685016  -1.238196
    11  H   -0.027092   0.147195
    12  H   -0.790936   0.948917
    13  H   -0.094210   0.262196
    14  H   -0.209605   0.371373
    15  H   -0.259607   0.421373
    16  H   -0.022995   0.196821
    17  H    0.145753   0.029058
    18  H   -0.150936   0.290797
    19  H   -0.078231   0.238784
    20  H    0.074280   0.082264
    21  H   -0.035665   0.195422
    22  H   -0.391328   0.558256
    23  H   -0.151801   0.290777
 Sum of Mulliken charges =  -1.00000   1.00000

 Dipole moment (field-independent basis, Debye):
    X=              3.0969    Y=              0.5985    Z=             -1.1130  Tot=              3.3448
 Quadrupole moment (field-independent basis, Debye-Ang):
   XX=           -130.7808   YY=            -97.5309   ZZ=            -87.6837
   XY=             -5.8701   XZ=              1.2882   YZ=              4.8028

 Summary of Natural Population Analysis:

                                       Natural Population
                Natural  -----------------------------------------------
    Atom  No    Charge         Core      Valence    Rydberg      Total
 -----------------------------------------------------------------------
      C    1   -0.27906      0.99966     2.27407    0.00533     3.27906
      C    2   -0.21691      0.99959     2.20749    0.00983     3.21691
      C    3    0.22947      0.99944     1.75465    0.01644     2.77053
      C    4   -0.18896      0.99939     2.17993    0.00964     3.18896
      C    5    0.13480      0.99956     1.84748    0.01815     2.86520
      N    6   -0.33065      0.99971     2.82241    0.00854     3.83065
      C    7    0.10980      0.99949     1.87497    0.01575     2.89020
      O    8   -0.28268      0.99986     3.27213    0.01068     4.28268
      C    9   -0.28740      0.99960     2.28018    0.00762     3.28740
      C   10   -0.28831      0.99960     2.28088    0.00783     3.28831
      H   11    0.09585      0.00000     0.40302    0.00114     0.40415
      H   12    0.10225      0.00000     0.39416    0.00359     0.39775
      H   13    0.10180      0.00000     0.39670    0.00150     0.39820
      H   14    0.10314      0.00000     0.39568    0.00118     0.39686
      H   15    0.11053      0.00000     0.38691    0.00256     0.38947
      H   16    0.10950      0.00000     0.38952    0.00097     0.39050
      H   17    0.15489      0.00000     0.34264    0.00246     0.34511
      H   18    0.10139      0.00000     0.39736    0.00125     0.39861
      H   19    0.10268      0.00000     0.39625    0.00107     0.39732
      H   20    0.10566      0.00000     0.39326    0.00108     0.39434
      H   21    0.10631      0.00000     0.39253    0.00116     0.39369
      H   22    0.10431      0.00000     0.39414    0.00155     0.39569
      H   23    0.10160      0.00000     0.39688    0.00152     0.39840
 =======================================================================
   * Total *    0.00000      9.99592    27.87324    0.13085    38.00000

 Normal termination of Gaussian 16 at Tue Dec  8 10:46:01 2020.
