 Gaussian 16, Revision A.03,

 -----------------------------------------------------------
 # opt freq B3LYP/6-31G(d) empiricaldispersion=gd3bj scf=xqc
 -----------------------------------------------------------

 -------------------------------
 CID_128316879_JID_8137_neutraal
 -------------------------------
 Symbolic Z-matrix:
 Charge =  0 Multiplicity = 1

 SCF Done:  E(RB3LYP) =  -1162.04416032     A.U. after   15 cycles
 SCF Done:  E(RB3LYP) =  -1162.04771907     A.U. after   12 cycles
 SCF Done:  E(RB3LYP) =  -1162.04803895     A.U. after   12 cycles
 SCF Done:  E(RB3LYP) =  -1162.04812277     A.U. after   11 cycles
 SCF Done:  E(RB3LYP) =  -1162.04822034     A.U. after   11 cycles
 SCF Done:  E(RB3LYP) =  -1162.04828109     A.U. after   12 cycles
 SCF Done:  E(RB3LYP) =  -1162.04835952     A.U. after   12 cycles
 SCF Done:  E(RB3LYP) =  -1162.04841472     A.U. after   10 cycles
 SCF Done:  E(RB3LYP) =  -1162.04842187     A.U. after   10 cycles
 SCF Done:  E(RB3LYP) =  -1162.04840768     A.U. after   10 cycles
 SCF Done:  E(RB3LYP) =  -1162.04877523     A.U. after   11 cycles
 SCF Done:  E(RB3LYP) =  -1162.04877692     A.U. after   10 cycles
 SCF Done:  E(RB3LYP) =  -1162.04878241     A.U. after   10 cycles
 SCF Done:  E(RB3LYP) =  -1162.04878297     A.U. after    9 cycles
 SCF Done:  E(RB3LYP) =  -1162.04878371     A.U. after    8 cycles
 Optimization completed.
    -- Stationary point found.
 Normal termination of Gaussian 16 at Fri Dec 11 20:01:52 2020.

 --------------------------------------------------------------------
 #N Geom=AllCheck Guess=TCheck SCRF=Check GenChk RB3LYP/6-31G(d) Freq
 --------------------------------------------------------------------

 Structure from the checkpoint file:  "JID_8137.chk"
 -------------------------------
 CID_128316879_JID_8137_neutraal
 -------------------------------
 Charge =  0 Multiplicity = 1

 SCF Done:  E(RB3LYP) =  -1162.04878371     A.U. after    1 cycles

  Exact polarizability: 233.572  -6.065 166.149  -5.528  -0.994 104.060
 Approx polarizability: 324.755 -15.372 287.714 -11.338  -2.035 160.972

                      1                      2                      3
                      A                      A                      A
 Frequencies --      8.0374                42.9728                63.6491
 Red. masses --      6.2181                 4.8046                 7.5802
 Frc consts  --      0.0002                 0.0052                 0.0181
 IR Inten    --      0.0482                 1.2043                 0.6736

                      4                      5                      6
                      A                      A                      A
 Frequencies --     67.1915               111.2523               179.0610
 Red. masses --      6.4378                 6.5280                 4.6493
 Frc consts  --      0.0171                 0.0476                 0.0878
 IR Inten    --      0.1771                 3.0685                 6.8970

                      7                      8                      9
                      A                      A                      A
 Frequencies --    193.1571               217.4024               236.0201
 Red. masses --      4.5032                 4.3628                 5.2267
 Frc consts  --      0.0990                 0.1215                 0.1715
 IR Inten    --      1.1420                 2.5560                 1.1055

                     10                     11                     12
                      A                      A                      A
 Frequencies --    251.4320               284.0033               300.2419
 Red. masses --      4.9229                 2.9152                 5.8211
 Frc consts  --      0.1834                 0.1385                 0.3092
 IR Inten    --      1.6657                 0.5294                12.0200

                     13                     14                     15
                      A                      A                      A
 Frequencies --    316.8475               340.5091               394.6457
 Red. masses --      3.1794                 2.2438                 5.1222
 Frc consts  --      0.1881                 0.1533                 0.4700
 IR Inten    --      0.3112                 0.0989                 8.6851

                     16                     17                     18
                      A                      A                      A
 Frequencies --    413.7122               473.2144               517.0164
 Red. masses --      3.3618                 4.8107                 3.1973
 Frc consts  --      0.3390                 0.6347                 0.5035
 IR Inten    --      0.0572                 2.0207                 4.8887

                     19                     20                     21
                      A                      A                      A
 Frequencies --    545.2960               560.2819               618.5192
 Red. masses --      3.9228                 4.7068                 3.4190
 Frc consts  --      0.6872                 0.8706                 0.7707
 IR Inten    --      0.1872                 0.4355                 2.6882

                     22                     23                     24
                      A                      A                      A
 Frequencies --    639.5873               642.8852               646.2134
 Red. masses --      2.1801                 6.1723                 1.7683
 Frc consts  --      0.5254                 1.5030                 0.4351
 IR Inten    --     51.3950                 5.8201                22.1884

                     25                     26                     27
                      A                      A                      A
 Frequencies --    655.7261               685.2511               725.3414
 Red. masses --      4.5055                 3.8951                 5.2551
 Frc consts  --      1.1414                 1.0776                 1.6290
 IR Inten    --      3.6357                 2.5980                10.8500

                     28                     29                     30
                      A                      A                      A
 Frequencies --    750.9467               763.3283               785.4713
 Red. masses --      3.9062                 1.9241                 3.0509
 Frc consts  --      1.2978                 0.6606                 1.1090
 IR Inten    --      1.5704                29.5450                14.8345

                     31                     32                     33
                      A                      A                      A
 Frequencies --    800.9755               810.6051               847.1935
 Red. masses --      2.5071                 1.8059                 1.4748
 Frc consts  --      0.9477                 0.6991                 0.6236
 IR Inten    --     24.9455                 3.1605                 2.9063

                     34                     35                     36
                      A                      A                      A
 Frequencies --    853.9124               866.0915               900.9202
 Red. masses --      4.0258                 4.2187                 1.3575
 Frc consts  --      1.7295                 1.8645                 0.6492
 IR Inten    --      5.1840                 4.7306                 1.8535

                     37                     38                     39
                      A                      A                      A
 Frequencies --    936.4549               940.4505               943.8026
 Red. masses --      4.5047                 2.4185                 9.8480
 Frc consts  --      2.3275                 1.2603                 5.1684
 IR Inten    --     20.1797                 0.4703                 2.6339

                     40                     41                     42
                      A                      A                      A
 Frequencies --    971.2090               978.1997               985.8945
 Red. masses --      1.5684                 1.2611                 2.3246
 Frc consts  --      0.8716                 0.7110                 1.3313
 IR Inten    --      1.8806                 2.7629                33.3243

                     43                     44                     45
                      A                      A                      A
 Frequencies --   1033.1051              1062.7066              1075.2472
 Red. masses --      2.4914                 2.5481                 2.0826
 Frc consts  --      1.5667                 1.6955                 1.4186
 IR Inten    --      0.4499                15.7203                 0.7356

                     46                     47                     48
                      A                      A                      A
 Frequencies --   1082.7745              1114.6408              1122.1770
 Red. masses --      2.0388                 5.1539                 1.7010
 Frc consts  --      1.4083                 3.7727                 1.2621
 IR Inten    --     10.8962                69.8412                 3.4912

                     49                     50                     51
                      A                      A                      A
 Frequencies --   1164.8671              1184.2515              1197.4369
 Red. masses --      1.5098                 1.3947                 1.1751
 Frc consts  --      1.2070                 1.1524                 0.9927
 IR Inten    --      9.5526                43.5223                26.1111

                     52                     53                     54
                      A                      A                      A
 Frequencies --   1203.4245              1226.0473              1239.4601
 Red. masses --      1.3932                 1.7631                 1.5175
 Frc consts  --      1.1888                 1.5615                 1.3736
 IR Inten    --     54.0154                 9.2340                56.5837

                     55                     56                     57
                      A                      A                      A
 Frequencies --   1281.5621              1290.4071              1321.1826
 Red. masses --      2.6352                 1.2626                 1.4297
 Frc consts  --      2.5500                 1.2387                 1.4704
 IR Inten    --     15.8358                 3.9803                 7.6754

                     58                     59                     60
                      A                      A                      A
 Frequencies --   1325.2413              1343.5722              1345.5767
 Red. masses --      1.9330                 1.2965                 2.1841
 Frc consts  --      2.0002                 1.3789                 2.3299
 IR Inten    --     31.7013                13.7643                36.8878

                     61                     62                     63
                      A                      A                      A
 Frequencies --   1362.6777              1392.0881              1396.8782
 Red. masses --      1.2416                 1.5280                 1.3891
 Frc consts  --      1.3584                 1.7447                 1.5970
 IR Inten    --      4.0625                10.9319                 9.9048

                     64                     65                     66
                      A                      A                      A
 Frequencies --   1404.5901              1441.9814              1462.0645
 Red. masses --      5.1471                 1.5519                 2.6445
 Frc consts  --      5.9828                 1.9013                 3.3306
 IR Inten    --    123.4722                 9.5459               151.9579

                     67                     68                     69
                      A                      A                      A
 Frequencies --   1492.2011              1502.6228              1504.0623
 Red. masses --      1.0815                 1.0996                 1.0894
 Frc consts  --      1.4189                 1.4628                 1.4520
 IR Inten    --      3.5874                36.3169                 4.8888

                     70                     71                     72
                      A                      A                      A
 Frequencies --   1514.1942              1542.6538              1562.6492
 Red. masses --      1.0926                 2.8947                 3.5665
 Frc consts  --      1.4759                 4.0587                 5.1312
 IR Inten    --      4.5670                16.6993               398.0666

                     73                     74                     75
                      A                      A                      A
 Frequencies --   1582.4727              1673.1569              1675.2152
 Red. masses --      3.4084                 6.5264                 6.3865
 Frc consts  --      5.0289                10.7645                10.5598
 IR Inten    --    114.4858               194.8342                25.0654

                     76                     77                     78
                      A                      A                      A
 Frequencies --   1767.4105              3029.3490              3036.4708
 Red. masses --      7.9879                 1.0717                 1.0634
 Frc consts  --     14.7014                 5.7948                 5.7768
 IR Inten    --    165.7840                 3.3682                43.8337

                     79                     80                     81
                      A                      A                      A
 Frequencies --   3045.9335              3081.0903              3082.1453
 Red. masses --      1.0751                 1.0864                 1.0906
 Frc consts  --      5.8766                 6.0765                 6.1040
 IR Inten    --     56.0135                 1.3742                24.4300

                     82                     83                     84
                      A                      A                      A
 Frequencies --   3089.5372              3091.0038              3139.0156
 Red. masses --      1.0786                 1.0672                 1.1072
 Frc consts  --      6.0660                 6.0073                 6.4276
 IR Inten    --     29.0327                31.4504                11.8150

                     85                     86                     87
                      A                      A                      A
 Frequencies --   3158.3751              3204.3627              3237.7591
 Red. masses --      1.1026                 1.0892                 1.0943
 Frc consts  --      6.4804                 6.5892                 6.7589
 IR Inten    --      4.7091                 9.5921                 4.1411

                     88                     89                     90
                      A                      A                      A
 Frequencies --   3279.9116              3296.2479              3592.8312
 Red. masses --      1.0917                 1.0989                 1.0771
 Frc consts  --      6.9194                 7.0348                 8.1921
 IR Inten    --      3.0274                 0.0113                36.0184

 - Thermochemistry -
 -------------------
 Temperature   298.150 Kelvin.  Pressure   1.00000 Atm.
 Atom     1 has atomic number  6 and mass  12.00000

 Molecular mass:   262.07760 amu.
 Principal axes and moments of inertia in atomic units:
                           1         2         3
     Eigenvalues --  1675.45482********************
           X            0.99997   0.00723  -0.00216
           Y           -0.00723   0.99997  -0.00015
           Z            0.00216   0.00016   1.00000
 This molecule is an asymmetric top.
 Rotational symmetry number  1.
 Warning -- assumption of classical behavior for rotation
           may cause significant error
 Rotational temperatures (Kelvin)      0.05170     0.00799     0.00742
 Rotational constants (GHZ):           1.07716     0.16645     0.15459
 Zero-point vibrational energy     678997.7 (Joules/Mol)
                                  162.28435 (Kcal/Mol)
 Warning -- explicit consideration of  21 degrees of freedom as
           vibrations may cause significant error
 Vibrational temperatures:     11.56    61.83    91.58    96.67   160.07
          (Kelvin)            257.63   277.91   312.79   339.58   361.75
                              408.62   431.98   455.87   489.92   567.81
                              595.24   680.85   743.87   784.56   806.12
                              889.91   920.22   924.97   929.76   943.44
                              985.92  1043.60  1080.44  1098.26  1130.12
                             1152.43  1166.28  1218.92  1228.59  1246.11
                             1296.22  1347.35  1353.10  1357.92  1397.35
                             1407.41  1418.48  1486.41  1529.00  1547.04
                             1557.87  1603.72  1614.56  1675.98  1703.87
                             1722.84  1731.46  1764.01  1783.31  1843.88
                             1856.61  1900.89  1906.73  1933.10  1935.98
                             1960.59  2002.90  2009.80  2020.89  2074.69
                             2103.58  2146.94  2161.94  2164.01  2178.59
                             2219.53  2248.30  2276.83  2407.30  2410.26
                             2542.91  4358.56  4368.80  4382.42  4433.00
                             4434.52  4445.15  4447.26  4516.34  4544.20
                             4610.36  4658.41  4719.06  4742.57  5169.28

 Zero-point correction=                           0.258617 (Hartree/Particle)
 Thermal correction to Energy=                    0.273556
 Thermal correction to Enthalpy=                  0.274500
 Thermal correction to Gibbs Free Energy=         0.213929
 Sum of electronic and zero-point Energies=          -1161.790167
 Sum of electronic and thermal Energies=             -1161.775228
 Sum of electronic and thermal Enthalpies=           -1161.774284
 Sum of electronic and thermal Free Energies=        -1161.834855

                     E (Thermal)             CV                S
                      KCal/Mol        Cal/Mol-Kelvin    Cal/Mol-Kelvin
 Total                  171.659             58.777            127.483
 Electronic               0.000              0.000              0.000
 Translational            0.889              2.981             42.590
 Rotational               0.889              2.981             33.716
 Vibrational            169.881             52.815             51.176
 Vibration     1          0.593              1.987              8.445
 Vibration     2          0.595              1.980              5.117
 Vibration     3          0.597              1.972              4.341
 Vibration     4          0.598              1.970              4.234
 Vibration     5          0.607              1.940              3.247
 Vibration     6          0.629              1.868              2.338
 Vibration     7          0.635              1.849              2.197
 Vibration     8          0.646              1.815              1.981
 Vibration     9          0.655              1.786              1.833
 Vibration    10          0.663              1.760              1.721
 Vibration    11          0.682              1.703              1.509
 Vibration    12          0.693              1.673              1.416
 Vibration    13          0.704              1.641              1.326
 Vibration    14          0.720              1.595              1.210
 Vibration    15          0.762              1.482              0.983
 Vibration    16          0.777              1.440              0.914
 Vibration    17          0.830              1.309              0.729
 Vibration    18          0.872              1.212              0.617
 Vibration    19          0.900              1.150              0.554
 Vibration    20          0.916              1.117              0.523
 Vibration    21          0.978              0.993              0.419

                           ! Non-Optimized Parameters !
 Normal termination of Gaussian 16 at Fri Dec 11 20:15:29 2020.

 ----------------------------------------------------------------------
 # B3LYP/6-311++G(d,p) empiricaldispersion=gd3bj scf=xqc pop=npa geom=c
 heck
 ----------------------------------------------------------------------

 ---------------------------------------
 CID_128316879_JID_8137_Energie_neutraal
 ---------------------------------------
 Structure from the checkpoint file:  "JID_8137.chk"
 Charge =  0 Multiplicity = 1

 SCF Done:  E(RB3LYP) =  -1162.27996988     A.U. after   15 cycles
 Normal termination of Gaussian 16 at Fri Dec 11 20:21:52 2020.

 ----------------------------------------------------------------------
 # B3LYP/6-311++G(d,p) empiricaldispersion=gd3bj scf=xqc pop=npa geom=c
 heck
 ----------------------------------------------------------------------

 -------------------------------------
 CID_128316879_JID_8137_Energie_kation
 -------------------------------------
 Structure from the checkpoint file:  "JID_8137.chk"
 Charge =  1 Multiplicity = 2

 SCF Done:  E(UB3LYP) =  -1161.99808299     A.U. after   29 cycles
 Normal termination of Gaussian 16 at Fri Dec 11 20:39:53 2020.
 Gaussian 16:  ES64L-G16RevA.03 25-Dec-2016

 ----------------------------------------------------------------------
 # B3LYP/6-311++G(d,p) empiricaldispersion=gd3bj scf=xqc pop=npa geom=c
 heck
 ----------------------------------------------------------------------

 ------------------------------------
 CID_128316879_JID_8137_Energie_anion
 ------------------------------------
 Structure from the checkpoint file:  "JID_8137.chk"
 Charge = -1 Multiplicity = 2

                         Standard orientation:
 ---------------------------------------------------------------------
 Center     Atomic      Atomic             Coordinates (Angstroms)
 Number     Number       Type             X           Y           Z
 ---------------------------------------------------------------------
      1          6           0       -2.970235   -0.742676    1.432689
      2          6           0       -3.900026    0.446561    1.183708
      3         16           0       -4.868546    0.265688   -0.364325
      4          6           0       -3.453087    0.006827   -1.501619
      5          6           0       -2.584538   -1.176326   -1.074280
      6          6           0       -1.931729   -1.007243    0.320271
      7          6           0       -0.864604    0.082909    0.264166
      8          8           0       -1.129102    1.280860    0.238528
      9          7           0        0.423289   -0.397681    0.206778
     10          6           0        1.613822    0.328102    0.086942
     11          6           0        2.802220   -0.416811    0.029884
     12          6           0        4.039302    0.214531   -0.090171
     13          6           0        4.196493    1.591482   -0.161305
     14          6           0        3.006058    2.319790   -0.103480
     15          6           0        1.738905    1.720716    0.017653
     16          8           0        4.994267   -0.780632   -0.119294
     17          6           0        4.271985   -1.939054   -0.015729
     18          7           0        2.989842   -1.801793    0.074706
     19          1           0       -3.575582   -1.650336    1.543535
     20          1           0       -2.441947   -0.587285    2.382886
     21          1           0       -4.638034    0.520872    1.988095
     22          1           0       -3.331903    1.376974    1.142392
     23          1           0       -2.863375    0.925707   -1.554280
     24          1           0       -3.889940   -0.179378   -2.487077
     25          1           0       -1.794449   -1.335494   -1.821061
     26          1           0       -3.200013   -2.083372   -1.053547
     27          1           0       -1.439228   -1.958316    0.560970
     28          1           0        0.558073   -1.400926    0.239165
     29          1           0        5.166616    2.064795   -0.254454
     30          1           0        3.053604    3.403353   -0.153614
     31          1           0        0.847711    2.329278    0.059233
     32          1           0        4.844589   -2.855228   -0.019678
 ---------------------------------------------------------------------

 SCF Done:  E(UB3LYP) =  -1162.27843458     A.U. after   33 cycles
 SCF Done:  E(UB3LYP) =  -1162.27843458     a.u. after    1 cycles

 The electronic state is 2-A.
 Alpha  occ. eigenvalues --  -88.73690 -19.06911 -18.96979 -14.23384 -14.18800
 Alpha  occ. eigenvalues --  -10.14858 -10.12349 -10.10677 -10.09688 -10.09563
 Alpha  occ. eigenvalues --  -10.08436 -10.08281 -10.07988 -10.07733 -10.07056
 Alpha  occ. eigenvalues --  -10.04605 -10.04411 -10.04050  -7.82324  -5.78698
 Alpha  occ. eigenvalues --   -5.78372  -5.77698  -1.00277  -0.92421  -0.82629
 Alpha  occ. eigenvalues --   -0.79586  -0.74190  -0.72269  -0.66623  -0.66154
 Alpha  occ. eigenvalues --   -0.62642  -0.62111  -0.54961  -0.52653  -0.52236
 Alpha  occ. eigenvalues --   -0.50162  -0.49653  -0.46340  -0.44442  -0.41446
 Alpha  occ. eigenvalues --   -0.39642  -0.38477  -0.36996  -0.36436  -0.36056
 Alpha  occ. eigenvalues --   -0.35363  -0.34891  -0.34188  -0.31546  -0.30530
 Alpha  occ. eigenvalues --   -0.30231  -0.29835  -0.28873  -0.28092  -0.26395
 Alpha  occ. eigenvalues --   -0.26170  -0.26020  -0.24831  -0.24606  -0.24081
 Alpha  occ. eigenvalues --   -0.21754  -0.21120  -0.20461  -0.18375  -0.17803
 Alpha  occ. eigenvalues --   -0.14047  -0.12377  -0.12204  -0.09970   0.04784
 Alpha virt. eigenvalues --    0.06524   0.07759   0.08399   0.08625   0.09074
 Alpha virt. eigenvalues --    0.09830   0.10113   0.10682   0.10882   0.11239
 Alpha virt. eigenvalues --    0.11657   0.12175   0.13111   0.13522   0.13722

  Beta  occ. eigenvalues --  -88.73688 -19.06825 -18.96826 -14.23458 -14.18773
  Beta  occ. eigenvalues --  -10.14674 -10.11976 -10.10734 -10.09686 -10.09561
  Beta  occ. eigenvalues --  -10.08447 -10.08009 -10.07975 -10.07688 -10.07005
  Beta  occ. eigenvalues --  -10.04475 -10.04230 -10.04093  -7.82322  -5.78697
  Beta  occ. eigenvalues --   -5.78370  -5.77694  -1.00064  -0.92135  -0.82479
  Beta  occ. eigenvalues --   -0.79398  -0.74142  -0.72045  -0.66524  -0.66127
  Beta  occ. eigenvalues --   -0.62398  -0.61740  -0.54765  -0.52602  -0.52000
  Beta  occ. eigenvalues --   -0.49894  -0.49482  -0.46241  -0.44272  -0.41337
  Beta  occ. eigenvalues --   -0.39447  -0.38391  -0.36871  -0.36290  -0.35922
  Beta  occ. eigenvalues --   -0.34767  -0.34701  -0.34124  -0.31235  -0.30381
  Beta  occ. eigenvalues --   -0.30192  -0.29680  -0.28605  -0.27991  -0.26291
  Beta  occ. eigenvalues --   -0.26096  -0.25920  -0.24747  -0.24492  -0.23368
  Beta  occ. eigenvalues --   -0.21628  -0.20444  -0.20311  -0.17805  -0.17726
  Beta  occ. eigenvalues --   -0.13943  -0.12348  -0.11462  -0.08926
  Beta virt. eigenvalues --    0.06836   0.07829   0.08354   0.08716   0.09101
  Beta virt. eigenvalues --    0.09377   0.09889   0.10325   0.10840   0.11272
  Beta virt. eigenvalues --    0.11579   0.11855   0.12155   0.13132   0.13560

 Mulliken charges and spin densities:
               1          2
     1  C   -0.232676  -0.215744
     2  C   -0.414060  -0.041538
     3  S   -0.070026  -0.065339
     4  C   -0.464469   0.075104
     5  C    0.357671  -0.732536
     6  C   -0.127754   0.721592
     7  C   -0.037399  -0.517525
     8  O   -0.352606   0.056971
     9  N   -0.042784  -0.019572
    10  C    0.342257   0.134395
    11  C   -0.796431   0.060418
    12  C    0.264505  -0.098612
    13  C   -0.300007   0.101144
    14  C   -0.269063   0.097303
    15  C   -0.019074  -0.075708
    16  O   -0.149633   0.003397
    17  C    0.100533   0.355934
    18  N   -0.133775  -0.019340
    19  H   -0.054196   0.196204
    20  H    0.147730  -0.004166
    21  H    0.143965   0.052336
    22  H    0.214637   0.024028
    23  H    0.215339  -0.008851
    24  H    0.114814   0.081652
    25  H    0.022195   0.130457
    26  H   -0.251975   0.394194
    27  H   -0.141607   0.389064
    28  H    0.342184  -0.072534
    29  H    0.126559  -0.012750
    30  H    0.134267  -0.007643
    31  H    0.192359  -0.002746
    32  H    0.138521   0.020411
 Sum of Mulliken charges =  -1.00000   1.00000

 Dipole moment (field-independent basis, Debye):
    X=             -1.4882    Y=              0.5022    Z=              0.5324  Tot=              1.6584
 Quadrupole moment (field-independent basis, Debye-Ang):
   XX=           -190.4904   YY=           -140.6546   ZZ=           -124.7850
   XY=             -2.6087   XZ=             -4.5549   YZ=             -1.1026

 Summary of Natural Population Analysis:

                                       Natural Population
                Natural  -----------------------------------------------
    Atom  No    Charge         Core      Valence    Rydberg      Total
 -----------------------------------------------------------------------
      C    1   -0.19070      0.99961     2.18002    0.01107     3.19070
      C    2   -0.25138      0.99958     2.24255    0.00925     3.25138
      S    3    0.07070      4.99964     2.91185    0.01781     7.92930
      C    4   -0.25325      0.99958     2.24231    0.01135     3.25325
      C    5   -0.19080      0.99960     2.17992    0.01127     3.19080
      C    6   -0.14508      0.99955     2.13318    0.01235     3.14508
      C    7    0.36531      0.99965     1.60958    0.02546     2.63469
      O    8   -0.31976      0.99987     3.31473    0.00515     4.31976
      N    9   -0.30806      0.99963     2.80084    0.00758     3.80806
      C   10    0.11785      0.99944     1.87241    0.01030     2.88215
      C   11    0.03324      0.99942     1.95514    0.01220     2.96676
      C   12    0.12933      0.99933     1.85869    0.01264     2.87067
      C   13   -0.11181      0.99952     2.10312    0.00917     3.11181
      C   14   -0.07641      0.99960     2.06802    0.00879     3.07641
      C   15   -0.13470      0.99955     2.12722    0.00792     3.13470
      O   16   -0.24126      0.99987     3.23439    0.00700     4.24126
      C   17    0.25212      0.99966     1.72778    0.02044     2.74788
      N   18   -0.26916      0.99970     2.76002    0.00944     3.76916
      H   19    0.09846      0.00000     0.40011    0.00143     0.40154
      H   20    0.10134      0.00000     0.39768    0.00098     0.39866
      H   21    0.10066      0.00000     0.39825    0.00109     0.39934
      H   22    0.11675      0.00000     0.38196    0.00129     0.38325
      H   23    0.11203      0.00000     0.38661    0.00137     0.38797
      H   24    0.10296      0.00000     0.39613    0.00091     0.39704
      H   25    0.10352      0.00000     0.39542    0.00106     0.39648
      H   26    0.10091      0.00000     0.39656    0.00253     0.39909
      H   27    0.10168      0.00000     0.39647    0.00185     0.39832
      H   28    0.20159      0.00000     0.29513    0.00328     0.29841
      H   29    0.09720      0.00000     0.40150    0.00130     0.40280
      H   30    0.09092      0.00000     0.40816    0.00092     0.40908
      H   31    0.11782      0.00000     0.38120    0.00097     0.38218
      H   32    0.07797      0.00000     0.42115    0.00088     0.42203
 =======================================================================
   * Total *   -0.00000     21.99282    46.77813    0.22905    69.00000

 Normal termination of Gaussian 16 at Fri Dec 11 21:00:06 2020.
