 Gaussian 16, Revision A.03,

 -----------------------------------------------------------
 # opt freq B3LYP/6-31G(d) empiricaldispersion=gd3bj scf=xqc
 -----------------------------------------------------------

 ------------------------------
 CID_63302814_JID_8318_neutraal
 ------------------------------
 Symbolic Z-matrix:
 Charge =  0 Multiplicity = 1

 SCF Done:  E(RB3LYP) =  -1181.64253583     A.U. after   15 cycles
 SCF Done:  E(RB3LYP) =  -1181.65897707     A.U. after   12 cycles
 SCF Done:  E(RB3LYP) =  -1181.66133214     A.U. after   12 cycles
 SCF Done:  E(RB3LYP) =  -1181.66187214     A.U. after   12 cycles
 SCF Done:  E(RB3LYP) =  -1181.66215088     A.U. after   11 cycles
 SCF Done:  E(RB3LYP) =  -1181.66220274     A.U. after   11 cycles
 SCF Done:  E(RB3LYP) =  -1181.66235218     A.U. after   11 cycles
 SCF Done:  E(RB3LYP) =  -1181.66247937     A.U. after   12 cycles
 SCF Done:  E(RB3LYP) =  -1181.66254673     A.U. after   12 cycles
 SCF Done:  E(RB3LYP) =  -1181.66265677     A.U. after   11 cycles
 SCF Done:  E(RB3LYP) =  -1181.66350585     A.U. after   10 cycles
 SCF Done:  E(RB3LYP) =  -1181.66350836     A.U. after    9 cycles
 SCF Done:  E(RB3LYP) =  -1181.66350921     A.U. after    8 cycles
 SCF Done:  E(RB3LYP) =  -1181.66350930     A.U. after    7 cycles
 SCF Done:  E(RB3LYP) =  -1181.66350933     A.U. after    7 cycles
 Optimization completed.
    -- Stationary point found.
 Normal termination of Gaussian 16 at Fri Dec 11 20:18:08 2020.

 --------------------------------------------------------------------
 #N Geom=AllCheck Guess=TCheck SCRF=Check GenChk RB3LYP/6-31G(d) Freq
 --------------------------------------------------------------------

 Structure from the checkpoint file:  "JID_8318.chk"
 ------------------------------
 CID_63302814_JID_8318_neutraal
 ------------------------------
 Charge =  0 Multiplicity = 1

 SCF Done:  E(RB3LYP) =  -1181.66350933     A.U. after    1 cycles

  Exact polarizability: 180.990  -5.748 161.463  12.137   1.614 138.907
 Approx polarizability: 215.053 -10.012 261.154  30.183   2.964 242.362

                      1                      2                      3
                      A                      A                      A
 Frequencies --     17.2988                25.5749                33.1312
 Red. masses --      4.9042                 4.0863                 7.1005
 Frc consts  --      0.0009                 0.0016                 0.0046
 IR Inten    --      0.3162                 0.1016                 1.0701

                      4                      5                      6
                      A                      A                      A
 Frequencies --     44.5310                56.1085                75.6885
 Red. masses --      5.2776                 4.1942                 4.4208
 Frc consts  --      0.0062                 0.0078                 0.0149
 IR Inten    --      0.1673                 1.0548                 2.2631

                      7                      8                      9
                      A                      A                      A
 Frequencies --    109.7404               141.6414               159.4576
 Red. masses --      3.1205                 4.2716                 3.9610
 Frc consts  --      0.0221                 0.0505                 0.0593
 IR Inten    --      0.1691                 0.8365                 1.7873

                     10                     11                     12
                      A                      A                      A
 Frequencies --    169.1722               209.8003               222.4668
 Red. masses --      4.0009                 1.1046                 3.8830
 Frc consts  --      0.0675                 0.0286                 0.1132
 IR Inten    --      4.6486                 0.2673                16.2455

                     13                     14                     15
                      A                      A                      A
 Frequencies --    227.6810               256.6175               272.8548
 Red. masses --      3.1598                 1.0440                 1.0751
 Frc consts  --      0.0965                 0.0405                 0.0472
 IR Inten    --      1.3939                 0.1846                 0.0774

                     16                     17                     18
                      A                      A                      A
 Frequencies --    290.5991               316.4667               327.3692
 Red. masses --      4.4853                 2.9247                 2.9732
 Frc consts  --      0.2232                 0.1726                 0.1877
 IR Inten    --      3.1891                 3.4111                 5.8893

                     19                     20                     21
                      A                      A                      A
 Frequencies --    339.6541               351.5951               405.0748
 Red. masses --      2.7727                 2.5085                 2.9352
 Frc consts  --      0.1885                 0.1827                 0.2838
 IR Inten    --      8.6651                 1.3621                 2.6388

                     22                     23                     24
                      A                      A                      A
 Frequencies --    437.3208               458.2870               461.7524
 Red. masses --      2.4193                 3.2908                 2.9390
 Frc consts  --      0.2726                 0.4072                 0.3692
 IR Inten    --      3.6236                 3.7951                 2.1856

                     25                     26                     27
                      A                      A                      A
 Frequencies --    504.8942               525.4866               578.3837
 Red. masses --      2.7314                 4.0517                 4.5589
 Frc consts  --      0.4102                 0.6592                 0.8986
 IR Inten    --      1.2449                 8.5044                 5.9417

                     28                     29                     30
                      A                      A                      A
 Frequencies --    590.4760               618.5683               697.6156
 Red. masses --      5.4227                 4.9051                 2.7254
 Frc consts  --      1.1140                 1.1058                 0.7815
 IR Inten    --      3.5935                10.1991                23.4112

                     31                     32                     33
                      A                      A                      A
 Frequencies --    729.5238               751.8176               764.6960
 Red. masses --      1.4700                 3.9435                 6.5606
 Frc consts  --      0.4609                 1.3133                 2.2603
 IR Inten    --     34.7747                12.9451                 7.8720

                     34                     35                     36
                      A                      A                      A
 Frequencies --    771.5343               779.2591               823.0472
 Red. masses --      6.0824                 4.1891                 2.9784
 Frc consts  --      2.1332                 1.4988                 1.1887
 IR Inten    --     16.7597                20.2584                53.7815

                     37                     38                     39
                      A                      A                      A
 Frequencies --    846.2313               882.8441               889.9084
 Red. masses --      2.0988                 2.7241                 3.5254
 Frc consts  --      0.8855                 1.2510                 1.6449
 IR Inten    --     49.9458                13.9976                 2.8912

                     40                     41                     42
                      A                      A                      A
 Frequencies --    893.5141               897.9324               936.6420
 Red. masses --      1.5885                 1.3234                 1.6412
 Frc consts  --      0.7472                 0.6287                 0.8483
 IR Inten    --      3.4373                 2.4782                 0.0413

                     43                     44                     45
                      A                      A                      A
 Frequencies --    938.1537               954.4830               970.9376
 Red. masses --      1.6590                 2.9451                 2.4964
 Frc consts  --      0.8603                 1.5808                 1.3866
 IR Inten    --      0.3698                12.7696                26.7722

                     46                     47                     48
                      A                      A                      A
 Frequencies --    982.2521              1017.9565              1046.2185
 Red. masses --      1.1979                 2.7990                 2.9145
 Frc consts  --      0.6810                 1.7089                 1.8796
 IR Inten    --      0.2906                25.2512                 7.4765

                     49                     50                     51
                      A                      A                      A
 Frequencies --   1067.3576              1072.5907              1089.2337
 Red. masses --      1.4023                 1.4431                 1.8462
 Frc consts  --      0.9412                 0.9782                 1.2905
 IR Inten    --      0.2238                 0.7795                26.9937

                     52                     53                     54
                      A                      A                      A
 Frequencies --   1100.6086              1141.3354              1146.3528
 Red. masses --      1.6113                 1.2098                 2.7708
 Frc consts  --      1.1500                 0.9285                 2.1453
 IR Inten    --      7.9802                46.5157               229.4081

                     55                     56                     57
                      A                      A                      A
 Frequencies --   1166.4973              1188.3522              1203.7560
 Red. masses --      1.9656                 3.2482                 2.8813
 Frc consts  --      1.5758                 2.7026                 2.4599
 IR Inten    --     36.4565                26.5927               135.9384

                     58                     59                     60
                      A                      A                      A
 Frequencies --   1214.4984              1225.1721              1230.2455
 Red. masses --      2.0503                 1.9012                 2.2073
 Frc consts  --      1.7818                 1.6814                 1.9683
 IR Inten    --      5.5659                33.4107               166.4202

                     61                     62                     63
                      A                      A                      A
 Frequencies --   1277.1274              1286.0028              1294.8632
 Red. masses --      1.3177                 2.6767                 1.6467
 Frc consts  --      1.2663                 2.6082                 1.6267
 IR Inten    --      1.7028                14.9497                 4.2056

                     64                     65                     66
                      A                      A                      A
 Frequencies --   1300.0079              1314.7227              1342.1201
 Red. masses --      2.3963                 1.4652                 1.5171
 Frc consts  --      2.3860                 1.4921                 1.6100
 IR Inten    --     36.4749                 6.4940                 8.4772

                     67                     68                     69
                      A                      A                      A
 Frequencies --   1358.2484              1380.9285              1411.1057
 Red. masses --      1.9560                 1.3235                 1.5916
 Frc consts  --      2.1261                 1.4871                 1.8673
 IR Inten    --      1.5192                 7.2221               101.7866

                     70                     71                     72
                      A                      A                      A
 Frequencies --   1422.6143              1425.0446              1437.5904
 Red. masses --      1.2865                 1.3400                 4.0872
 Frc consts  --      1.5340                 1.6033                 4.9767
 IR Inten    --     17.6807                29.1095               584.8899

                     73                     74                     75
                      A                      A                      A
 Frequencies --   1451.1382              1484.8316              1495.6570
 Red. masses --      1.2396                 3.2143                 1.2928
 Frc consts  --      1.5380                 4.1753                 1.7039
 IR Inten    --     31.9670                 8.6514                 1.2612

                     76                     77                     78
                      A                      A                      A
 Frequencies --   1499.7531              1520.2229              1520.3123
 Red. masses --      1.0469                 1.0490                 1.0500
 Frc consts  --      1.3873                 1.4283                 1.4299
 IR Inten    --      0.5229                 0.5954                 0.6205

                     79                     80                     81
                      A                      A                      A
 Frequencies --   1524.3783              1531.2157              1533.9461
 Red. masses --      1.0683                 1.2381                 1.1092
 Frc consts  --      1.4627                 1.7103                 1.5377
 IR Inten    --     21.1939                45.0962                10.5005

                     82                     83                     84
                      A                      A                      A
 Frequencies --   1535.4996              1554.8279              1557.8027
 Red. masses --      1.0523                 1.1111                 1.0573
 Frc consts  --      1.4618                 1.5826                 1.5117
 IR Inten    --      0.8712                 9.3668                16.4755

                     85                     86                     87
                      A                      A                      A
 Frequencies --   1568.7309              1792.5915              3046.4139
 Red. masses --      5.6680                11.2951                 1.0630
 Frc consts  --      8.2182                21.3847                 5.8125
 IR Inten    --     23.6605               323.5700                36.9720

                     88                     89                     90
                      A                      A                      A
 Frequencies --   3056.9804              3058.0130              3065.4839
 Red. masses --      1.0359                 1.0380                 1.0388
 Frc consts  --      5.7036                 5.7192                 5.7515
 IR Inten    --      9.7652                24.9197                34.5221

                     91                     92                     93
                      A                      A                      A
 Frequencies --   3065.9657              3068.4404              3086.0578
 Red. masses --      1.0589                 1.0586                 1.0875
 Frc consts  --      5.8646                 5.8726                 6.1023
 IR Inten    --     23.6830                27.3772                 8.8876

                     94                     95                     96
                      A                      A                      A
 Frequencies --   3111.4226              3112.8894              3119.5398
 Red. masses --      1.1063                 1.1027                 1.1026
 Frc consts  --      6.3103                 6.2953                 6.3218
 IR Inten    --      8.1656                35.8095                 8.7150

                     97                     98                     99
                      A                      A                      A
 Frequencies --   3122.2008              3122.5956              3133.8323
 Red. masses --      1.1024                 1.1083                 1.1031
 Frc consts  --      6.3317                 6.3672                 6.3829
 IR Inten    --     23.1430                28.9202                34.0721

                    100                    101                    102
                      A                      A                      A
 Frequencies --   3136.2517              3173.2527              3176.3554
 Red. masses --      1.1025                 1.0996                 1.0989
 Frc consts  --      6.3894                 6.5235                 6.5325
 IR Inten    --     49.1806                 0.8033                10.6295

                    103                    104                    105
                      A                      A                      A
 Frequencies --   3236.6579              3284.4096              3487.3607
 Red. masses --      1.0916                 1.0979                 1.0737
 Frc consts  --      6.7375                 6.9780                 7.6934
 IR Inten    --      7.2742                 1.3164                 0.5581

 - Thermochemistry -
 -------------------
 Temperature   298.150 Kelvin.  Pressure   1.00000 Atm.
 Atom     1 has atomic number  6 and mass  12.00000

 Molecular mass:   269.11980 amu.
 Principal axes and moments of inertia in atomic units:
                           1         2         3
     Eigenvalues --  2080.62692********************
           X            0.99999   0.00303   0.00160
           Y           -0.00305   0.99997   0.00740
           Z           -0.00158  -0.00741   0.99997
 This molecule is an asymmetric top.
 Rotational symmetry number  1.
 Warning -- assumption of classical behavior for rotation
           may cause significant error
 Rotational temperatures (Kelvin)      0.04163     0.00766     0.00715
 Rotational constants (GHZ):           0.86740     0.15963     0.14890
 Zero-point vibrational energy     814260.2 (Joules/Mol)
                                  194.61285 (Kcal/Mol)
 Warning -- explicit consideration of  29 degrees of freedom as
           vibrations may cause significant error
 Vibrational temperatures:     24.89    36.80    47.67    64.07    80.73
          (Kelvin)            108.90   157.89   203.79   229.42   243.40
                              301.86   320.08   327.58   369.22   392.58
                              418.11   455.32   471.01   488.69   505.87
                              582.81   629.21   659.37   664.36   726.43
                              756.06   832.17   849.56   889.98  1003.71
                             1049.62  1081.70  1100.23  1110.07  1121.18
                             1184.18  1217.54  1270.22  1280.38  1285.57
                             1291.92  1347.62  1349.79  1373.29  1396.96
                             1413.24  1464.61  1505.28  1535.69  1543.22
                             1567.16  1583.53  1642.13  1649.35  1678.33
                             1709.77  1731.94  1747.39  1762.75  1770.05
                             1837.50  1850.27  1863.02  1870.42  1891.59
                             1931.01  1954.22  1986.85  2030.27  2046.82
                             2050.32  2068.37  2087.86  2136.34  2151.92
                             2157.81  2187.26  2187.39  2193.24  2203.08
                             2207.01  2209.24  2237.05  2241.33  2257.05
                             2579.14  4383.11  4398.31  4399.80  4410.55
                             4411.24  4414.80  4440.15  4476.64  4478.75
                             4488.32  4492.15  4492.72  4508.89  4512.37
                             4565.60  4570.07  4656.83  4725.53  5017.53

 Zero-point correction=                           0.310135 (Hartree/Particle)
 Thermal correction to Energy=                    0.328805
 Thermal correction to Enthalpy=                  0.329749
 Thermal correction to Gibbs Free Energy=         0.260470
 Sum of electronic and zero-point Energies=          -1181.353374
 Sum of electronic and thermal Energies=             -1181.334704
 Sum of electronic and thermal Enthalpies=           -1181.333760
 Sum of electronic and thermal Free Energies=        -1181.403039

                     E (Thermal)             CV                S
                      KCal/Mol        Cal/Mol-Kelvin    Cal/Mol-Kelvin
 Total                  206.328             69.403            145.810
 Electronic               0.000              0.000              0.000
 Translational            0.889              2.981             42.669
 Rotational               0.889              2.981             34.010
 Vibrational            204.551             63.441             69.131
 Vibration     1          0.593              1.986              6.922
 Vibration     2          0.593              1.985              6.146
 Vibration     3          0.594              1.983              5.633
 Vibration     4          0.595              1.980              5.047
 Vibration     5          0.596              1.975              4.590
 Vibration     6          0.599              1.965              4.000
 Vibration     7          0.606              1.941              3.274
 Vibration     8          0.615              1.912              2.782
 Vibration     9          0.621              1.892              2.556
 Vibration    10          0.625              1.880              2.445
 Vibration    11          0.642              1.826              2.045
 Vibration    12          0.648              1.807              1.939
 Vibration    13          0.651              1.799              1.897
 Vibration    14          0.666              1.752              1.685
 Vibration    15          0.676              1.723              1.578
 Vibration    16          0.687              1.691              1.470
 Vibration    17          0.703              1.642              1.328
 Vibration    18          0.711              1.621              1.273
 Vibration    19          0.720              1.596              1.214
 Vibration    20          0.728              1.572              1.159
 Vibration    21          0.770              1.459              0.944
 Vibration    22          0.798              1.389              0.835
 Vibration    23          0.816              1.343              0.771
 Vibration    24          0.819              1.335              0.761
 Vibration    25          0.860              1.239              0.646
 Vibration    26          0.880              1.194              0.597
 Vibration    27          0.935              1.078              0.488
 Vibration    28          0.948              1.052              0.466
 Vibration    29          0.978              0.993              0.419

 Optimization completed.
    -- Stationary point found.
 Normal termination of Gaussian 16 at Fri Dec 11 20:32:25 2020.

 ----------------------------------------------------------------------
 # B3LYP/6-311++G(d,p) empiricaldispersion=gd3bj scf=xqc pop=npa geom=c
 heck
 ----------------------------------------------------------------------

 --------------------------------------
 CID_63302814_JID_8318_Energie_neutraal
 --------------------------------------
 Structure from the checkpoint file:  "JID_8318.chk"
 Charge =  0 Multiplicity = 1

 SCF Done:  E(RB3LYP) =  -1181.91201398     A.U. after   15 cycles
 Normal termination of Gaussian 16 at Fri Dec 11 20:38:21 2020.

 ----------------------------------------------------------------------
 # B3LYP/6-311++G(d,p) empiricaldispersion=gd3bj scf=xqc pop=npa geom=c
 heck
 ----------------------------------------------------------------------

 ------------------------------------
 CID_63302814_JID_8318_Energie_kation
 ------------------------------------
 Structure from the checkpoint file:  "JID_8318.chk"
 Charge =  1 Multiplicity = 2

 SCF Done:  E(UB3LYP) =  -1181.60767485     A.U. after   29 cycles
 Normal termination of Gaussian 16 at Fri Dec 11 20:54:12 2020.
 Gaussian 16:  ES64L-G16RevA.03 25-Dec-2016

 ----------------------------------------------------------------------
 # B3LYP/6-311++G(d,p) empiricaldispersion=gd3bj scf=xqc pop=npa geom=c
 heck
 ----------------------------------------------------------------------

 -----------------------------------
 CID_63302814_JID_8318_Energie_anion
 -----------------------------------
 Structure from the checkpoint file:  "JID_8318.chk"
 Charge = -1 Multiplicity = 2

                         Standard orientation:
 ---------------------------------------------------------------------
 Center     Atomic      Atomic             Coordinates (Angstroms)
 Number     Number       Type             X           Y           Z
 ---------------------------------------------------------------------
      1          6           0       -5.228420    0.963196   -0.356738
      2          6           0       -4.309535   -0.244638   -0.175384
      3          6           0       -4.778618   -1.114131    0.993171
      4          6           0       -4.192847   -1.039101   -1.478206
      5          8           0       -3.021732    0.378325    0.148143
      6          6           0       -1.929643   -0.386423    0.393735
      7          8           0       -1.866689   -1.605327    0.362406
      8          7           0       -0.872959    0.416161    0.711475
      9          6           0        0.536255    0.023250    0.607345
     10          6           0        0.886314    1.546838    0.454970
     11          6           0       -0.635542    1.813417    0.323998
     12          7           0        1.689724    2.035019   -0.643025
     13          6           0        3.125984    1.805241   -0.498723
     14          6           0        3.521179    0.346751   -0.451673
     15          7           0        3.308980   -0.482578   -1.435167
     16          6           0        3.678960   -1.764636   -1.098736
     17          6           0        4.179472   -1.930278    0.161250
     18         16           0        4.198467   -0.405831    0.986458
     19          1           0       -6.240656    0.631145   -0.609084
     20          1           0       -4.862093    1.607477   -1.162362
     21          1           0       -5.274121    1.553099    0.564101
     22          1           0       -5.790887   -1.482776    0.793786
     23          1           0       -4.112254   -1.965575    1.135806
     24          1           0       -4.804878   -0.524046    1.915548
     25          1           0       -3.812754   -0.395966   -2.279485
     26          1           0       -3.520319   -1.888815   -1.355833
     27          1           0       -5.181385   -1.406319   -1.775236
     28          1           0        0.929631   -0.495050    1.486456
     29          1           0        0.750414   -0.573489   -0.286586
     30          1           0        1.296233    1.955432    1.383901
     31          1           0       -0.947036    2.037454   -0.704648
     32          1           0       -1.072237    2.557514    0.996460
     33          1           0        1.379674    1.606317   -1.514500
     34          1           0        3.629269    2.272986   -1.351613
     35          1           0        3.470568    2.316535    0.406757
     36          1           0        3.558582   -2.558171   -1.826963
     37          1           0        4.534575   -2.835564    0.632749
 ---------------------------------------------------------------------

 SCF Done:  E(UB3LYP) =  -1181.90442379     A.U. after   33 cycles
 SCF Done:  E(UB3LYP) =  -1181.90442379     a.u. after    1 cycles

 The electronic state is 2-A.
 Alpha  occ. eigenvalues --  -88.75788 -19.05879 -18.99423 -14.23621 -14.21032
 Alpha  occ. eigenvalues --  -14.18894 -10.21519 -10.14835 -10.11592 -10.11474
 Alpha  occ. eigenvalues --  -10.10732 -10.10056 -10.09846 -10.08569 -10.07637
 Alpha  occ. eigenvalues --  -10.06765 -10.06377 -10.06374  -7.84449  -5.80716
 Alpha  occ. eigenvalues --   -5.80379  -5.80086  -1.00330  -0.91565  -0.86752
 Alpha  occ. eigenvalues --   -0.84479  -0.80988  -0.72092  -0.67848  -0.66679
 Alpha  occ. eigenvalues --   -0.63460  -0.60228  -0.60050  -0.59842  -0.57211
 Alpha  occ. eigenvalues --   -0.52728  -0.49100  -0.47415  -0.44644  -0.43471
 Alpha  occ. eigenvalues --   -0.41706  -0.40418  -0.39198  -0.38411  -0.37454
 Alpha  occ. eigenvalues --   -0.37062  -0.35270  -0.34626  -0.33935  -0.32689
 Alpha  occ. eigenvalues --   -0.32241  -0.31129  -0.30660  -0.30308  -0.29445
 Alpha  occ. eigenvalues --   -0.29176  -0.28607  -0.27604  -0.27323  -0.26611
 Alpha  occ. eigenvalues --   -0.26131  -0.25321  -0.25070  -0.24829  -0.24271
 Alpha  occ. eigenvalues --   -0.20170  -0.17701  -0.17275  -0.16366  -0.15113
 Alpha  occ. eigenvalues --   -0.14289  -0.13148   0.04455
 Alpha virt. eigenvalues --    0.05511   0.07295   0.07864   0.08144   0.08303
 Alpha virt. eigenvalues --    0.08804   0.09056   0.09891   0.10189   0.10419
 Alpha virt. eigenvalues --    0.10780   0.11538   0.11808   0.12107   0.12508

  Beta  occ. eigenvalues --  -88.75746 -19.05873 -18.99421 -14.23616 -14.20992
  Beta  occ. eigenvalues --  -14.18828 -10.21518 -10.14833 -10.11591 -10.11473
  Beta  occ. eigenvalues --  -10.10758 -10.10053 -10.09459 -10.08585 -10.07400
  Beta  occ. eigenvalues --  -10.06731 -10.06355 -10.06352  -7.84410  -5.80702
  Beta  occ. eigenvalues --   -5.80365  -5.79933  -1.00322  -0.91558  -0.86730
  Beta  occ. eigenvalues --   -0.84192  -0.80908  -0.72074  -0.67552  -0.66572
  Beta  occ. eigenvalues --   -0.63162  -0.60186  -0.60010  -0.59819  -0.57121
  Beta  occ. eigenvalues --   -0.52689  -0.49063  -0.47058  -0.44591  -0.43227
  Beta  occ. eigenvalues --   -0.41672  -0.40350  -0.39058  -0.38305  -0.37385
  Beta  occ. eigenvalues --   -0.37037  -0.35197  -0.34572  -0.33889  -0.32610
  Beta  occ. eigenvalues --   -0.32124  -0.31115  -0.30533  -0.30191  -0.29381
  Beta  occ. eigenvalues --   -0.29040  -0.28123  -0.27570  -0.27194  -0.26542
  Beta  occ. eigenvalues --   -0.26102  -0.25297  -0.24891  -0.24673  -0.24249
  Beta  occ. eigenvalues --   -0.20160  -0.17663  -0.16530  -0.16191  -0.15019
  Beta  occ. eigenvalues --   -0.13948  -0.12069
  Beta virt. eigenvalues --    0.06432   0.07312   0.07876   0.08126   0.08422
  Beta virt. eigenvalues --    0.08796   0.09102   0.09617   0.09835   0.10359
  Beta virt. eigenvalues --    0.10617   0.10939   0.11522   0.11897   0.12133

 Mulliken charges and spin densities:
               1          2
     1  C    0.298311  -0.692099
     2  C   -1.259611   1.242198
     3  C    0.457010  -0.864067
     4  C    0.523025  -0.946498
     5  O    0.081780  -0.006583
     6  C    0.279360  -0.241218
     7  O   -0.280365   0.003002
     8  N   -0.008810  -0.009535
     9  C   -0.569414  -0.107497
    10  C   -0.231024  -0.000570
    11  C   -0.369823  -0.039309
    12  N    0.138158   0.005023
    13  C   -0.540525  -0.165065
    14  C    0.216635   0.217107
    15  N   -0.118557   0.045299
    16  C   -0.194405   0.007423
    17  C   -0.405302   0.131520
    18  S    0.046940   0.124889
    19  H   -0.289121   0.439551
    20  H   -0.107847   0.255399
    21  H   -0.129254   0.284462
    22  H   -0.232423   0.407974
    23  H    0.119785   0.067173
    24  H    0.045952   0.085172
    25  H    0.073940   0.060901
    26  H    0.094521   0.094170
    27  H   -0.194035   0.353736
    28  H    0.119509   0.070109
    29  H    0.249770  -0.002615
    30  H    0.160688   0.008596
    31  H    0.166995  -0.019817
    32  H    0.123799   0.048686
    33  H    0.228314  -0.004218
    34  H    0.058857   0.133024
    35  H    0.131911   0.017113
    36  H    0.127459   0.000353
    37  H    0.187796  -0.003787
 Sum of Mulliken charges =  -1.00000   1.00000

 Dipole moment (field-independent basis, Debye):
    X=              4.8866    Y=              1.7932    Z=              1.6757  Tot=              5.4683
 Quadrupole moment (field-independent basis, Debye-Ang):
   XX=           -238.2807   YY=           -142.0550   ZZ=           -138.4696
   XY=             -4.1175   XZ=              1.1223   YZ=              1.9858

 Summary of Natural Population Analysis:

                                       Natural Population
                Natural  -----------------------------------------------
    Atom  No    Charge         Core      Valence    Rydberg      Total
 -----------------------------------------------------------------------
      C    1   -0.28878      0.99960     2.28179    0.00739     3.28878
      C    2    0.13326      0.99954     1.85302    0.01418     2.86674
      C    3   -0.30223      0.99960     2.29607    0.00656     3.30223
      C    4   -0.30187      0.99960     2.29576    0.00651     3.30187
      O    5   -0.29972      0.99985     3.29066    0.00921     4.29972
      C    6    0.46913      0.99964     1.50679    0.02445     2.53087
      O    7   -0.33301      0.99987     3.32846    0.00468     4.33301
      N    8   -0.26774      0.99964     2.75800    0.01010     3.76774
      C    9   -0.08475      0.99964     2.07605    0.00905     3.08475
      C   10   -0.01499      0.99959     2.00175    0.01365     3.01499
      C   11   -0.07406      0.99964     2.06337    0.01105     3.07406
      N   12   -0.32942      0.99974     2.81732    0.01236     3.82942
      C   13   -0.11131      0.99957     2.09700    0.01474     3.11131
      C   14    0.07882      0.99961     1.90184    0.01972     2.92118
      N   15   -0.25181      0.99964     2.73976    0.01241     3.75181
      C   16   -0.02868      0.99954     2.01545    0.01368     3.02868
      C   17   -0.17912      0.99955     2.17013    0.00944     3.17912
      S   18    0.18105      4.99942     2.79834    0.02119     7.81895
      H   19    0.10419      0.00000     0.39414    0.00167     0.39581
      H   20    0.10220      0.00000     0.39673    0.00107     0.39780
      H   21    0.10261      0.00000     0.39625    0.00114     0.39739
      H   22    0.10354      0.00000     0.39540    0.00106     0.39646
      H   23    0.11460      0.00000     0.38448    0.00092     0.38540
      H   24    0.10092      0.00000     0.39816    0.00093     0.39908
      H   25    0.10061      0.00000     0.39852    0.00086     0.39939
      H   26    0.11502      0.00000     0.38410    0.00088     0.38498
      H   27    0.10336      0.00000     0.39565    0.00100     0.39664
      H   28    0.09968      0.00000     0.39893    0.00140     0.40032
      H   29    0.10355      0.00000     0.39449    0.00196     0.39645
      H   30    0.09379      0.00000     0.40526    0.00095     0.40621
      H   31    0.09376      0.00000     0.40493    0.00130     0.40624
      H   32    0.09512      0.00000     0.40373    0.00115     0.40488
      H   33    0.17696      0.00000     0.32128    0.00176     0.32304
      H   34    0.10448      0.00000     0.39370    0.00183     0.39552
      H   35    0.09397      0.00000     0.40494    0.00109     0.40603
      H   36    0.09374      0.00000     0.40523    0.00103     0.40626
      H   37    0.10313      0.00000     0.39597    0.00090     0.39687
 =======================================================================
   * Total *    0.00000     21.99329    49.76346    0.24325    72.00000

 Normal termination of Gaussian 16 at Fri Dec 11 21:12:28 2020.
