 Gaussian 16, Revision A.03,

 -----------------------------------------------------------
 # opt freq B3LYP/6-31G(d) empiricaldispersion=gd3bj scf=xqc
 -----------------------------------------------------------

 ------------------------------
 CID_74892646_JID_3601_neutraal
 ------------------------------
 Symbolic Z-matrix:
 Charge =  0 Multiplicity = 1

 SCF Done:  E(RB3LYP) =  -590.408734882     A.U. after   15 cycles
 SCF Done:  E(RB3LYP) =  -590.414368554     A.U. after   13 cycles
 SCF Done:  E(RB3LYP) =  -590.414552775     A.U. after   12 cycles
 SCF Done:  E(RB3LYP) =  -590.411827089     A.U. after   13 cycles
 SCF Done:  E(RB3LYP) =  -590.414814720     A.U. after   12 cycles
 SCF Done:  E(RB3LYP) =  -590.414951718     A.U. after   12 cycles
 SCF Done:  E(RB3LYP) =  -590.415354460     A.U. after   12 cycles
 SCF Done:  E(RB3LYP) =  -590.415893146     A.U. after   12 cycles
 SCF Done:  E(RB3LYP) =  -590.416064817     A.U. after   11 cycles
 SCF Done:  E(RB3LYP) =  -590.416347668     A.U. after   12 cycles
 SCF Done:  E(RB3LYP) =  -590.416400354     A.U. after   11 cycles
 SCF Done:  E(RB3LYP) =  -590.416414038     A.U. after   11 cycles
 SCF Done:  E(RB3LYP) =  -590.416424592     A.U. after   10 cycles
 SCF Done:  E(RB3LYP) =  -590.416428574     A.U. after    9 cycles
 SCF Done:  E(RB3LYP) =  -590.416430211     A.U. after    8 cycles
 SCF Done:  E(RB3LYP) =  -590.416430849     A.U. after    8 cycles
 Optimization completed.
    -- Stationary point found.
 Normal termination of Gaussian 16 at Wed Dec  9 23:43:03 2020.

 --------------------------------------------------------------------
 #N Geom=AllCheck Guess=TCheck SCRF=Check GenChk RB3LYP/6-31G(d) Freq
 --------------------------------------------------------------------

 Structure from the checkpoint file:  "JID_3601.chk"
 ------------------------------
 CID_74892646_JID_3601_neutraal
 ------------------------------
 Charge =  0 Multiplicity = 1

 SCF Done:  E(RB3LYP) =  -590.416430849     A.U. after    1 cycles

  Exact polarizability: 209.934 -16.334 102.893   6.145   3.381  47.745
 Approx polarizability: 320.895 -24.669 188.803  10.277   9.224  73.535

                      1                      2                      3
                      A                      A                      A
 Frequencies --     56.1867                70.8099               118.0195
 Red. masses --      4.6453                 5.8140                 4.5284
 Frc consts  --      0.0086                 0.0172                 0.0372
 IR Inten    --      1.5139                 0.3804                 0.1077

                      4                      5                      6
                      A                      A                      A
 Frequencies --    137.5387               215.9240               257.9534
 Red. masses --      4.4289                 2.8271                 4.8532
 Frc consts  --      0.0494                 0.0777                 0.1903
 IR Inten    --      1.7548                 6.6300                 0.4761

                      7                      8                      9
                      A                      A                      A
 Frequencies --    278.3794               337.7569               375.5147
 Red. masses --      4.1348                 1.3697                 4.5198
 Frc consts  --      0.1888                 0.0921                 0.3755
 IR Inten    --      6.3746               144.2830                27.4614

                     10                     11                     12
                      A                      A                      A
 Frequencies --    415.2356               444.1964               477.3403
 Red. masses --      5.3602                 4.1383                 5.1263
 Frc consts  --      0.5445                 0.4811                 0.6882
 IR Inten    --      2.6492                11.4616                 1.0556

                     13                     14                     15
                      A                      A                      A
 Frequencies --    500.0007               546.2706               561.0808
 Red. masses --      7.7558                 6.2123                 1.2776
 Frc consts  --      1.1424                 1.0922                 0.2370
 IR Inten    --      1.0514                 5.6749                55.4745

                     16                     17                     18
                      A                      A                      A
 Frequencies --    593.5773               639.5969               650.4866
 Red. masses --      5.4196                 1.2171                 3.5848
 Frc consts  --      1.1250                 0.2934                 0.8937
 IR Inten    --      4.7783                42.6101                 0.7886

                     19                     20                     21
                      A                      A                      A
 Frequencies --    663.8722               726.3431               756.4723
 Red. masses --      6.4934                 6.3800                 5.8259
 Frc consts  --      1.6861                 1.9831                 1.9643
 IR Inten    --      1.8899                 7.7759                 5.7999

                     22                     23                     24
                      A                      A                      A
 Frequencies --    778.2777               838.6462               864.1690
 Red. masses --      4.2169                 1.5948                 3.3729
 Frc consts  --      1.5049                 0.6609                 1.4841
 IR Inten    --      0.5141                18.8959                 7.6276

                     25                     26                     27
                      A                      A                      A
 Frequencies --    908.2795               936.3495               940.6886
 Red. masses --      1.4360                 3.9939                 1.3871
 Frc consts  --      0.6980                 2.0631                 0.7232
 IR Inten    --     24.2382                32.7167                 2.5406

                     28                     29                     30
                      A                      A                      A
 Frequencies --    994.6126              1002.6347              1057.6806
 Red. masses --      2.1045                 4.0220                 6.1438
 Frc consts  --      1.2266                 2.3822                 4.0495
 IR Inten    --     20.8834                24.3688               104.4124

                     31                     32                     33
                      A                      A                      A
 Frequencies --   1146.7801              1161.3150              1189.4101
 Red. masses --      2.0107                 2.2267                 1.6875
 Frc consts  --      1.5579                 1.7694                 1.4065
 IR Inten    --     37.8176                 9.3283                 6.0129

                     34                     35                     36
                      A                      A                      A
 Frequencies --   1229.5094              1295.7912              1317.9882
 Red. masses --      1.7337                 2.1109                 4.2382
 Frc consts  --      1.5441                 2.0883                 4.3376
 IR Inten    --      8.6286                28.7135                26.8363

                     37                     38                     39
                      A                      A                      A
 Frequencies --   1331.0469              1383.9572              1387.5033
 Red. masses --      7.6333                 2.1682                 1.2919
 Frc consts  --      7.9680                 2.4468                 1.4654
 IR Inten    --     29.6439                 9.8440                 3.8102

                     40                     41                     42
                      A                      A                      A
 Frequencies --   1424.4652              1435.2794              1519.0721
 Red. masses --      3.3834                 1.4059                 1.0932
 Frc consts  --      4.0449                 1.7064                 1.4864
 IR Inten    --    149.7472                46.4138                 1.3156

                     43                     44                     45
                      A                      A                      A
 Frequencies --   1524.9913              1593.2667              1655.8493
 Red. masses --      3.5817                 7.6225                 7.7029
 Frc consts  --      4.9076                11.4006                12.4437
 IR Inten    --     20.7939                 7.6339                12.0994

                     46                     47                     48
                      A                      A                      A
 Frequencies --   1667.3354              2229.5035              3001.7781
 Red. masses --      7.8333                 6.1628                 1.0719
 Frc consts  --     12.8304                18.0488                 5.6908
 IR Inten    --     11.2407                 2.9002                56.9489

                     49                     50                     51
                      A                      A                      A
 Frequencies --   3134.1340              3194.0900              3235.4101
 Red. masses --      1.0921                 1.0911                 1.0934
 Frc consts  --      6.3204                 6.5586                 6.7437
 IR Inten    --     16.1689                14.5675                 0.9292

                     52                     53                     54
                      A                      A                      A
 Frequencies --   3284.7377              3495.8481              3742.1696
 Red. masses --      1.0978                 1.1569                 1.0662
 Frc consts  --      6.9785                 8.3303                 8.7969
 IR Inten    --      1.5661                96.9369                17.9825

 - Thermochemistry -
 -------------------
 Temperature   298.150 Kelvin.  Pressure   1.00000 Atm.
 Atom     1 has atomic number  6 and mass  12.00000

 Molecular mass:   173.04768 amu.
 Principal axes and moments of inertia in atomic units:
                           1         2         3
     Eigenvalues --   734.671534314.500684940.60803
           X            0.99998  -0.00434   0.00391
           Y            0.00433   0.99999   0.00269
           Z           -0.00392  -0.00267   0.99999
 This molecule is an asymmetric top.
 Rotational symmetry number  1.
 Warning -- assumption of classical behavior for rotation
           may cause significant error
 Rotational temperatures (Kelvin)      0.11789     0.02008     0.01753
 Rotational constants (GHZ):           2.45653     0.41830     0.36529
 Zero-point vibrational energy     387142.2 (Joules/Mol)
                                   92.52921 (Kcal/Mol)
 Warning -- explicit consideration of  16 degrees of freedom as
           vibrations may cause significant error
 Vibrational temperatures:     80.84   101.88   169.80   197.89   310.67
          (Kelvin)            371.14   400.53   485.96   540.28   597.43
                              639.10   686.79   719.39   785.96   807.27
                              854.03   920.24   935.91   955.16  1045.05
                             1088.39  1119.77  1206.62  1243.35  1306.81
                             1347.20  1353.44  1431.03  1442.57  1521.77
                             1649.96  1670.87  1711.30  1768.99  1864.35
                             1896.29  1915.08  1991.21  1996.31  2049.49
                             2065.05  2185.61  2194.12  2292.36  2382.40
                             2398.92  3207.76  4318.89  4509.32  4595.58
                             4655.03  4726.00  5029.75  5384.15

 Zero-point correction=                           0.147455 (Hartree/Particle)
 Thermal correction to Energy=                    0.158214
 Thermal correction to Enthalpy=                  0.159158
 Thermal correction to Gibbs Free Energy=         0.110461
 Sum of electronic and zero-point Energies=           -590.268976
 Sum of electronic and thermal Energies=              -590.258217
 Sum of electronic and thermal Enthalpies=            -590.257273
 Sum of electronic and thermal Free Energies=         -590.305970

                     E (Thermal)             CV                S
                      KCal/Mol        Cal/Mol-Kelvin    Cal/Mol-Kelvin
 Total                   99.281             41.389            102.492
 Electronic               0.000              0.000              0.000
 Translational            0.889              2.981             41.353
 Rotational               0.889              2.981             31.127
 Vibrational             97.503             35.427             30.013
 Vibration     1          0.596              1.975              4.587
 Vibration     2          0.598              1.968              4.131
 Vibration     3          0.608              1.934              3.133
 Vibration     4          0.614              1.916              2.838
 Vibration     5          0.645              1.817              1.993
 Vibration     6          0.667              1.749              1.676
 Vibration     7          0.679              1.714              1.544
 Vibration     8          0.718              1.600              1.223
 Vibration     9          0.746              1.522              1.057
 Vibration    10          0.779              1.437              0.908
 Vibration    11          0.804              1.374              0.814
 Vibration    12          0.834              1.300              0.717
 Vibration    13          0.855              1.250              0.658
 Vibration    14          0.901              1.148              0.552
 Vibration    15          0.917              1.116              0.522
 Vibration    16          0.951              1.045              0.461

                           ! Non-Optimized Parameters !
 Normal termination of Gaussian 16 at Wed Dec  9 23:46:54 2020.

 ----------------------------------------------------------------------
 # B3LYP/6-311++G(d,p) empiricaldispersion=gd3bj scf=xqc pop=npa geom=c
 heck
 ----------------------------------------------------------------------

 --------------------------------------
 CID_74892646_JID_3601_Energie_neutraal
 --------------------------------------
 Structure from the checkpoint file:  "JID_3601.chk"
 Charge =  0 Multiplicity = 1

 SCF Done:  E(RB3LYP) =  -590.585494102     A.U. after   14 cycles
 Normal termination of Gaussian 16 at Wed Dec  9 23:48:21 2020.

 ----------------------------------------------------------------------
 # B3LYP/6-311++G(d,p) empiricaldispersion=gd3bj scf=xqc pop=npa geom=c
 heck
 ----------------------------------------------------------------------

 ------------------------------------
 CID_74892646_JID_3601_Energie_kation
 ------------------------------------
 Structure from the checkpoint file:  "JID_3601.chk"
 Charge =  1 Multiplicity = 2

 SCF Done:  E(UB3LYP) =  -590.279870543     A.U. after   22 cycles
 Normal termination of Gaussian 16 at Wed Dec  9 23:51:27 2020.
 Gaussian 16:  ES64L-G16RevA.03 25-Dec-2016

 ----------------------------------------------------------------------
 # B3LYP/6-311++G(d,p) empiricaldispersion=gd3bj scf=xqc pop=npa geom=c
 heck
 ----------------------------------------------------------------------

 -----------------------------------
 CID_74892646_JID_3601_Energie_anion
 -----------------------------------
 Structure from the checkpoint file:  "JID_3601.chk"
 Charge = -1 Multiplicity = 2

                         Standard orientation:
 ---------------------------------------------------------------------
 Center     Atomic      Atomic             Coordinates (Angstroms)
 Number     Number       Type             X           Y           Z
 ---------------------------------------------------------------------
      1          6           0        4.749270   -1.124311    0.056854
      2          6           0        3.627487   -0.672155    0.038012
      3          6           0        2.310578   -0.129700    0.017476
      4          6           0        1.187028   -0.961096   -0.144166
      5          6           0       -0.029533   -0.310537   -0.148306
      6          6           0       -0.128041    1.088836    0.001916
      7          6           0       -1.536602    1.388170   -0.045951
      8          6           0       -2.172968    0.200847   -0.221599
      9          8           0       -1.274243   -0.856126   -0.290524
     10          6           0       -3.603653   -0.202588   -0.337541
     11          8           0       -4.014855   -1.065377    0.715923
     12          7           0        0.941014    1.886048    0.156289
     13          6           0        2.121098    1.270826    0.161056
     14          1           0        5.738349   -1.521919    0.074033
     15          1           0        1.284272   -2.034643   -0.257603
     16          1           0       -1.999317    2.359799    0.046243
     17          1           0       -4.231099    0.689583   -0.276583
     18          1           0       -3.774974   -0.669251   -1.321032
     19          1           0       -3.437517   -1.844823    0.686087
     20          1           0        2.997989    1.901197    0.285121
 ---------------------------------------------------------------------

 SCF Done:  E(UB3LYP) =  -590.599647756     A.U. after   26 cycles

 The electronic state is 2-A.
 Alpha  occ. eigenvalues --  -19.04724 -19.01285 -14.15381 -10.11155 -10.08782
 Alpha  occ. eigenvalues --  -10.08351 -10.06382 -10.05130 -10.04285 -10.04151
 Alpha  occ. eigenvalues --  -10.03431 -10.02954 -10.02507  -0.97306  -0.91373
 Alpha  occ. eigenvalues --   -0.79574  -0.68188  -0.65510  -0.64195  -0.60554
 Alpha  occ. eigenvalues --   -0.56562  -0.50132  -0.48546  -0.45880  -0.40619
 Alpha  occ. eigenvalues --   -0.40321  -0.37893  -0.37496  -0.35390  -0.32851
 Alpha  occ. eigenvalues --   -0.31983  -0.30865  -0.29980  -0.26690  -0.25957
 Alpha  occ. eigenvalues --   -0.25154  -0.24260  -0.23505  -0.19660  -0.17257
 Alpha  occ. eigenvalues --   -0.15236  -0.14805  -0.12350  -0.11521  -0.08936
 Alpha  occ. eigenvalues --    0.04205
 Alpha virt. eigenvalues --    0.08253   0.08831   0.09854   0.10933   0.11490
 Alpha virt. eigenvalues --    0.11813   0.11934   0.12750   0.14161   0.14412
 Alpha virt. eigenvalues --    0.16196   0.16305   0.16793   0.16907   0.17292

  Beta  occ. eigenvalues --  -19.04645 -19.01207 -14.15088 -10.11173 -10.08894
  Beta  occ. eigenvalues --  -10.07963 -10.06471 -10.04916 -10.04178 -10.04062
  Beta  occ. eigenvalues --  -10.03489 -10.02570 -10.02347  -0.97113  -0.91187
  Beta  occ. eigenvalues --   -0.79126  -0.67632  -0.65095  -0.63856  -0.60226
  Beta  occ. eigenvalues --   -0.56364  -0.49946  -0.48029  -0.45718  -0.40383
  Beta  occ. eigenvalues --   -0.40126  -0.37662  -0.37215  -0.35125  -0.32471
  Beta  occ. eigenvalues --   -0.31674  -0.30721  -0.29721  -0.26572  -0.25788
  Beta  occ. eigenvalues --   -0.24358  -0.24055  -0.23146  -0.18436  -0.17112
  Beta  occ. eigenvalues --   -0.15126  -0.13708  -0.11196  -0.11184  -0.07470
  Beta virt. eigenvalues --    0.08041   0.08783   0.09535   0.10306   0.10941
  Beta virt. eigenvalues --    0.11494   0.11791   0.12376   0.12685   0.14324
  Beta virt. eigenvalues --    0.14985   0.16194   0.16549   0.16781   0.17122

 Mulliken charges and spin densities:
               1          2
     1  C   -1.057854   0.192660
     2  C    1.327817  -0.062718
     3  C    0.262719   0.115878
     4  C   -0.585018   0.344166
     5  C   -0.009757  -0.107314
     6  C   -0.344753   0.149551
     7  C   -0.129653  -0.076941
     8  C    0.258735   0.365633
     9  O   -0.146687   0.022509
    10  C   -0.348631  -0.215025
    11  O   -0.245175  -0.011566
    12  N   -0.083146   0.134819
    13  C   -0.703977  -0.068721
    14  H    0.111703  -0.008012
    15  H    0.113061  -0.015383
    16  H    0.120286   0.002573
    17  H    0.154134   0.029833
    18  H    0.015820   0.117871
    19  H    0.158100   0.086297
    20  H    0.132275   0.003891
 Sum of Mulliken charges =  -1.00000   1.00000

 Dipole moment (field-independent basis, Debye):
    X=             -2.0363    Y=             -0.5561    Z=             -1.1275  Tot=              2.3931
 Quadrupole moment (field-independent basis, Debye-Ang):
   XX=           -124.6334   YY=            -88.9238   ZZ=            -85.7444
   XY=             -4.0008   XZ=              4.4719   YZ=              0.1073

 Summary of Natural Population Analysis:

                                       Natural Population
                Natural  -----------------------------------------------
    Atom  No    Charge         Core      Valence    Rydberg      Total
 -----------------------------------------------------------------------
      C    1   -0.12211      0.99928     2.11819    0.00464     3.12211
      C    2   -0.01793      0.99945     2.00479    0.01369     3.01793
      C    3   -0.01756      0.99950     2.00657    0.01149     3.01756
      C    4    0.00967      0.99954     1.97917    0.01163     2.99033
      C    5    0.09758      0.99937     1.88179    0.02126     2.90242
      C    6    0.09338      0.99947     1.89181    0.01534     2.90662
      C    7   -0.16883      0.99946     2.16092    0.00845     3.16883
      C    8    0.21092      0.99947     1.77229    0.01732     2.78908
      O    9   -0.25432      0.99985     3.24417    0.01030     4.25432
      C   10   -0.03204      0.99955     2.02028    0.01222     3.03204
      O   11   -0.36399      0.99990     3.35696    0.00713     4.36399
      N   12   -0.20499      0.99968     2.69060    0.01471     3.70499
      C   13    0.00348      0.99963     1.97789    0.01900     2.99652
      H   14    0.10090      0.00000     0.39757    0.00153     0.39910
      H   15    0.09276      0.00000     0.40567    0.00157     0.40724
      H   16    0.10385      0.00000     0.39532    0.00083     0.39615
      H   17    0.09003      0.00000     0.40870    0.00127     0.40997
      H   18    0.08098      0.00000     0.41697    0.00205     0.41902
      H   19    0.22792      0.00000     0.26821    0.00388     0.27208
      H   20    0.08300      0.00000     0.41526    0.00174     0.41700
 =======================================================================
   * Total *    0.01268     12.99416    31.81312    0.18005    44.98732

 Normal termination of Gaussian 16 at Wed Dec  9 23:55:05 2020.
