 Gaussian 16, Revision A.03,

 -----------------------------------------------------------
 # opt freq B3LYP/6-31G(d) empiricaldispersion=gd3bj scf=xqc
 -----------------------------------------------------------

 ------------------------------
 CID_21630360_JID_4632_neutraal
 ------------------------------
 Symbolic Z-matrix:
 Charge =  0 Multiplicity = 1

 SCF Done:  E(RB3LYP) =  -544.343760370     A.U. after   14 cycles
 SCF Done:  E(RB3LYP) =  -544.346781032     A.U. after   12 cycles
 SCF Done:  E(RB3LYP) =  -544.347035919     A.U. after   10 cycles
 SCF Done:  E(RB3LYP) =  -544.347087236     A.U. after    9 cycles
 SCF Done:  E(RB3LYP) =  -544.347106026     A.U. after    9 cycles
 SCF Done:  E(RB3LYP) =  -544.347135263     A.U. after    9 cycles
 SCF Done:  E(RB3LYP) =  -544.347157659     A.U. after    9 cycles
 SCF Done:  E(RB3LYP) =  -544.347165014     A.U. after    9 cycles
 SCF Done:  E(RB3LYP) =  -544.347166144     A.U. after    8 cycles
 SCF Done:  E(RB3LYP) =  -544.347166441     A.U. after    7 cycles
 SCF Done:  E(RB3LYP) =  -544.347166805     A.U. after    7 cycles
 SCF Done:  E(RB3LYP) =  -544.347166847     A.U. after    6 cycles
 Optimization completed.
    -- Stationary point found.
 Normal termination of Gaussian 16 at Thu Dec 10 10:15:30 2020.

 --------------------------------------------------------------------
 #N Geom=AllCheck Guess=TCheck SCRF=Check GenChk RB3LYP/6-31G(d) Freq
 --------------------------------------------------------------------

 Structure from the checkpoint file:  "JID_4632.chk"
 ------------------------------
 CID_21630360_JID_4632_neutraal
 ------------------------------
 Charge =  0 Multiplicity = 1

 SCF Done:  E(RB3LYP) =  -544.347166847     A.U. after    1 cycles

  Exact polarizability: 185.415  -0.004 126.779  15.101  -0.002 115.649
 Approx polarizability: 267.345  -0.009 178.479  33.583  -0.006 186.238

                      1                      2                      3
                      A                      A                      A
 Frequencies --     48.9131                53.6572                72.6353
 Red. masses --      3.0781                 3.3410                 3.3196
 Frc consts  --      0.0043                 0.0057                 0.0103
 IR Inten    --      0.0562                 0.1253                 0.1337

                      4                      5                      6
                      A                      A                      A
 Frequencies --    108.6891               113.1983               129.2782
 Red. masses --      1.0491                 1.1121                 2.0171
 Frc consts  --      0.0073                 0.0084                 0.0199
 IR Inten    --      0.0104                 0.9755                 0.0279

                      7                      8                      9
                      A                      A                      A
 Frequencies --    150.4010               153.8102               168.8780
 Red. masses --      2.3741                 1.1473                 1.0431
 Frc consts  --      0.0316                 0.0160                 0.0175
 IR Inten    --      0.4353                 0.0061                 0.2821

                     10                     11                     12
                      A                      A                      A
 Frequencies --    247.6416               257.9711               258.1544
 Red. masses --      2.8319                 2.8682                 3.3238
 Frc consts  --      0.1023                 0.1125                 0.1305
 IR Inten    --      2.5145                 3.9620                 5.5631

                     13                     14                     15
                      A                      A                      A
 Frequencies --    287.4608               300.3509               346.1387
 Red. masses --      2.5305                 2.5748                 3.7361
 Frc consts  --      0.1232                 0.1369                 0.2637
 IR Inten    --      0.0810                 0.1911                 1.1893

                     16                     17                     18
                      A                      A                      A
 Frequencies --    352.1880               383.6356               479.1726
 Red. masses --      2.4628                 2.3013                 3.9727
 Frc consts  --      0.1800                 0.1996                 0.5374
 IR Inten    --      0.5422                 3.5777                 1.1317

                     19                     20                     21
                      A                      A                      A
 Frequencies --    499.5270               559.8236               562.8139
 Red. masses --      3.1248                 3.4948                 4.3045
 Frc consts  --      0.4594                 0.6453                 0.8033
 IR Inten    --      1.8290                 1.9285                 0.2364

                     22                     23                     24
                      A                      A                      A
 Frequencies --    625.4808               668.8520               715.9569
 Red. masses --      2.5794                 2.0738                 1.3954
 Frc consts  --      0.5946                 0.5466                 0.4214
 IR Inten    --      7.6197                10.2672                 0.0221

                     25                     26                     27
                      A                      A                      A
 Frequencies --    725.9927               763.7258               769.5440
 Red. masses --      3.5676                 1.5973                 4.1528
 Frc consts  --      1.1079                 0.5489                 1.4490
 IR Inten    --      3.1690                12.3298                20.1669

                     28                     29                     30
                      A                      A                      A
 Frequencies --    822.7600               843.2425               894.8795
 Red. masses --      5.4373                 2.6546                 2.8294
 Frc consts  --      2.1686                 1.1121                 1.3350
 IR Inten    --      1.2616                 2.0009                 7.0832

                     31                     32                     33
                      A                      A                      A
 Frequencies --    935.9714               943.8562               944.9332
 Red. masses --      2.0303                 2.0036                 1.2729
 Frc consts  --      1.0480                 1.0517                 0.6696
 IR Inten    --     12.9442                 6.1298                 1.2847

                     34                     35                     36
                      A                      A                      A
 Frequencies --    953.4059               985.9548               994.3438
 Red. masses --      2.8511                 1.4477                 1.5237
 Frc consts  --      1.5269                 0.8292                 0.8876
 IR Inten    --      6.3288                 0.1021                 0.0849

                     37                     38                     39
                      A                      A                      A
 Frequencies --    998.2602              1053.4128              1059.9005
 Red. masses --      1.6896                 1.4102                 1.4805
 Frc consts  --      0.9920                 0.9220                 0.9799
 IR Inten    --      6.9590                 0.7441                 0.1632

                     40                     41                     42
                      A                      A                      A
 Frequencies --   1081.4186              1086.3593              1113.7063
 Red. masses --      1.5209                 1.6219                 1.1683
 Frc consts  --      1.0479                 1.1278                 0.8537
 IR Inten    --      0.1326                 0.0749                 3.4589

                     43                     44                     45
                      A                      A                      A
 Frequencies --   1115.8498              1132.2217              1138.7351
 Red. masses --      1.8491                 1.1266                 2.3738
 Frc consts  --      1.3565                 0.8509                 1.8136
 IR Inten    --      4.3503                 0.0030                18.1854

                     46                     47                     48
                      A                      A                      A
 Frequencies --   1153.5599              1195.3166              1207.0081
 Red. masses --      3.1809                 1.4222                 1.3839
 Frc consts  --      2.4939                 1.1972                 1.1879
 IR Inten    --      1.0134                 4.8549                 0.3647

                     49                     50                     51
                      A                      A                      A
 Frequencies --   1226.2041              1255.7622              1299.2386
 Red. masses --      3.0512                 2.5246                 2.1180
 Frc consts  --      2.7030                 2.3456                 2.1065
 IR Inten    --      1.3025                 3.5314                 9.6723

                     52                     53                     54
                      A                      A                      A
 Frequencies --   1313.7641              1333.4417              1366.9434
 Red. masses --      1.9214                 3.4714                 4.0631
 Frc consts  --      1.9539                 3.6366                 4.4731
 IR Inten    --      1.8368                 0.0029                 1.4863

                     55                     56                     57
                      A                      A                      A
 Frequencies --   1412.7499              1438.0369              1441.1159
 Red. masses --      2.1247                 1.4244                 1.3834
 Frc consts  --      2.4985                 1.7355                 1.6928
 IR Inten    --      9.8812                 1.6981                 0.5293

                     58                     59                     60
                      A                      A                      A
 Frequencies --   1446.7077              1454.0230              1455.4353
 Red. masses --      1.2304                 1.1472                 1.2191
 Frc consts  --      1.5172                 1.4290                 1.5216
 IR Inten    --      1.3511                 5.7441                 0.6363

                     61                     62                     63
                      A                      A                      A
 Frequencies --   1506.0545              1508.8935              1509.4049
 Red. masses --      1.0453                 1.0442                 1.0446
 Frc consts  --      1.3970                 1.4007                 1.4022
 IR Inten    --      0.1535                 5.5636                 0.7128

                     64                     65                     66
                      A                      A                      A
 Frequencies --   1513.2664              1519.1118              1520.1247
 Red. masses --      1.0533                 1.0537                 1.0514
 Frc consts  --      1.4211                 1.4327                 1.4314
 IR Inten    --      8.2126                 7.9263                 8.7635

                     67                     68                     69
                      A                      A                      A
 Frequencies --   1522.3150              1527.7264              1600.2909
 Red. masses --      1.0685                 1.0822                 6.0869
 Frc consts  --      1.4590                 1.4881                 9.1843
 IR Inten    --      5.1795                 0.0305                 0.1373

                     70                     71                     72
                      A                      A                      A
 Frequencies --   1677.8954              1688.8297              1732.8531
 Red. masses --      6.9517                 6.6314                 7.4675
 Frc consts  --     11.5310                11.1437                13.2114
 IR Inten    --      0.0497                11.6082                 7.4210

                     73                     74                     75
                      A                      A                      A
 Frequencies --   3017.4275              3025.7874              3026.4380
 Red. masses --      1.0782                 1.0604                 1.0412
 Frc consts  --      5.7839                 5.7201                 5.6189
 IR Inten    --      7.5493                21.3078                59.1019

                     76                     77                     78
                      A                      A                      A
 Frequencies --   3028.2829              3032.3693              3036.8411
 Red. masses --      1.0447                 1.0404                 1.0399
 Frc consts  --      5.6445                 5.6368                 5.6504
 IR Inten    --     49.0588                 7.3424                60.7309

                     79                     80                     81
                      A                      A                      A
 Frequencies --   3049.0858              3071.0750              3071.9991
 Red. masses --      1.0993                 1.0972                 1.0970
 Frc consts  --      6.0216                 6.0970                 6.0994
 IR Inten    --     12.8707                 1.2009                36.8836

                     82                     83                     84
                      A                      A                      A
 Frequencies --   3075.1193              3079.6093              3122.4923
 Red. masses --      1.0998                 1.1000                 1.0986
 Frc consts  --      6.1277                 6.1464                 6.3112
 IR Inten    --      0.0017                47.0567                 2.2131

                     85                     86                     87
                      A                      A                      A
 Frequencies --   3123.0568              3132.8556              3134.0505
 Red. masses --      1.0984                 1.0963                 1.0966
 Frc consts  --      6.3118                 6.3393                 6.3460
 IR Inten    --     35.4265                62.7780                 0.2740

                     88                     89                     90
                      A                      A                      A
 Frequencies --   3220.0028              3226.9214              3242.5908
 Red. masses --      1.0861                 1.0942                 1.1038
 Frc consts  --      6.6351                 6.7131                 6.8379
 IR Inten    --      5.7389                 9.6982                12.0496

 - Thermochemistry -
 -------------------
 Temperature   298.150 Kelvin.  Pressure   1.00000 Atm.
 Atom     1 has atomic number  6 and mass  12.00000

 Molecular mass:   186.14085 amu.
 Principal axes and moments of inertia in atomic units:
                           1         2         3
     Eigenvalues --  1673.725283507.411824279.34535
           X            0.99993  -0.00001   0.01224
           Y            0.00001   1.00000   0.00000
           Z           -0.01224  -0.00000   0.99993
 This molecule is an asymmetric top.
 Rotational symmetry number  1.
 Warning -- assumption of classical behavior for rotation
           may cause significant error
 Rotational temperatures (Kelvin)      0.05175     0.02469     0.02024
 Rotational constants (GHZ):           1.07828     0.51455     0.42173
 Zero-point vibrational energy     732384.8 (Joules/Mol)
                                  175.04417 (Kcal/Mol)
 Warning -- explicit consideration of  21 degrees of freedom as
           vibrations may cause significant error
 Vibrational temperatures:     70.37    77.20   104.51   156.38   162.87
          (Kelvin)            186.00   216.39   221.30   242.98   356.30
                              371.16   371.43   413.59   432.14   498.02
                              506.72   551.97   689.42   718.71   805.46
                              809.76   899.93   962.33  1030.10  1044.54
                             1098.83  1107.20  1183.77  1213.24  1287.53
                             1346.65  1358.00  1359.55  1371.74  1418.57
                             1430.64  1436.27  1515.63  1524.96  1555.92
                             1563.03  1602.37  1605.46  1629.01  1638.39
                             1659.72  1719.79  1736.62  1764.23  1806.76
                             1869.31  1890.21  1918.53  1966.73  2032.63
                             2069.01  2073.44  2081.49  2092.01  2094.05
                             2166.88  2170.96  2171.70  2177.25  2185.66
                             2187.12  2190.27  2198.06  2302.46  2414.12
                             2429.85  2493.19  4341.41  4353.43  4354.37
                             4357.02  4362.90  4369.34  4386.95  4418.59
                             4419.92  4424.41  4430.87  4492.57  4493.38
                             4507.48  4509.20  4632.87  4642.82  4665.36

 Zero-point correction=                           0.278951 (Hartree/Particle)
 Thermal correction to Energy=                    0.293967
 Thermal correction to Enthalpy=                  0.294912
 Thermal correction to Gibbs Free Energy=         0.237026
 Sum of electronic and zero-point Energies=           -544.068216
 Sum of electronic and thermal Energies=              -544.053199
 Sum of electronic and thermal Enthalpies=            -544.052255
 Sum of electronic and thermal Free Energies=         -544.110141

                     E (Thermal)             CV                S
                      KCal/Mol        Cal/Mol-Kelvin    Cal/Mol-Kelvin
 Total                  184.467             56.023            121.830
 Electronic               0.000              0.000              0.000
 Translational            0.889              2.981             41.570
 Rotational               0.889              2.981             31.597
 Vibrational            182.690             50.061             48.663
 Vibration     1          0.595              1.978              4.861
 Vibration     2          0.596              1.976              4.678
 Vibration     3          0.599              1.967              4.081
 Vibration     4          0.606              1.942              3.292
 Vibration     5          0.607              1.939              3.213
 Vibration     6          0.612              1.924              2.957
 Vibration     7          0.618              1.902              2.667
 Vibration     8          0.619              1.898              2.625
 Vibration     9          0.625              1.881              2.448
 Vibration    10          0.661              1.767              1.747
 Vibration    11          0.667              1.749              1.675
 Vibration    12          0.667              1.749              1.674
 Vibration    13          0.685              1.697              1.489
 Vibration    14          0.693              1.673              1.415
 Vibration    15          0.724              1.583              1.184
 Vibration    16          0.729              1.571              1.156
 Vibration    17          0.753              1.505              1.025
 Vibration    18          0.836              1.296              0.712
 Vibration    19          0.855              1.251              0.659
 Vibration    20          0.915              1.118              0.524
 Vibration    21          0.919              1.112              0.518

 Optimization completed.
    -- Stationary point found.
 Normal termination of Gaussian 16 at Thu Dec 10 10:25:03 2020.

 ----------------------------------------------------------------------
 # B3LYP/6-311++G(d,p) empiricaldispersion=gd3bj scf=xqc pop=npa geom=c
 heck
 ----------------------------------------------------------------------

 --------------------------------------
 CID_21630360_JID_4632_Energie_neutraal
 --------------------------------------
 Structure from the checkpoint file:  "JID_4632.chk"
 Charge =  0 Multiplicity = 1

 SCF Done:  E(RB3LYP) =  -544.487881004     A.U. after   15 cycles
 Normal termination of Gaussian 16 at Thu Dec 10 10:29:39 2020.

 ----------------------------------------------------------------------
 # B3LYP/6-311++G(d,p) empiricaldispersion=gd3bj scf=xqc pop=npa geom=c
 heck
 ----------------------------------------------------------------------

 ------------------------------------
 CID_21630360_JID_4632_Energie_kation
 ------------------------------------
 Structure from the checkpoint file:  "JID_4632.chk"
 Charge =  1 Multiplicity = 2

 SCF Done:  E(UB3LYP) =  -544.227908323     A.U. after   25 cycles
 Normal termination of Gaussian 16 at Thu Dec 10 10:41:21 2020.
 Gaussian 16:  ES64L-G16RevA.03 25-Dec-2016

 ----------------------------------------------------------------------
 # B3LYP/6-311++G(d,p) empiricaldispersion=gd3bj scf=xqc pop=npa geom=c
 heck
 ----------------------------------------------------------------------

 -----------------------------------
 CID_21630360_JID_4632_Energie_anion
 -----------------------------------
 Structure from the checkpoint file:  "JID_4632.chk"
 Charge = -1 Multiplicity = 2

                         Standard orientation:
 ---------------------------------------------------------------------
 Center     Atomic      Atomic             Coordinates (Angstroms)
 Number     Number       Type             X           Y           Z
 ---------------------------------------------------------------------
      1          6           0        0.271047    2.594771   -0.742192
      2          6           0        0.737658    1.193712   -0.513516
      3          6           0        1.868687    0.742338    0.074805
      4          6           0        1.868838   -0.742122    0.074746
      5          6           0        0.737882   -1.193675   -0.513579
      6          6           0       -0.103948   -0.000061   -0.932306
      7          6           0       -1.451899   -0.000142   -0.263786
      8          6           0       -2.675026    0.000176   -0.835739
      9          6           0       -3.733101    0.000100    0.236864
     10          6           0       -2.925566   -0.000349    1.510666
     11          6           0       -1.614457   -0.000446    1.202283
     12          6           0        0.271547   -2.594816   -0.742339
     13          6           0        2.994477   -1.545317    0.653399
     14          6           0        2.994156    1.545711    0.653545
     15          1           0        0.172496    2.816012   -1.814347
     16          1           0       -0.720072    2.755463   -0.298169
     17          1           0        0.956793    3.332036   -0.314298
     18          1           0       -0.254098   -0.000045   -2.022955
     19          1           0       -2.886657    0.000431   -1.899096
     20          1           0       -4.393077    0.878581    0.169266
     21          1           0       -4.393399   -0.878104    0.168842
     22          1           0       -3.362120   -0.000525    2.502792
     23          1           0       -0.778783   -0.000730    1.893425
     24          1           0       -0.719617   -2.755681   -0.298478
     25          1           0        0.173215   -2.816074   -1.814511
     26          1           0        0.957343   -3.331971   -0.314333
     27          1           0        2.811238   -2.620321    0.574602
     28          1           0        3.942710   -1.330230    0.142979
     29          1           0        3.149707   -1.309508    1.714544
     30          1           0        3.149365    1.309895    1.714691
     31          1           0        3.942455    1.330805    0.143171
     32          1           0        2.810733    2.620686    0.574775
 ---------------------------------------------------------------------

 SCF Done:  E(UB3LYP) =  -544.472168149     A.U. after   33 cycles
 SCF Done:  E(UB3LYP) =  -544.472168149     a.u. after    1 cycles

 The electronic state is 2-A.
 Alpha  occ. eigenvalues --  -10.07887 -10.07673 -10.07563 -10.07049 -10.06809
 Alpha  occ. eigenvalues --  -10.06612 -10.06583 -10.06372 -10.06372 -10.06371
 Alpha  occ. eigenvalues --  -10.06319 -10.06318 -10.06243 -10.06243  -0.77467
 Alpha  occ. eigenvalues --   -0.75128  -0.67033  -0.66476  -0.61522  -0.61301
 Alpha  occ. eigenvalues --   -0.60654  -0.59732  -0.53967  -0.51579  -0.45790
 Alpha  occ. eigenvalues --   -0.43144  -0.42019  -0.39694  -0.39390  -0.36023
 Alpha  occ. eigenvalues --   -0.33874  -0.33870  -0.32791  -0.31791  -0.31189
 Alpha  occ. eigenvalues --   -0.31170  -0.29663  -0.29458  -0.29079  -0.28390
 Alpha  occ. eigenvalues --   -0.28193  -0.27227  -0.26552  -0.25629  -0.23902
 Alpha  occ. eigenvalues --   -0.23266  -0.22826  -0.19186  -0.17501  -0.12264
 Alpha  occ. eigenvalues --   -0.09752   0.04405
 Alpha virt. eigenvalues --    0.06308   0.07065   0.07135   0.07491   0.08385
 Alpha virt. eigenvalues --    0.08683   0.08882   0.09341   0.09608   0.10199
 Alpha virt. eigenvalues --    0.10996   0.11415   0.11781   0.12077   0.12704

  Beta  occ. eigenvalues --  -10.07868 -10.07671 -10.07557 -10.07042 -10.06798
  Beta  occ. eigenvalues --  -10.06607 -10.06578 -10.06360 -10.06336 -10.06336
  Beta  occ. eigenvalues --  -10.06310 -10.06310 -10.06220 -10.06219  -0.77445
  Beta  occ. eigenvalues --   -0.75107  -0.67002  -0.66445  -0.61489  -0.61249
  Beta  occ. eigenvalues --   -0.60624  -0.59687  -0.53927  -0.51531  -0.45751
  Beta  occ. eigenvalues --   -0.43107  -0.41981  -0.39657  -0.39359  -0.35983
  Beta  occ. eigenvalues --   -0.33851  -0.33826  -0.32752  -0.31757  -0.31151
  Beta  occ. eigenvalues --   -0.31138  -0.29626  -0.29429  -0.29049  -0.28358
  Beta  occ. eigenvalues --   -0.28159  -0.27196  -0.26523  -0.25602  -0.23882
  Beta  occ. eigenvalues --   -0.23241  -0.22800  -0.19172  -0.17451  -0.12254
  Beta  occ. eigenvalues --   -0.09699
  Beta virt. eigenvalues --    0.06383   0.07112   0.07507   0.07676   0.07690
  Beta virt. eigenvalues --    0.08677   0.09043   0.09277   0.09825   0.10051
  Beta virt. eigenvalues --    0.10522   0.11472   0.11667   0.12132   0.12440

 Mulliken charges and spin densities:
               1          2
     1  C    1.054334  -1.515039
     2  C   -0.355864   0.618084
     3  C   -1.227039   1.096901
     4  C   -1.226723   1.096986
     5  C   -0.356037   0.618345
     6  C   -0.003798  -0.283259
     7  C    1.718660  -1.239974
     8  C   -1.583986   2.351688
     9  C    2.036232  -3.195485
    10  C   -0.122402   0.261514
    11  C   -1.789516   0.689925
    12  C    1.054734  -1.515356
    13  C    1.130546  -1.647125
    14  C    1.130239  -1.646881
    15  H   -0.187297   0.349427
    16  H    0.122019   0.038210
    17  H    0.004637   0.112111
    18  H   -0.055996   0.313733
    19  H   -0.604404   0.788491
    20  H   -0.062120   0.223340
    21  H   -0.062001   0.223209
    22  H   -0.423130   0.602111
    23  H   -0.035463   0.204507
    24  H    0.121946   0.038250
    25  H   -0.187303   0.349434
    26  H    0.004708   0.112055
    27  H   -0.259158   0.379672
    28  H   -0.096252   0.246021
    29  H   -0.192131   0.351756
    30  H   -0.192143   0.351772
    31  H   -0.096299   0.246063
    32  H   -0.258995   0.379513
 Sum of Mulliken charges =  -1.00000   1.00000

 Dipole moment (field-independent basis, Debye):
    X=             -0.7217    Y=             -0.0002    Z=              0.0055  Tot=              0.7218
 Quadrupole moment (field-independent basis, Debye-Ang):
   XX=           -155.6449   YY=           -131.1059   ZZ=           -126.5699
   XY=              0.0021   XZ=             -5.2631   YZ=              0.0004

 Summary of Natural Population Analysis:

                                       Natural Population
                Natural  -----------------------------------------------
    Atom  No    Charge         Core      Valence    Rydberg      Total
 -----------------------------------------------------------------------
      C    1   -0.29625      0.99962     2.29164    0.00498     3.29625
      C    2    0.00301      0.99943     1.98571    0.01185     2.99699
      C    3   -0.02129      0.99938     2.01066    0.01125     3.02129
      C    4   -0.02129      0.99938     2.01066    0.01125     3.02129
      C    5    0.00301      0.99943     1.98571    0.01185     2.99699
      C    6   -0.13903      0.99949     2.12676    0.01278     3.13903
      C    7   -0.01685      0.99947     2.00280    0.01458     3.01685
      C    8   -0.09522      0.99946     2.08546    0.01030     3.09522
      C    9   -0.22594      0.99962     2.21813    0.00819     3.22594
      C   10   -0.08974      0.99955     2.08097    0.00922     3.08974
      C   11   -0.10611      0.99948     2.09784    0.00879     3.10611
      C   12   -0.29624      0.99962     2.29164    0.00498     3.29624
      C   13   -0.29643      0.99963     2.29136    0.00544     3.29643
      C   14   -0.29643      0.99963     2.29136    0.00544     3.29643
      H   15    0.10221      0.00000     0.39620    0.00159     0.39779
      H   16    0.10596      0.00000     0.39267    0.00137     0.39404
      H   17    0.10227      0.00000     0.39676    0.00097     0.39773
      H   18    0.11683      0.00000     0.38139    0.00178     0.38317
      H   19    0.10049      0.00000     0.39804    0.00147     0.39951
      H   20    0.11395      0.00000     0.38474    0.00132     0.38605
      H   21    0.11394      0.00000     0.38474    0.00132     0.38606
      H   22    0.09790      0.00000     0.40113    0.00096     0.40210
      H   23    0.10714      0.00000     0.39147    0.00139     0.39286
      H   24    0.10596      0.00000     0.39267    0.00137     0.39404
      H   25    0.10221      0.00000     0.39620    0.00159     0.39779
      H   26    0.10227      0.00000     0.39676    0.00097     0.39773
      H   27    0.10356      0.00000     0.39541    0.00103     0.39644
      H   28    0.10330      0.00000     0.39559    0.00111     0.39670
      H   29    0.10498      0.00000     0.39361    0.00142     0.39502
      H   30    0.10498      0.00000     0.39361    0.00142     0.39502
      H   31    0.10329      0.00000     0.39560    0.00111     0.39671
      H   32    0.10356      0.00000     0.39541    0.00103     0.39644
 =======================================================================
   * Total *    0.00000     13.99319    36.85268    0.15413    51.00000

 Normal termination of Gaussian 16 at Thu Dec 10 10:55:35 2020.
