 Gaussian 16, Revision A.03,

 -----------------------------------------------------------
 # opt freq B3LYP/6-31G(d) empiricaldispersion=gd3bj scf=xqc
 -----------------------------------------------------------

 -------------------------------
 CID_130537173_JID_7771_neutraal
 -------------------------------
 Symbolic Z-matrix:
 Charge =  0 Multiplicity = 1

 SCF Done:  E(RB3LYP) =  -716.685701098     A.U. after   13 cycles
 SCF Done:  E(RB3LYP) =  -716.687572230     A.U. after   12 cycles
 SCF Done:  E(RB3LYP) =  -716.687176317     A.U. after   12 cycles
 SCF Done:  E(RB3LYP) =  -716.687733608     A.U. after   12 cycles
 SCF Done:  E(RB3LYP) =  -716.688444660     A.U. after   12 cycles
 SCF Done:  E(RB3LYP) =  -716.688567947     A.U. after   11 cycles
 SCF Done:  E(RB3LYP) =  -716.688625510     A.U. after   10 cycles
 SCF Done:  E(RB3LYP) =  -716.688664429     A.U. after   10 cycles
 SCF Done:  E(RB3LYP) =  -716.688671058     A.U. after   10 cycles
 SCF Done:  E(RB3LYP) =  -716.688684977     A.U. after   10 cycles
 SCF Done:  E(RB3LYP) =  -716.688782163     A.U. after    9 cycles
 SCF Done:  E(RB3LYP) =  -716.688782186     A.U. after    7 cycles
 SCF Done:  E(RB3LYP) =  -716.688782430     A.U. after    8 cycles
 SCF Done:  E(RB3LYP) =  -716.688782783     A.U. after    9 cycles
 SCF Done:  E(RB3LYP) =  -716.688782765     A.U. after    6 cycles
 Optimization completed.
    -- Stationary point found.
 Normal termination of Gaussian 16 at Fri Dec 11 14:17:00 2020.

 --------------------------------------------------------------------
 #N Geom=AllCheck Guess=TCheck SCRF=Check GenChk RB3LYP/6-31G(d) Freq
 --------------------------------------------------------------------

 Structure from the checkpoint file:  "JID_7771.chk"
 -------------------------------
 CID_130537173_JID_7771_neutraal
 -------------------------------
 Charge =  0 Multiplicity = 1

 SCF Done:  E(RB3LYP) =  -716.688782765     A.U. after    1 cycles

  Exact polarizability: 149.463 -10.088 176.070 -12.143  -2.884 145.612
 Approx polarizability: 200.154 -14.232 266.186 -29.360  -7.872 242.763

                      1                      2                      3
                      A                      A                      A
 Frequencies --     12.2341                28.8770                51.4015
 Red. masses --      4.2917                 3.8682                 2.0314
 Frc consts  --      0.0004                 0.0019                 0.0032
 IR Inten    --      0.0219                 0.0800                 0.2066

                      4                      5                      6
                      A                      A                      A
 Frequencies --     56.9738                67.0467                81.2285
 Red. masses --      3.8484                 3.1051                 2.5149
 Frc consts  --      0.0074                 0.0082                 0.0098
 IR Inten    --      0.0830                 0.2526                 0.1899

                      7                      8                      9
                      A                      A                      A
 Frequencies --     98.0142               146.9683               164.6219
 Red. masses --      3.4233                 3.0879                 2.6672
 Frc consts  --      0.0194                 0.0393                 0.0426
 IR Inten    --      0.5499                 0.4344                 0.7804

                     10                     11                     12
                      A                      A                      A
 Frequencies --    196.0317               223.9134               245.5339
 Red. masses --      2.7647                 2.4625                 1.1860
 Frc consts  --      0.0626                 0.0727                 0.0421
 IR Inten    --      0.4379                12.0466                 1.8473

                     13                     14                     15
                      A                      A                      A
 Frequencies --    256.8213               275.9565               277.9529
 Red. masses --      1.5333                 2.5827                 1.4819
 Frc consts  --      0.0596                 0.1159                 0.0675
 IR Inten    --      0.8532                 2.9808                 1.1479

                     16                     17                     18
                      A                      A                      A
 Frequencies --    306.2310               332.7044               337.1288
 Red. masses --      2.0540                 1.9649                 2.4750
 Frc consts  --      0.1135                 0.1281                 0.1657
 IR Inten    --     10.4698                 9.7626                 2.6845

                     19                     20                     21
                      A                      A                      A
 Frequencies --    355.8124               358.1761               379.9335
 Red. masses --      2.3508                 1.8815                 3.0424
 Frc consts  --      0.1754                 0.1422                 0.2587
 IR Inten    --      3.1151                 8.6236                 8.0163

                     22                     23                     24
                      A                      A                      A
 Frequencies --    417.7540               430.0429               456.5236
 Red. masses --      2.9933                 2.8578                 2.9377
 Frc consts  --      0.3078                 0.3114                 0.3607
 IR Inten    --      0.2323                 1.2569                 2.5882

                     25                     26                     27
                      A                      A                      A
 Frequencies --    489.5978               528.1749               563.6544
 Red. masses --      3.6513                 2.6534                 2.7316
 Frc consts  --      0.5157                 0.4361                 0.5113
 IR Inten    --      3.8833                14.5601                 1.4881

                     28                     29                     30
                      A                      A                      A
 Frequencies --    629.8608               636.7319               715.8261
 Red. masses --      4.1609                 6.3108                 2.0075
 Frc consts  --      0.9726                 1.5075                 0.6061
 IR Inten    --      9.7101                 0.1604                25.4736

                     31                     32                     33
                      A                      A                      A
 Frequencies --    749.8146               753.3657               758.3586
 Red. masses --      1.3753                 1.7765                 1.7614
 Frc consts  --      0.4556                 0.5941                 0.5968
 IR Inten    --      4.3585                24.7152                40.0599

                     34                     35                     36
                      A                      A                      A
 Frequencies --    801.6190               832.3967               858.1611
 Red. masses --      1.3413                 3.7280                 1.3567
 Frc consts  --      0.5078                 1.5219                 0.5886
 IR Inten    --      8.7187                 4.3826                 4.4825

                     37                     38                     39
                      A                      A                      A
 Frequencies --    864.8845               874.1877               894.9445
 Red. masses --      1.2530                 1.6540                 1.6395
 Frc consts  --      0.5522                 0.7447                 0.7737
 IR Inten    --      0.3526                19.6182               128.5182

                     40                     41                     42
                      A                      A                      A
 Frequencies --    921.7263               931.2412               941.5587
 Red. masses --      1.5161                 1.7938                 2.9333
 Frc consts  --      0.7589                 0.9165                 1.5322
 IR Inten    --      8.1455                46.5657                15.1004

                     43                     44                     45
                      A                      A                      A
 Frequencies --    947.1306               971.0901               980.5383
 Red. masses --      1.6352                 1.3507                 1.6955
 Frc consts  --      0.8642                 0.7505                 0.9604
 IR Inten    --     72.9492                 0.2848                 1.1243

                     46                     47                     48
                      A                      A                      A
 Frequencies --    995.5847              1012.7004              1023.1007
 Red. masses --      1.2550                 1.7998                 4.8362
 Frc consts  --      0.7329                 1.0875                 2.9825
 IR Inten    --      0.2803                 4.3295                 0.7309

                     49                     50                     51
                      A                      A                      A
 Frequencies --   1033.9657              1054.4652              1059.6701
 Red. masses --      2.0412                 2.9712                 2.1878
 Frc consts  --      1.2857                 1.9465                 1.4475
 IR Inten    --      5.3681                 9.6250                 1.4843

                     52                     53                     54
                      A                      A                      A
 Frequencies --   1065.0063              1073.4925              1108.7342
 Red. masses --      2.2551                 1.5580                 2.4867
 Frc consts  --      1.5070                 1.0578                 1.8011
 IR Inten    --      0.4017                 1.3466                 1.0168

                     55                     56                     57
                      A                      A                      A
 Frequencies --   1117.6573              1125.9184              1132.9162
 Red. masses --      1.6656                 3.2412                 2.5853
 Frc consts  --      1.2259                 2.4209                 1.9550
 IR Inten    --     18.6378                91.1715                31.3088

                     58                     59                     60
                      A                      A                      A
 Frequencies --   1154.8130              1193.6721              1211.8352
 Red. masses --      1.4952                 1.1013                 1.1772
 Frc consts  --      1.1748                 0.9245                 1.0186
 IR Inten    --      9.6660                 0.0751                 1.2944

                     61                     62                     63
                      A                      A                      A
 Frequencies --   1215.0413              1228.0183              1234.1587
 Red. masses --      2.3276                 2.2091                 3.1720
 Frc consts  --      2.0246                 1.9628                 2.8466
 IR Inten    --     11.0287                 0.7400                11.4622

                     64                     65                     66
                      A                      A                      A
 Frequencies --   1261.2536              1286.7734              1299.8241
 Red. masses --      1.6200                 1.2614                 1.3037
 Frc consts  --      1.5184                 1.2306                 1.2978
 IR Inten    --      6.0346                 8.1624                 1.2406

                     67                     68                     69
                      A                      A                      A
 Frequencies --   1319.5403              1346.4312              1349.1515
 Red. masses --      1.4655                 1.4005                 1.3472
 Frc consts  --      1.5035                 1.4959                 1.4448
 IR Inten    --      2.5546                 0.7150                 2.1588

                     70                     71                     72
                      A                      A                      A
 Frequencies --   1354.6988              1364.0178              1367.5143
 Red. masses --      1.4489                 1.3711                 2.0205
 Frc consts  --      1.5666                 1.5030                 2.2262
 IR Inten    --      2.6591                 6.0039                 0.7487

                     73                     74                     75
                      A                      A                      A
 Frequencies --   1371.1809              1407.0665              1412.5878
 Red. masses --      1.1964                 1.3411                 1.2389
 Frc consts  --      1.3253                 1.5644                 1.4566
 IR Inten    --      0.5620                 7.7962                 0.9012

                     76                     77                     78
                      A                      A                      A
 Frequencies --   1418.8266              1427.5983              1440.4590
 Red. masses --      1.3152                 1.3882                 1.2535
 Frc consts  --      1.5599                 1.6669                 1.5324
 IR Inten    --     18.4345                 1.1584                 1.3832

                     79                     80                     81
                      A                      A                      A
 Frequencies --   1443.9076              1451.7575              1503.7634
 Red. masses --      1.2471                 1.2928                 2.1278
 Frc consts  --      1.5319                 1.6054                 2.8349
 IR Inten    --      5.3439                11.5575                 7.4707

                     82                     83                     84
                      A                      A                      A
 Frequencies --   1512.4150              1514.8058              1520.6798
 Red. masses --      1.0809                 1.0848                 1.0826
 Frc consts  --      1.4567                 1.4665                 1.4750
 IR Inten    --      4.9168                 0.8804                 1.5783

                     85                     86                     87
                      A                      A                      A
 Frequencies --   1522.9083              1528.9949              1530.0123
 Red. masses --      1.0533                 1.0436                 1.0828
 Frc consts  --      1.4392                 1.4375                 1.4934
 IR Inten    --      3.9156                 6.5286                 3.5179

                     88                     89                     90
                      A                      A                      A
 Frequencies --   1532.5615              1538.5967              1539.9587
 Red. masses --      1.0988                 1.0972                 1.0910
 Frc consts  --      1.5206                 1.5303                 1.5244
 IR Inten    --      6.9493                 6.1443                 3.1349

                     91                     92                     93
                      A                      A                      A
 Frequencies --   1541.4691              1548.3972              1648.4172
 Red. masses --      1.0738                 1.9757                 5.5692
 Frc consts  --      1.5033                 2.7908                 8.9162
 IR Inten    --      9.6537                 4.0373                 0.3780

                     94                     95                     96
                      A                      A                      A
 Frequencies --   1668.3557              1699.9419              3013.7881
 Red. masses --      5.5813                 1.0894                 1.0686
 Frc consts  --      9.1531                 1.8549                 5.7187
 IR Inten    --      0.2863                14.0072                41.8409

                     97                     98                     99
                      A                      A                      A
 Frequencies --   3029.7573              3035.8932              3038.6191
 Red. masses --      1.0644                 1.0639                 1.0600
 Frc consts  --      5.7567                 5.7772                 5.7665
 IR Inten    --     14.1566                21.0421                15.7510

                    100                    101                    102
                      A                      A                      A
 Frequencies --   3041.1108              3042.5600              3048.7226
 Red. masses --      1.0421                 1.0483                 1.0504
 Frc consts  --      5.6784                 5.7177                 5.7525
 IR Inten    --     11.4341                40.3416                60.4231

                    103                    104                    105
                      A                      A                      A
 Frequencies --   3059.2377              3068.2497              3080.4127
 Red. masses --      1.0705                 1.0892                 1.0938
 Frc consts  --      5.9028                 6.0415                 6.1150
 IR Inten    --     32.9038                 1.4540                42.5082

                    106                    107                    108
                      A                      A                      A
 Frequencies --   3083.0822              3083.1998              3087.8789
 Red. masses --      1.0959                 1.0977                 1.0981
 Frc consts  --      6.1373                 6.1478                 6.1691
 IR Inten    --     23.6170                12.2011                24.7486

                    109                    110                    111
                      A                      A                      A
 Frequencies --   3106.9564              3109.4371              3114.0781
 Red. masses --      1.1017                 1.1011                 1.1026
 Frc consts  --      6.2660                 6.2725                 6.2996
 IR Inten    --     25.0255                77.7467                39.6066

                    112                    113                    114
                      A                      A                      A
 Frequencies --   3116.1632              3119.6185              3174.6451
 Red. masses --      1.1020                 1.1016                 1.0868
 Frc consts  --      6.3049                 6.3167                 6.4534
 IR Inten    --     59.6503                48.8662                 8.8998

                    115                    116                    117
                      A                      A                      A
 Frequencies --   3183.9263              3193.1099              3201.3710
 Red. masses --      1.0861                 1.0900                 1.0940
 Frc consts  --      6.4871                 6.5479                 6.6063
 IR Inten    --      0.0588                10.5511                31.0836

                    118                    119                    120
                      A                      A                      A
 Frequencies --   3211.3040              3474.5315              3562.4098
 Red. masses --      1.0980                 1.0485                 1.0926
 Frc consts  --      6.6711                 7.4581                 8.1697
 IR Inten    --     16.6259                 1.5525                 0.5120

 - Thermochemistry -
 -------------------
 Temperature   298.150 Kelvin.  Pressure   1.00000 Atm.
 Atom     1 has atomic number  6 and mass  12.00000

 Molecular mass:   235.19361 amu.
 Principal axes and moments of inertia in atomic units:
                           1         2         3
     Eigenvalues --  3221.198045152.037456679.22337
           X            0.99999   0.00270   0.00395
           Y           -0.00272   0.99998   0.00651
           Z           -0.00394  -0.00652   0.99997
 This molecule is an asymmetric top.
 Rotational symmetry number  1.
 Warning -- assumption of classical behavior for rotation
           may cause significant error
 Rotational temperatures (Kelvin)      0.02689     0.01681     0.01297
 Rotational constants (GHZ):           0.56027     0.35030     0.27020
 Zero-point vibrational energy    1000062.7 (Joules/Mol)
                                  239.02072 (Kcal/Mol)
 Warning -- explicit consideration of  27 degrees of freedom as
           vibrations may cause significant error
 Vibrational temperatures:     17.60    41.55    73.96    81.97    96.47
          (Kelvin)            116.87   141.02   211.45   236.85   282.05
                              322.16   353.27   369.51   397.04   399.91
                              440.60   478.69   485.05   511.93   515.34
                              546.64   601.05   618.74   656.84   704.42
                              759.93   810.97   906.23   916.12  1029.91
                             1078.82  1083.93  1091.11  1153.35  1197.63
                             1234.70  1244.38  1257.76  1287.63  1326.16
                             1339.85  1354.69  1362.71  1397.18  1410.78
                             1432.42  1457.05  1472.01  1487.65  1517.14
                             1524.63  1532.31  1544.52  1595.22  1608.06
                             1619.95  1630.01  1661.52  1717.43  1743.56
                             1748.17  1766.84  1775.68  1814.66  1851.38
                             1870.16  1898.52  1937.21  1941.13  1949.11
                             1962.52  1967.55  1972.82  2024.45  2032.40
                             2041.37  2054.00  2072.50  2077.46  2088.76
                             2163.58  2176.03  2179.47  2187.92  2191.13
                             2199.88  2201.35  2205.01  2213.70  2215.66
                             2217.83  2227.80  2371.70  2400.39  2445.84
                             4336.17  4359.14  4367.97  4371.90  4375.48
                             4377.57  4386.43  4401.56  4414.53  4432.03
                             4435.87  4436.04  4442.77  4470.22  4473.79
                             4480.46  4483.46  4488.44  4567.61  4580.96
                             4594.17  4606.06  4620.35  4999.08  5125.51

 Zero-point correction=                           0.380904 (Hartree/Particle)
 Thermal correction to Energy=                    0.399353
 Thermal correction to Enthalpy=                  0.400297
 Thermal correction to Gibbs Free Energy=         0.332709
 Sum of electronic and zero-point Energies=           -716.307879
 Sum of electronic and thermal Energies=              -716.289430
 Sum of electronic and thermal Enthalpies=            -716.288486
 Sum of electronic and thermal Free Energies=         -716.356074

                     E (Thermal)             CV                S
                      KCal/Mol        Cal/Mol-Kelvin    Cal/Mol-Kelvin
 Total                  250.598             70.262            142.252
 Electronic               0.000              0.000              0.000
 Translational            0.889              2.981             42.267
 Rotational               0.889              2.981             33.072
 Vibrational            248.820             64.301             66.913
 Vibration     1          0.593              1.987              7.610
 Vibration     2          0.593              1.984              5.905
 Vibration     3          0.596              1.977              4.763
 Vibration     4          0.596              1.975              4.559
 Vibration     5          0.598              1.970              4.238
 Vibration     6          0.600              1.962              3.861
 Vibration     7          0.603              1.951              3.493
 Vibration     8          0.617              1.906              2.711
 Vibration     9          0.623              1.886              2.496
 Vibration    10          0.636              1.845              2.170
 Vibration    11          0.649              1.805              1.927
 Vibration    12          0.660              1.770              1.762
 Vibration    13          0.666              1.751              1.683
 Vibration    14          0.678              1.718              1.559
 Vibration    15          0.679              1.714              1.546
 Vibration    16          0.697              1.662              1.383
 Vibration    17          0.715              1.610              1.247
 Vibration    18          0.718              1.601              1.226
 Vibration    19          0.731              1.563              1.140
 Vibration    20          0.733              1.558              1.130
 Vibration    21          0.750              1.513              1.039
 Vibration    22          0.781              1.432              0.900
 Vibration    23          0.791              1.405              0.859
 Vibration    24          0.815              1.346              0.776
 Vibration    25          0.845              1.273              0.685
 Vibration    26          0.883              1.188              0.591
 Vibration    27          0.919              1.110              0.517

 Optimization completed.
    -- Stationary point found.
 Normal termination of Gaussian 16 at Fri Dec 11 14:39:08 2020.

 ----------------------------------------------------------------------
 # B3LYP/6-311++G(d,p) empiricaldispersion=gd3bj scf=xqc pop=npa geom=c
 heck
 ----------------------------------------------------------------------

 ---------------------------------------
 CID_130537173_JID_7771_Energie_neutraal
 ---------------------------------------
 Structure from the checkpoint file:  "JID_7771.chk"
 Charge =  0 Multiplicity = 1

 SCF Done:  E(RB3LYP) =  -716.893231018     A.U. after   14 cycles
 Normal termination of Gaussian 16 at Fri Dec 11 14:49:15 2020.

 ----------------------------------------------------------------------
 # B3LYP/6-311++G(d,p) empiricaldispersion=gd3bj scf=xqc pop=npa geom=c
 heck
 ----------------------------------------------------------------------

 -------------------------------------
 CID_130537173_JID_7771_Energie_kation
 -------------------------------------
 Structure from the checkpoint file:  "JID_7771.chk"
 Charge =  1 Multiplicity = 2

 SCF Done:  E(UB3LYP) =  -716.589058559     A.U. after   29 cycles
 Normal termination of Gaussian 16 at Fri Dec 11 15:18:40 2020.
 Gaussian 16:  ES64L-G16RevA.03 25-Dec-2016

 ----------------------------------------------------------------------
 # B3LYP/6-311++G(d,p) empiricaldispersion=gd3bj scf=xqc pop=npa geom=c
 heck
 ----------------------------------------------------------------------

 ------------------------------------
 CID_130537173_JID_7771_Energie_anion
 ------------------------------------
 Structure from the checkpoint file:  "JID_7771.chk"
 Charge = -1 Multiplicity = 2

                         Standard orientation:
 ---------------------------------------------------------------------
 Center     Atomic      Atomic             Coordinates (Angstroms)
 Number     Number       Type             X           Y           Z
 ---------------------------------------------------------------------
      1          6           0        1.023839    3.412862    0.308034
      2          6           0        1.919505    2.200625    0.581964
      3          6           0        1.235516    0.895162    0.162484
      4          6           0        2.037525   -0.416460    0.342045
      5          6           0        2.516624   -0.585610    1.794297
      6          6           0        1.135490   -1.608217   -0.068203
      7          6           0       -0.001213   -1.917137    0.912820
      8          8           0       -1.043973   -2.728980    0.372889
      9          6           0       -1.767863   -2.162858   -0.714600
     10          6           0       -2.252905   -0.749752   -0.469172
     11          6           0       -2.952459   -0.437947    0.703717
     12          6           0       -3.356384    0.870099    0.960984
     13          6           0       -3.072844    1.885608    0.042920
     14          6           0       -2.386246    1.582782   -1.132145
     15          6           0       -1.974927    0.271818   -1.380264
     16          6           0        3.299420   -0.418118   -0.566832
     17          7           0        3.113606   -0.289773   -2.011600
     18          1           0        0.801287    3.503362   -0.762394
     19          1           0        1.497322    4.346303    0.632078
     20          1           0        0.065124    3.317897    0.831922
     21          1           0        2.872079    2.325378    0.050574
     22          1           0        2.167091    2.167453    1.650221
     23          1           0        0.288481    0.820895    0.709407
     24          1           0        0.942877    0.977312   -0.893643
     25          1           0        1.694272   -0.480832    2.510608
     26          1           0        2.967080   -1.574762    1.942182
     27          1           0        3.274525    0.161962    2.051958
     28          1           0        0.707968   -1.384052   -1.052058
     29          1           0        1.747955   -2.511374   -0.194954
     30          1           0        0.374980   -2.491703    1.763413
     31          1           0       -0.428812   -0.989116    1.308922
     32          1           0       -1.176045   -2.187016   -1.641630
     33          1           0       -2.615448   -2.842595   -0.856185
     34          1           0       -3.155986   -1.227772    1.421913
     35          1           0       -3.891619    1.100768    1.877986
     36          1           0       -3.386020    2.906087    0.244554
     37          1           0       -2.158582    2.367027   -1.848624
     38          1           0       -1.421398    0.040946   -2.287550
     39          1           0        3.968908    0.390278   -0.249665
     40          1           0        3.846553   -1.353224   -0.388472
     41          1           0        2.633616    0.581063   -2.230279
     42          1           0        2.521879   -1.041185   -2.360485
 ---------------------------------------------------------------------

 SCF Done:  E(UB3LYP) =  -716.881663000     A.U. after   33 cycles
 SCF Done:  E(UB3LYP) =  -716.881663001     a.u. after    1 cycles

 The electronic state is 2-A.
 Alpha  occ. eigenvalues --  -19.03445 -14.19792 -10.12900 -10.12088 -10.09716
 Alpha  occ. eigenvalues --  -10.09051 -10.08917 -10.08474 -10.08278 -10.08239
 Alpha  occ. eigenvalues --  -10.08201 -10.08117 -10.07389 -10.07275 -10.06967
 Alpha  occ. eigenvalues --  -10.06501 -10.05896  -0.94306  -0.79381  -0.76737
 Alpha  occ. eigenvalues --   -0.72821  -0.68356  -0.67452  -0.65608  -0.63933
 Alpha  occ. eigenvalues --   -0.59564  -0.58440  -0.56953  -0.53045  -0.51721
 Alpha  occ. eigenvalues --   -0.50058  -0.48474  -0.44263  -0.42620  -0.40946
 Alpha  occ. eigenvalues --   -0.40454  -0.39649  -0.37762  -0.36826  -0.36096
 Alpha  occ. eigenvalues --   -0.35819  -0.34766  -0.33933  -0.33111  -0.32637
 Alpha  occ. eigenvalues --   -0.32089  -0.31379  -0.30174  -0.29242  -0.28442
 Alpha  occ. eigenvalues --   -0.28157  -0.27236  -0.26860  -0.26245  -0.25931
 Alpha  occ. eigenvalues --   -0.25326  -0.24965  -0.22993  -0.22738  -0.22403
 Alpha  occ. eigenvalues --   -0.20979  -0.17281  -0.16467  -0.15976  -0.14677
 Alpha  occ. eigenvalues --    0.04111
 Alpha virt. eigenvalues --    0.06189   0.06465   0.06518   0.07082   0.07518
 Alpha virt. eigenvalues --    0.08106   0.08432   0.08710   0.08997   0.09158
 Alpha virt. eigenvalues --    0.10410   0.10722   0.10913   0.11360   0.11572

  Beta  occ. eigenvalues --  -19.03444 -14.19761 -10.12887 -10.12084 -10.09708
  Beta  occ. eigenvalues --  -10.09048 -10.08911 -10.08462 -10.08263 -10.08223
  Beta  occ. eigenvalues --  -10.08185 -10.08096 -10.07376 -10.07266 -10.06954
  Beta  occ. eigenvalues --  -10.06489 -10.05867  -0.94301  -0.79337  -0.76704
  Beta  occ. eigenvalues --   -0.72797  -0.68327  -0.67422  -0.65568  -0.63910
  Beta  occ. eigenvalues --   -0.59535  -0.58402  -0.56909  -0.53012  -0.51674
  Beta  occ. eigenvalues --   -0.49999  -0.48433  -0.44231  -0.42568  -0.40922
  Beta  occ. eigenvalues --   -0.40435  -0.39624  -0.37730  -0.36793  -0.36067
  Beta  occ. eigenvalues --   -0.35785  -0.34739  -0.33909  -0.33074  -0.32600
  Beta  occ. eigenvalues --   -0.32057  -0.31349  -0.30147  -0.29217  -0.28417
  Beta  occ. eigenvalues --   -0.28131  -0.27204  -0.26827  -0.26214  -0.25906
  Beta  occ. eigenvalues --   -0.25292  -0.24938  -0.22973  -0.22713  -0.22386
  Beta  occ. eigenvalues --   -0.20966  -0.17268  -0.16431  -0.15931  -0.14650
  Beta virt. eigenvalues --    0.06094   0.06649   0.06950   0.07101   0.07421
  Beta virt. eigenvalues --    0.07539   0.08481   0.08785   0.09181   0.09214
  Beta virt. eigenvalues --    0.09393   0.10713   0.10932   0.11117   0.11606

 Mulliken charges and spin densities:
               1          2
     1  C    0.306847  -0.933284
     2  C   -0.685538   0.490389
     3  C   -0.619288   0.034837
     4  C    0.823009   0.218104
     5  C   -0.026922  -0.594623
     6  C   -0.498909   0.227992
     7  C   -0.664385   0.059431
     8  O   -0.066357   0.015290
     9  C    1.353503  -2.006409
    10  C    0.056428   0.536208
    11  C   -0.883142   0.838371
    12  C   -0.445017   0.140580
    13  C    1.667513  -2.048478
    14  C    0.283861  -0.502343
    15  C   -0.821509   0.589869
    16  C    0.526002  -1.088236
    17  N   -0.426471   0.138021
    18  H   -0.098433   0.252227
    19  H   -0.306285   0.451102
    20  H    0.000366   0.144604
    21  H   -0.031598   0.157943
    22  H    0.044359   0.099604
    23  H    0.126470  -0.094709
    24  H    0.250357  -0.203112
    25  H    0.014378   0.155347
    26  H    0.100333   0.055871
    27  H    0.037350   0.099992
    28  H    0.611083  -0.428666
    29  H    0.017675   0.148604
    30  H    0.144766   0.041888
    31  H    0.189972  -0.037542
    32  H   -0.178977   0.335664
    33  H    0.036110   0.149909
    34  H   -0.009038   0.188799
    35  H   -0.571638   0.753285
    36  H   -0.206949   0.371843
    37  H   -0.614453   0.814653
    38  H   -0.542169   0.727891
    39  H    0.083421   0.068574
    40  H    0.087139   0.076188
    41  H   -0.014104   0.266131
    42  H   -0.049763   0.288190
 Sum of Mulliken charges =  -1.00000   1.00000

 Dipole moment (field-independent basis, Debye):
    X=              1.5435    Y=             -4.3355    Z=              3.4775  Tot=              5.7682
 Quadrupole moment (field-independent basis, Debye-Ang):
   XX=           -171.5465   YY=           -166.5130   ZZ=           -156.5192
   XY=              4.2290   XZ=              9.8009   YZ=              0.2750

 Summary of Natural Population Analysis:

                                       Natural Population
                Natural  -----------------------------------------------
    Atom  No    Charge         Core      Valence    Rydberg      Total
 -----------------------------------------------------------------------
      C    1   -0.28243      0.99967     2.27799    0.00478     3.28243
      C    2   -0.18986      0.99964     2.18265    0.00757     3.18986
      C    3   -0.19624      0.99958     2.18539    0.01127     3.19624
      C    4   -0.04576      0.99956     2.03479    0.01141     3.04576
      C    5   -0.28945      0.99963     2.28376    0.00606     3.28945
      C    6   -0.20842      0.99958     2.19815    0.01069     3.20842
      C    7   -0.01092      0.99955     2.00032    0.01105     3.01092
      O    8   -0.29923      0.99989     3.29074    0.00860     4.29923
      C    9   -0.01635      0.99953     2.00348    0.01334     3.01635
      C   10   -0.03897      0.99949     2.02930    0.01018     3.03897
      C   11   -0.09953      0.99950     2.09011    0.00992     3.09953
      C   12   -0.10004      0.99956     2.08992    0.01056     3.10004
      C   13   -0.09969      0.99956     2.08982    0.01031     3.09969
      C   14   -0.09532      0.99956     2.08470    0.01107     3.09532
      C   15   -0.09847      0.99951     2.08736    0.01161     3.09847
      C   16   -0.08513      0.99958     2.07333    0.01222     3.08513
      N   17   -0.41868      0.99978     2.90911    0.00980     3.91868
      H   18    0.09794      0.00000     0.40063    0.00143     0.40206
      H   19    0.09631      0.00000     0.40280    0.00089     0.40369
      H   20    0.09868      0.00000     0.39998    0.00133     0.40132
      H   21    0.09188      0.00000     0.40684    0.00129     0.40812
      H   22    0.09255      0.00000     0.40630    0.00115     0.40745
      H   23    0.10055      0.00000     0.39669    0.00276     0.39945
      H   24    0.09799      0.00000     0.39916    0.00285     0.40201
      H   25    0.10167      0.00000     0.39749    0.00084     0.39833
      H   26    0.09826      0.00000     0.40096    0.00078     0.40174
      H   27    0.10112      0.00000     0.39802    0.00086     0.39888
      H   28    0.10187      0.00000     0.39577    0.00235     0.39813
      H   29    0.09733      0.00000     0.40153    0.00113     0.40267
      H   30    0.08898      0.00000     0.40982    0.00120     0.41102
      H   31    0.08476      0.00000     0.41325    0.00199     0.41524
      H   32    0.08362      0.00000     0.41486    0.00151     0.41638
      H   33    0.09509      0.00000     0.40370    0.00120     0.40491
      H   34    0.10316      0.00000     0.39534    0.00151     0.39684
      H   35    0.10174      0.00000     0.39711    0.00116     0.39826
      H   36    0.10342      0.00000     0.39525    0.00133     0.39658
      H   37    0.10504      0.00000     0.39319    0.00177     0.39496
      H   38    0.10391      0.00000     0.39394    0.00215     0.39609
      H   39    0.09131      0.00000     0.40751    0.00118     0.40869
      H   40    0.08882      0.00000     0.41014    0.00103     0.41118
      H   41    0.17517      0.00000     0.32235    0.00248     0.32483
      H   42    0.17330      0.00000     0.32443    0.00227     0.32670
 =======================================================================
   * Total *   -0.00000     16.99316    47.79797    0.20887    65.00000

 Normal termination of Gaussian 16 at Fri Dec 11 15:52:40 2020.
