 Gaussian 16, Revision A.03,

 -----------------------------------------------------------
 # opt freq B3LYP/6-31G(d) empiricaldispersion=gd3bj scf=xqc
 -----------------------------------------------------------

 -------------------------------
 CID_110540099_JID_9495_neutraal
 -------------------------------
 Symbolic Z-matrix:
 Charge =  0 Multiplicity = 1

 SCF Done:  E(RB3LYP) =  -791.697561593     A.U. after   14 cycles
 SCF Done:  E(RB3LYP) =  -791.702439915     A.U. after   13 cycles
 SCF Done:  E(RB3LYP) =  -791.703676783     A.U. after   13 cycles
 SCF Done:  E(RB3LYP) =  -791.705685888     A.U. after   15 cycles
 SCF Done:  E(RB3LYP) =  -791.707219039     A.U. after   13 cycles
 SCF Done:  E(RB3LYP) =  -791.707718487     A.U. after   13 cycles
 SCF Done:  E(RB3LYP) =  -791.707782001     A.U. after   12 cycles
 SCF Done:  E(RB3LYP) =  -791.707925646     A.U. after   11 cycles
 SCF Done:  E(RB3LYP) =  -791.707940915     A.U. after   11 cycles
 SCF Done:  E(RB3LYP) =  -791.707948372     A.U. after   10 cycles
 SCF Done:  E(RB3LYP) =  -791.707950116     A.U. after    9 cycles
 SCF Done:  E(RB3LYP) =  -791.707950869     A.U. after    8 cycles
 SCF Done:  E(RB3LYP) =  -791.707951047     A.U. after    7 cycles
 SCF Done:  E(RB3LYP) =  -791.707951120     A.U. after    7 cycles
 Optimization completed.
    -- Stationary point found.
 Normal termination of Gaussian 16 at Sun Dec 13 20:24:58 2020.

 --------------------------------------------------------------------
 #N Geom=AllCheck Guess=TCheck SCRF=Check GenChk RB3LYP/6-31G(d) Freq
 --------------------------------------------------------------------

 Structure from the checkpoint file:  "JID_9495.chk"
 -------------------------------
 CID_110540099_JID_9495_neutraal
 -------------------------------
 Charge =  0 Multiplicity = 1

 SCF Done:  E(RB3LYP) =  -791.707951121     A.U. after    1 cycles

  Exact polarizability: 314.172   6.433 178.500  -5.173  10.681 119.401
 Approx polarizability: 406.790  13.729 284.285 -10.861  26.821 187.922

                      1                      2                      3
                      A                      A                      A
 Frequencies --     20.3798                40.3965                52.0761
 Red. masses --      3.4445                 3.8064                 3.6204
 Frc consts  --      0.0008                 0.0037                 0.0058
 IR Inten    --      0.5522                 0.0486                 0.2204

                      4                      5                      6
                      A                      A                      A
 Frequencies --     59.8804                84.3387               122.0056
 Red. masses --      3.4192                 4.0985                 3.9753
 Frc consts  --      0.0072                 0.0172                 0.0349
 IR Inten    --      1.5303                 0.9812                 0.6248

                      7                      8                      9
                      A                      A                      A
 Frequencies --    148.9555               184.5079               200.7012
 Red. masses --      2.7792                 3.4581                 4.2648
 Frc consts  --      0.0363                 0.0694                 0.1012
 IR Inten    --      0.0585                 0.3535                 0.7426

                     10                     11                     12
                      A                      A                      A
 Frequencies --    203.5988               228.0438               255.0473
 Red. masses --      2.2947                 1.3113                 1.5891
 Frc consts  --      0.0560                 0.0402                 0.0609
 IR Inten    --      2.4672                 0.0906                 0.2396

                     13                     14                     15
                      A                      A                      A
 Frequencies --    263.6143               275.7504               297.8971
 Red. masses --      1.3909                 1.1510                 2.7953
 Frc consts  --      0.0569                 0.0516                 0.1462
 IR Inten    --      0.4513                 0.3126                 0.4057

                     16                     17                     18
                      A                      A                      A
 Frequencies --    333.6624               335.4838               356.6913
 Red. masses --      1.9629                 1.2378                 2.8721
 Frc consts  --      0.1288                 0.0821                 0.2153
 IR Inten    --      0.3932                 0.0373                 0.0756

                     19                     20                     21
                      A                      A                      A
 Frequencies --    362.7482               369.4393               399.6305
 Red. masses --      2.8423                 2.6014                 2.9293
 Frc consts  --      0.2204                 0.2092                 0.2756
 IR Inten    --      4.3126                 1.9522                 1.5263

                     22                     23                     24
                      A                      A                      A
 Frequencies --    402.8390               415.8034               423.6979
 Red. masses --      2.9223                 3.3610                 3.0032
 Frc consts  --      0.2794                 0.3424                 0.3176
 IR Inten    --      2.9504                 3.8080                 1.0613

                     25                     26                     27
                      A                      A                      A
 Frequencies --    464.0780               483.0348               486.2545
 Red. masses --      2.9165                 3.1943                 2.9132
 Frc consts  --      0.3701                 0.4391                 0.4058
 IR Inten    --      0.9476                 0.6895                14.7283

                     28                     29                     30
                      A                      A                      A
 Frequencies --    530.8743               571.1918               580.6075
 Red. masses --      3.1118                 3.5365                 2.4256
 Frc consts  --      0.5167                 0.6798                 0.4818
 IR Inten    --      8.1522                 9.4184                13.1578

                     31                     32                     33
                      A                      A                      A
 Frequencies --    618.5398               656.5631               681.9499
 Red. masses --      3.4252                 5.5911                 4.4432
 Frc consts  --      0.7721                 1.4201                 1.2174
 IR Inten    --     11.2539                 6.4605                 4.8482

                     34                     35                     36
                      A                      A                      A
 Frequencies --    704.0706               748.8337               769.6009
 Red. masses --      4.4282                 3.7674                 4.1754
 Frc consts  --      1.2933                 1.2447                 1.4571
 IR Inten    --      1.5913                 5.2455                 7.2519

                     37                     38                     39
                      A                      A                      A
 Frequencies --    827.4686               846.5406               852.3468
 Red. masses --      2.5990                 2.4673                 1.4944
 Frc consts  --      1.0485                 1.0418                 0.6397
 IR Inten    --      2.2061                 1.9071                12.3066

                     40                     41                     42
                      A                      A                      A
 Frequencies --    853.7577               873.3680               941.2097
 Red. masses --      1.4687                 3.4543                 1.7714
 Frc consts  --      0.6308                 1.5524                 0.9246
 IR Inten    --      5.5696                13.7944                 0.2527

                     43                     44                     45
                      A                      A                      A
 Frequencies --    946.3537               953.6949               965.9331
 Red. masses --      2.2647                 1.6980                 1.4004
 Frc consts  --      1.1950                 0.9099                 0.7698
 IR Inten    --     32.9055                 0.8498                10.0302

                     46                     47                     48
                      A                      A                      A
 Frequencies --    968.0704               975.6348               984.1087
 Red. masses --      1.3242                 1.2395                 1.4319
 Frc consts  --      0.7312                 0.6951                 0.8171
 IR Inten    --      1.5693                 1.8419                 3.4478

                     49                     50                     51
                      A                      A                      A
 Frequencies --   1006.2998              1027.5935              1039.4771
 Red. masses --      2.2116                 1.6376                 2.9281
 Frc consts  --      1.3195                 1.0188                 1.8641
 IR Inten    --     13.9143                 1.1072                 6.5991

                     52                     53                     54
                      A                      A                      A
 Frequencies --   1057.4224              1063.8363              1077.0589
 Red. masses --      1.4320                 1.3918                 2.0301
 Frc consts  --      0.9434                 0.9281                 1.3875
 IR Inten    --      4.5203                 0.0108                 4.8716

                     55                     56                     57
                      A                      A                      A
 Frequencies --   1086.2836              1103.7443              1146.9532
 Red. masses --      2.3226                 2.3189                 2.5327
 Frc consts  --      1.6147                 1.6644                 1.9630
 IR Inten    --      3.1682                38.9310                24.3936

                     58                     59                     60
                      A                      A                      A
 Frequencies --   1164.4008              1164.7088              1183.6554
 Red. masses --      1.3901                 1.4678                 2.1272
 Frc consts  --      1.1105                 1.1732                 1.7560
 IR Inten    --     16.5399                12.3917                25.6734

                     61                     62                     63
                      A                      A                      A
 Frequencies --   1205.2513              1233.8032              1236.4447
 Red. masses --      2.4284                 1.3327                 1.2133
 Frc consts  --      2.0784                 1.1952                 1.0928
 IR Inten    --    162.5551                 0.9712                 6.8289

                     64                     65                     66
                      A                      A                      A
 Frequencies --   1242.5508              1248.2422              1256.5281
 Red. masses --      2.6989                 2.1459                 1.8216
 Frc consts  --      2.4551                 1.9699                 1.6945
 IR Inten    --      2.8270                 1.1556                28.7297

                     67                     68                     69
                      A                      A                      A
 Frequencies --   1298.2009              1309.0246              1312.4855
 Red. masses --      2.1706                 2.8640                 2.1660
 Frc consts  --      2.1553                 2.8915                 2.1983
 IR Inten    --     82.2347                47.2872                74.3497

                     70                     71                     72
                      A                      A                      A
 Frequencies --   1340.7959              1351.7303              1361.0793
 Red. masses --      1.5248                 4.3822                 1.5589
 Frc consts  --      1.6150                 4.7176                 1.7015
 IR Inten    --      9.4526                 9.4202                18.9148

                     73                     74                     75
                      A                      A                      A
 Frequencies --   1373.1843              1392.6472              1416.4466
 Red. masses --      1.5011                 1.4212                 1.5391
 Frc consts  --      1.6677                 1.6240                 1.8193
 IR Inten    --      9.0137                23.7281                18.3045

                     76                     77                     78
                      A                      A                      A
 Frequencies --   1426.7463              1427.5286              1437.8169
 Red. masses --      1.2969                 1.2116                 1.6467
 Frc consts  --      1.5554                 1.4547                 2.0058
 IR Inten    --      1.2363                 4.2447                25.5781

                     79                     80                     81
                      A                      A                      A
 Frequencies --   1459.6379              1464.3932              1474.2264
 Red. masses --      1.2174                 2.3266                 1.0873
 Frc consts  --      1.5282                 2.9396                 1.3922
 IR Inten    --      1.6447                18.1961                 4.2564

                     82                     83                     84
                      A                      A                      A
 Frequencies --   1484.9829              1512.8731              1515.7364
 Red. masses --      1.2051                 1.0495                 1.0542
 Frc consts  --      1.5657                 1.4152                 1.4270
 IR Inten    --      0.1729                 0.0043                12.3803

                     85                     86                     87
                      A                      A                      A
 Frequencies --   1516.8449              1519.6722              1520.4768
 Red. masses --      1.0456                 1.0695                 1.0583
 Frc consts  --      1.4174                 1.4552                 1.4415
 IR Inten    --      0.0908                 3.3951                 1.9382

                     88                     89                     90
                      A                      A                      A
 Frequencies --   1533.5110              1537.1725              1538.6037
 Red. masses --      1.0760                 1.0565                 1.0503
 Frc consts  --      1.4908                 1.4709                 1.4649
 IR Inten    --     10.1528                 4.7620                 5.4987

                     91                     92                     93
                      A                      A                      A
 Frequencies --   1541.9261              1550.4737              1564.0406
 Red. masses --      1.1045                 1.0820                 2.1485
 Frc consts  --      1.5472                 1.5325                 3.0965
 IR Inten    --      4.2556                 3.4809                33.9022

                     94                     95                     96
                      A                      A                      A
 Frequencies --   1610.5969              1659.1877              1674.7535
 Red. masses --      5.6635                 7.1008                 6.0518
 Frc consts  --      8.6558                11.5173                10.0008
 IR Inten    --      5.8694               301.4704                13.8530

                     97                     98                     99
                      A                      A                      A
 Frequencies --   1774.8430              2857.2582              2913.8087
 Red. masses --     11.2753                 1.0730                 1.0728
 Frc consts  --     20.9265                 5.1613                 5.3665
 IR Inten    --    124.8311                54.5116                57.4935

                    100                    101                    102
                      A                      A                      A
 Frequencies --   2937.3933              3046.3197              3046.6804
 Red. masses --      1.0625                 1.0348                 1.0351
 Frc consts  --      5.4015                 5.6579                 5.6609
 IR Inten    --    117.7041                24.4041                26.5283

                    103                    104                    105
                      A                      A                      A
 Frequencies --   3051.2979              3054.0575              3069.4319
 Red. masses --      1.0656                 1.0363                 1.0848
 Frc consts  --      5.8454                 5.6948                 6.0217
 IR Inten    --     10.1542                31.7621                14.3388

                    106                    107                    108
                      A                      A                      A
 Frequencies --   3080.2829              3086.2877              3113.0893
 Red. masses --      1.0717                 1.0860                 1.1010
 Frc consts  --      5.9913                 6.0947                 6.2866
 IR Inten    --     29.1948                56.2483                 3.8881

                    109                    110                    111
                      A                      A                      A
 Frequencies --   3113.1061              3113.6670              3118.4491
 Red. masses --      1.0987                 1.1024                 1.1028
 Frc consts  --      6.2735                 6.2972                 6.3187
 IR Inten    --     19.2127                 3.5480                27.0072

                    112                    113                    114
                      A                      A                      A
 Frequencies --   3121.4401              3125.7207              3125.9960
 Red. masses --      1.1015                 1.1023                 1.1041
 Frc consts  --      6.3236                 6.3453                 6.3566
 IR Inten    --    105.4828                16.9957                33.6040

                    115                    116                    117
                      A                      A                      A
 Frequencies --   3128.2294              3168.6710              3185.1265
 Red. masses --      1.1014                 1.0867                 1.0870
 Frc consts  --      6.3505                 6.4283                 6.4974
 IR Inten    --     43.9056                 0.9807                 8.6607

                    118                    119                    120
                      A                      A                      A
 Frequencies --   3203.7976              3219.2977              3239.0159
 Red. masses --      1.0934                 1.0869                 1.0924
 Frc consts  --      6.6121                 6.6366                 6.7521
 IR Inten    --     24.9955                 6.9222                 9.5203

 - Thermochemistry -
 -------------------
 Temperature   298.150 Kelvin.  Pressure   1.00000 Atm.
 Atom     1 has atomic number  6 and mass  12.00000

 Molecular mass:   257.17796 amu.
 Principal axes and moments of inertia in atomic units:
                           1         2         3
     Eigenvalues --  2102.81921********************
           X            0.99996  -0.00894  -0.00103
           Y            0.00895   0.99990   0.01049
           Z            0.00093  -0.01050   0.99994
 This molecule is an asymmetric top.
 Rotational symmetry number  1.
 Warning -- assumption of classical behavior for rotation
           may cause significant error
 Rotational temperatures (Kelvin)      0.04119     0.00729     0.00648
 Rotational constants (GHZ):           0.85825     0.15196     0.13500
 Zero-point vibrational energy     967094.6 (Joules/Mol)
                                  231.14116 (Kcal/Mol)
 Warning -- explicit consideration of  31 degrees of freedom as
           vibrations may cause significant error
 Vibrational temperatures:     29.32    58.12    74.93    86.15   121.34
          (Kelvin)            175.54   214.31   265.47   288.76   292.93
                              328.10   366.96   379.28   396.74   428.61
                              480.07   482.69   513.20   521.91   531.54
                              574.98   579.60   598.25   609.61   667.70
                              694.98   699.61   763.81   821.82   835.36
                              889.94   944.65   981.17  1013.00  1077.40
                             1107.28  1190.54  1217.98  1226.34  1228.37
                             1256.58  1354.19  1361.59  1372.15  1389.76
                             1392.84  1403.72  1415.91  1447.84  1478.48
                             1495.58  1521.39  1530.62  1549.65  1562.92
                             1588.04  1650.21  1675.31  1675.76  1703.02
                             1734.09  1775.17  1778.97  1787.75  1795.94
                             1807.86  1867.82  1883.39  1888.37  1929.11
                             1944.84  1958.29  1975.71  2003.71  2037.95
                             2052.77  2053.90  2068.70  2100.09  2106.94
                             2121.08  2136.56  2176.69  2180.81  2182.40
                             2186.47  2187.63  2206.38  2211.65  2213.71
                             2218.49  2230.79  2250.31  2317.29  2387.20
                             2409.60  2553.60  4110.96  4192.32  4226.25
                             4382.97  4383.49  4390.14  4394.11  4416.23
                             4431.84  4440.48  4479.04  4479.07  4479.87
                             4486.75  4491.06  4497.21  4497.61  4500.82
                             4559.01  4582.69  4609.55  4631.85  4660.22

 Zero-point correction=                           0.368347 (Hartree/Particle)
 Thermal correction to Energy=                    0.386892
 Thermal correction to Enthalpy=                  0.387837
 Thermal correction to Gibbs Free Energy=         0.321233
 Sum of electronic and zero-point Energies=           -791.339604
 Sum of electronic and thermal Energies=              -791.321059
 Sum of electronic and thermal Enthalpies=            -791.320114
 Sum of electronic and thermal Free Energies=         -791.386719

                     E (Thermal)             CV                S
                      KCal/Mol        Cal/Mol-Kelvin    Cal/Mol-Kelvin
 Total                  242.779             72.841            140.180
 Electronic               0.000              0.000              0.000
 Translational            0.889              2.981             42.534
 Rotational               0.889              2.981             34.167
 Vibrational            241.001             66.880             63.479
 Vibration     1          0.593              1.986              6.597
 Vibration     2          0.594              1.981              5.240
 Vibration     3          0.596              1.977              4.737
 Vibration     4          0.597              1.973              4.461
 Vibration     5          0.601              1.960              3.787
 Vibration     6          0.610              1.931              3.068
 Vibration     7          0.618              1.904              2.686
 Vibration     8          0.631              1.861              2.282
 Vibration     9          0.638              1.839              2.127
 Vibration    10          0.639              1.835              2.100
 Vibration    11          0.651              1.798              1.894
 Vibration    12          0.665              1.754              1.695
 Vibration    13          0.670              1.740              1.638
 Vibration    14          0.677              1.718              1.560
 Vibration    15          0.691              1.678              1.429
 Vibration    16          0.715              1.608              1.242
 Vibration    17          0.717              1.605              1.234
 Vibration    18          0.732              1.562              1.136
 Vibration    19          0.737              1.549              1.110
 Vibration    20          0.742              1.535              1.082
 Vibration    21          0.766              1.471              0.964
 Vibration    22          0.768              1.464              0.952
 Vibration    23          0.779              1.436              0.906
 Vibration    24          0.786              1.419              0.879
 Vibration    25          0.822              1.330              0.754
 Vibration    26          0.839              1.288              0.702
 Vibration    27          0.842              1.281              0.693
 Vibration    28          0.886              1.182              0.585
 Vibration    29          0.927              1.094              0.502
 Vibration    30          0.937              1.073              0.484
 Vibration    31          0.978              0.993              0.419

 Optimization completed.
    -- Stationary point found.
 Normal termination of Gaussian 16 at Sun Dec 13 20:42:06 2020.

 ----------------------------------------------------------------------
 # B3LYP/6-311++G(d,p) empiricaldispersion=gd3bj scf=xqc pop=npa geom=c
 heck
 ----------------------------------------------------------------------

 ---------------------------------------
 CID_110540099_JID_9495_Energie_neutraal
 ---------------------------------------
 Structure from the checkpoint file:  "JID_9495.chk"
 Charge =  0 Multiplicity = 1

 SCF Done:  E(RB3LYP) =  -791.918125061     A.U. after   15 cycles
 Normal termination of Gaussian 16 at Sun Dec 13 20:49:43 2020.

 ----------------------------------------------------------------------
 # B3LYP/6-311++G(d,p) empiricaldispersion=gd3bj scf=xqc pop=npa geom=c
 heck
 ----------------------------------------------------------------------

 -------------------------------------
 CID_110540099_JID_9495_Energie_kation
 -------------------------------------
 Structure from the checkpoint file:  "JID_9495.chk"
 Charge =  1 Multiplicity = 2

 SCF Done:  E(UB3LYP) =  -791.633412670     A.U. after   27 cycles
 Normal termination of Gaussian 16 at Sun Dec 13 21:08:35 2020.
 Gaussian 16:  ES64L-G16RevA.03 25-Dec-2016

 ----------------------------------------------------------------------
 # B3LYP/6-311++G(d,p) empiricaldispersion=gd3bj scf=xqc pop=npa geom=c
 heck
 ----------------------------------------------------------------------

 ------------------------------------
 CID_110540099_JID_9495_Energie_anion
 ------------------------------------
 Structure from the checkpoint file:  "JID_9495.chk"
 Charge = -1 Multiplicity = 2

                         Standard orientation:
 ---------------------------------------------------------------------
 Center     Atomic      Atomic             Coordinates (Angstroms)
 Number     Number       Type             X           Y           Z
 ---------------------------------------------------------------------
      1          6           0        4.949290    0.299882   -1.495491
      2          6           0        4.477879    0.325772   -0.024853
      3          6           0        5.297329   -0.694712    0.795277
      4          6           0        4.747484    1.728699    0.543016
      5          6           0        2.993482   -0.052055    0.034838
      6          6           0        2.011610    0.793911    0.564080
      7          6           0        0.667641    0.426526    0.596350
      8          6           0        0.241973   -0.816819    0.097815
      9          6           0        1.236001   -1.681209   -0.404149
     10          6           0        2.569427   -1.303490   -0.444982
     11          6           0       -1.139607   -1.283923    0.087631
     12          6           0       -2.300789   -0.589330    0.092330
     13          6           0       -2.400253    0.919929    0.095675
     14          7           0       -3.657148    1.412981   -0.457467
     15          6           0       -4.790750    0.823376    0.244373
     16          6           0       -4.871940   -0.661236   -0.098575
     17          6           0       -3.556162   -1.402579    0.080174
     18          8           0       -3.547471   -2.622566    0.176846
     19          6           0       -3.688668    2.865909   -0.434638
     20          1           0        6.011852    0.562645   -1.558079
     21          1           0        4.382705    1.017825   -2.098541
     22          1           0        4.821920   -0.689815   -1.945157
     23          1           0        6.363595   -0.442201    0.758734
     24          1           0        4.980942   -0.694816    1.844062
     25          1           0        5.180795   -1.712422    0.409857
     26          1           0        4.207511    2.502390   -0.013830
     27          1           0        4.462187    1.801440    1.598241
     28          1           0        5.816913    1.954412    0.472646
     29          1           0        2.288224    1.760196    0.969443
     30          1           0       -0.044082    1.102563    1.053778
     31          1           0        0.942032   -2.658958   -0.776880
     32          1           0        3.296705   -1.999276   -0.852433
     33          1           0       -1.263299   -2.364575    0.035779
     34          1           0       -2.264577    1.294833    1.135391
     35          1           0       -1.578108    1.342534   -0.493099
     36          1           0       -5.706966    1.330965   -0.075524
     37          1           0       -4.710300    0.965931    1.341870
     38          1           0       -5.142355   -0.763153   -1.158109
     39          1           0       -5.639535   -1.180303    0.484078
     40          1           0       -3.622176    3.285603    0.588869
     41          1           0       -2.849229    3.261154   -1.016650
     42          1           0       -4.618623    3.220789   -0.890172
 ---------------------------------------------------------------------

 SCF Done:  E(UB3LYP) =  -791.940359609     A.U. after   25 cycles

 The electronic state is 2-A.
 Alpha  occ. eigenvalues --  -18.92328 -14.19492 -10.09057 -10.08880 -10.08166
 Alpha  occ. eigenvalues --  -10.07349 -10.06967 -10.06888 -10.06729 -10.06719
 Alpha  occ. eigenvalues --  -10.04438 -10.04391 -10.04345 -10.03780 -10.03739
 Alpha  occ. eigenvalues --  -10.03666 -10.03326 -10.01044 -10.00360  -0.86344
 Alpha  occ. eigenvalues --   -0.81870  -0.74328  -0.70845  -0.65591  -0.64671
 Alpha  occ. eigenvalues --   -0.62017  -0.61255  -0.59494  -0.59405  -0.57137
 Alpha  occ. eigenvalues --   -0.54400  -0.49918  -0.48229  -0.46901  -0.44992
 Alpha  occ. eigenvalues --   -0.43208  -0.39162  -0.37840  -0.36164  -0.35607
 Alpha  occ. eigenvalues --   -0.34948  -0.34923  -0.33849  -0.33287  -0.31822
 Alpha  occ. eigenvalues --   -0.31582  -0.30440  -0.30160  -0.29552  -0.29465
 Alpha  occ. eigenvalues --   -0.28836  -0.27911  -0.27769  -0.26819  -0.26563
 Alpha  occ. eigenvalues --   -0.26070  -0.24915  -0.24571  -0.23923  -0.23073
 Alpha  occ. eigenvalues --   -0.22490  -0.21351  -0.20306  -0.20071  -0.19179
 Alpha  occ. eigenvalues --   -0.14884  -0.12948  -0.11173  -0.08793  -0.08317
 Alpha  occ. eigenvalues --    0.03241
 Alpha virt. eigenvalues --    0.06285   0.07374   0.08411   0.08793   0.09019
 Alpha virt. eigenvalues --    0.09511   0.10059   0.10664   0.10741   0.11226
 Alpha virt. eigenvalues --    0.11505   0.11717   0.11994   0.12342   0.12620

  Beta  occ. eigenvalues --  -18.91936 -14.19488 -10.09076 -10.08877 -10.08162
  Beta  occ. eigenvalues --  -10.07112 -10.06966 -10.06901 -10.06711 -10.06702
  Beta  occ. eigenvalues --  -10.04498 -10.04414 -10.04112 -10.03804 -10.03708
  Beta  occ. eigenvalues --  -10.03554 -10.03147 -10.00901 -10.00041  -0.85632
  Beta  occ. eigenvalues --   -0.81843  -0.74132  -0.70672  -0.65185  -0.64547
  Beta  occ. eigenvalues --   -0.61849  -0.61003  -0.59454  -0.59345  -0.56895
  Beta  occ. eigenvalues --   -0.54119  -0.49649  -0.48094  -0.46754  -0.44587
  Beta  occ. eigenvalues --   -0.42993  -0.39054  -0.37715  -0.36044  -0.35520
  Beta  occ. eigenvalues --   -0.34886  -0.34856  -0.33695  -0.33138  -0.31641
  Beta  occ. eigenvalues --   -0.31467  -0.30354  -0.30069  -0.29353  -0.29273
  Beta  occ. eigenvalues --   -0.28772  -0.27848  -0.27759  -0.26567  -0.26193
  Beta  occ. eigenvalues --   -0.25770  -0.24685  -0.24514  -0.23745  -0.22645
  Beta  occ. eigenvalues --   -0.22353  -0.21201  -0.20091  -0.19019  -0.18514
  Beta  occ. eigenvalues --   -0.13506  -0.12381  -0.11096  -0.08183  -0.06887
  Beta virt. eigenvalues --    0.06257   0.07331   0.08374   0.08650   0.08935
  Beta virt. eigenvalues --    0.09117   0.09529   0.10048   0.10658   0.10828
  Beta virt. eigenvalues --    0.11257   0.11515   0.11842   0.12340   0.12360

 Mulliken charges and spin densities:
               1          2
     1  C   -0.661555  -0.008276
     2  C    0.589941  -0.011381
     3  C   -0.671582  -0.001790
     4  C   -0.507823   0.001715
     5  C    0.523863   0.185622
     6  C   -0.464395  -0.049209
     7  C   -0.521874   0.149432
     8  C    0.758230  -0.004709
     9  C   -0.290188   0.095581
    10  C   -0.673744  -0.021128
    11  C   -0.179437   0.275501
    12  C    0.964061   0.141496
    13  C   -1.333219  -0.030992
    14  N    0.194079   0.011103
    15  C   -0.275555  -0.005583
    16  C   -0.242896  -0.006713
    17  C   -0.454475   0.074307
    18  O   -0.390877   0.151644
    19  C   -0.241212  -0.006159
    20  H    0.112801   0.007439
    21  H    0.137210   0.000721
    22  H    0.138954  -0.000758
    23  H    0.114853   0.005332
    24  H    0.135587   0.000553
    25  H    0.142127  -0.001567
    26  H    0.130906   0.000171
    27  H    0.130225  -0.000268
    28  H    0.144815  -0.000221
    29  H    0.145116   0.004550
    30  H    0.087916  -0.011302
    31  H    0.129950   0.004416
    32  H    0.089931   0.001771
    33  H    0.175335  -0.020236
    34  H    0.118555   0.007335
    35  H    0.176954   0.000645
    36  H    0.128846   0.014005
    37  H    0.072433   0.001682
    38  H    0.104197   0.046649
    39  H    0.149084  -0.006367
    40  H    0.086778   0.000828
    41  H    0.109037   0.000892
    42  H    0.117044   0.003271
 Sum of Mulliken charges =  -1.00000   1.00000

 Dipole moment (field-independent basis, Debye):
    X=              5.6370    Y=              6.1292    Z=             -0.0739  Tot=              8.3276
 Quadrupole moment (field-independent basis, Debye-Ang):
   XX=           -174.5513   YY=           -142.6582   ZZ=           -128.9383
   XY=            -19.2843   XZ=             -1.0592   YZ=              2.8018

 Summary of Natural Population Analysis:

                                       Natural Population
                Natural  -----------------------------------------------
    Atom  No    Charge         Core      Valence    Rydberg      Total
 -----------------------------------------------------------------------
      C    1   -0.27709      0.99964     2.27170    0.00576     3.27709
      C    2   -0.05338      0.99957     2.04601    0.00780     3.05338
      C    3   -0.27704      0.99964     2.27166    0.00575     3.27704
      C    4   -0.27638      0.99964     2.27169    0.00505     3.27638
      C    5    0.02798      0.99948     1.96237    0.01016     2.97202
      C    6   -0.12835      0.99952     2.12062    0.00820     3.12835
      C    7   -0.05964      0.99954     2.05154    0.00857     3.05964
      C    8   -0.04293      0.99955     2.03246    0.01092     3.04293
      C    9   -0.05786      0.99944     2.04811    0.01031     3.05786
      C   10   -0.12788      0.99954     2.11979    0.00855     3.12788
      C   11    0.01538      0.99948     1.97940    0.00574     2.98462
      C   12   -0.05541      0.99948     2.04419    0.01174     3.05541
      C   13   -0.09336      0.99960     2.08446    0.00930     3.09336
      N   14   -0.27654      0.99971     2.76184    0.01498     3.77654
      C   15   -0.08138      0.99963     2.07145    0.01029     3.08138
      C   16   -0.23168      0.99960     2.22259    0.00950     3.23168
      C   17    0.29997      0.99960     1.67798    0.02245     2.70003
      O   18   -0.27483      0.99988     3.26797    0.00699     4.27483
      C   19   -0.17279      0.99966     2.16627    0.00686     3.17279
      H   20    0.08983      0.00000     0.40918    0.00099     0.41017
      H   21    0.10047      0.00000     0.39873    0.00080     0.39953
      H   22    0.09917      0.00000     0.40008    0.00074     0.40083
      H   23    0.08983      0.00000     0.40918    0.00099     0.41017
      H   24    0.10036      0.00000     0.39884    0.00080     0.39964
      H   25    0.09913      0.00000     0.40012    0.00074     0.40087
      H   26    0.09882      0.00000     0.40015    0.00103     0.40118
      H   27    0.09851      0.00000     0.40047    0.00102     0.40149
      H   28    0.09228      0.00000     0.40680    0.00092     0.40772
      H   29    0.09261      0.00000     0.40570    0.00168     0.40739
      H   30    0.09384      0.00000     0.40451    0.00165     0.40616
      H   31    0.09729      0.00000     0.40217    0.00054     0.40271
      H   32    0.09029      0.00000     0.40829    0.00142     0.40971
      H   33    0.09986      0.00000     0.39786    0.00228     0.40014
      H   34    0.07688      0.00000     0.42160    0.00152     0.42312
      H   35    0.10001      0.00000     0.39839    0.00160     0.39999
      H   36    0.08795      0.00000     0.41053    0.00152     0.41205
      H   37    0.07402      0.00000     0.42345    0.00253     0.42598
      H   38    0.10482      0.00000     0.39249    0.00269     0.39518
      H   39    0.10017      0.00000     0.39781    0.00202     0.39983
      H   40    0.07485      0.00000     0.42314    0.00201     0.42515
      H   41    0.09305      0.00000     0.40586    0.00109     0.40695
      H   42    0.08928      0.00000     0.40976    0.00096     0.41072
 =======================================================================
   * Total *    0.00010     18.99221    50.79722    0.21047    69.99990

 Normal termination of Gaussian 16 at Sun Dec 13 21:25:59 2020.
