 Gaussian 16, Revision A.03,

 -----------------------------------------------------------
 # opt freq B3LYP/6-31G(d) empiricaldispersion=gd3bj scf=xqc
 -----------------------------------------------------------

 -------------------------------
 CID_44178029_JID_10228_neutraal
 -------------------------------
 Symbolic Z-matrix:
 Charge =  0 Multiplicity = 1

 SCF Done:  E(RB3LYP) =  -1027.66394396     A.U. after   16 cycles
 SCF Done:  E(RB3LYP) =  -1027.67112088     A.U. after   13 cycles
 SCF Done:  E(RB3LYP) =  -1027.67260540     A.U. after   14 cycles
 SCF Done:  E(RB3LYP) =  -1027.67199368     A.U. after   14 cycles
 SCF Done:  E(RB3LYP) =  -1027.67327890     A.U. after   14 cycles
 SCF Done:  E(RB3LYP) =  -1027.67347885     A.U. after   12 cycles
 SCF Done:  E(RB3LYP) =  -1027.67381016     A.U. after   13 cycles
 SCF Done:  E(RB3LYP) =  -1027.67399755     A.U. after   13 cycles
 SCF Done:  E(RB3LYP) =  -1027.67475784     A.U. after   12 cycles
 SCF Done:  E(RB3LYP) =  -1027.67648209     A.U. after   13 cycles
 SCF Done:  E(RB3LYP) =  -1027.67998105     A.U. after    8 cycles
 SCF Done:  E(RB3LYP) =  -1027.67998112     A.U. after    8 cycles
 SCF Done:  E(RB3LYP) =  -1027.67998116     A.U. after    8 cycles
 SCF Done:  E(RB3LYP) =  -1027.67998117     A.U. after    7 cycles
 SCF Done:  E(RB3LYP) =  -1027.67998118     A.U. after    7 cycles
 Optimization completed.
    -- Stationary point found.
 Normal termination of Gaussian 16 at Mon Dec 14 14:08:29 2020.

 --------------------------------------------------------------------
 #N Geom=AllCheck Guess=TCheck SCRF=Check GenChk RB3LYP/6-31G(d) Freq
 --------------------------------------------------------------------

 Structure from the checkpoint file:  "JID_10228.chk"
 -------------------------------
 CID_44178029_JID_10228_neutraal
 -------------------------------
 Charge =  0 Multiplicity = 1

 SCF Done:  E(RB3LYP) =  -1027.67998118     A.U. after    1 cycles

  Exact polarizability: 198.751  10.869 140.603  -4.254  20.732 132.306
 Approx polarizability: 260.144  13.960 213.687 -20.277  39.628 235.932

                      1                      2                      3
                      A                      A                      A
 Frequencies --     10.6349                16.1789                30.5606
 Red. masses --      8.4506                 6.7237                 6.5732
 Frc consts  --      0.0006                 0.0010                 0.0036
 IR Inten    --      0.5161                 1.8295                 0.9073

                      4                      5                      6
                      A                      A                      A
 Frequencies --     37.6082                46.5606                49.8949
 Red. masses --      6.1107                 4.7313                 8.8692
 Frc consts  --      0.0051                 0.0060                 0.0130
 IR Inten    --      1.7815                 0.3239                 0.3476

                      7                      8                      9
                      A                      A                      A
 Frequencies --     74.1906                89.9761               117.5782
 Red. masses --      6.2378                 6.0768                 4.9269
 Frc consts  --      0.0202                 0.0290                 0.0401
 IR Inten    --      0.3364                 0.4261                 0.2092

                     10                     11                     12
                      A                      A                      A
 Frequencies --    156.9595               178.7875               207.1768
 Red. masses --      7.8366                 4.1416                 4.0896
 Frc consts  --      0.1137                 0.0780                 0.1034
 IR Inten    --      0.8217                 6.4335                 0.1389

                     13                     14                     15
                      A                      A                      A
 Frequencies --    226.5025               239.7120               264.5294
 Red. masses --      4.7123                 3.4458                 2.6334
 Frc consts  --      0.1424                 0.1167                 0.1086
 IR Inten    --      6.7078                 0.8888                11.8154

                     16                     17                     18
                      A                      A                      A
 Frequencies --    269.7252               290.3969               314.1860
 Red. masses --      3.9088                 1.4368                 2.7357
 Frc consts  --      0.1675                 0.0714                 0.1591
 IR Inten    --      4.1383                50.0796                 6.6303

                     19                     20                     21
                      A                      A                      A
 Frequencies --    334.2231               343.0563               402.6830
 Red. masses --      2.7180                 2.9091                 4.1844
 Frc consts  --      0.1789                 0.2017                 0.3998
 IR Inten    --     10.3620                 3.1450                 4.3277

                     22                     23                     24
                      A                      A                      A
 Frequencies --    425.0676               440.1093               465.9936
 Red. masses --      3.2445                 4.3769                 4.2347
 Frc consts  --      0.3454                 0.4995                 0.5418
 IR Inten    --      0.1879                 4.3205                 6.7386

                     25                     26                     27
                      A                      A                      A
 Frequencies --    503.2939               554.5946               577.4968
 Red. masses --      3.5799                 3.0609                 4.1282
 Frc consts  --      0.5343                 0.5547                 0.8112
 IR Inten    --      4.4252                24.1086                 8.0953

                     28                     29                     30
                      A                      A                      A
 Frequencies --    609.9386               638.5216               654.5472
 Red. masses --      1.9592                 1.4453                 6.6707
 Frc consts  --      0.4294                 0.3472                 1.6839
 IR Inten    --     24.5067               138.9126                 0.2038

                     31                     32                     33
                      A                      A                      A
 Frequencies --    710.8046               719.0780               752.2941
 Red. masses --      6.2703                 4.7641                 2.9605
 Frc consts  --      1.8665                 1.4514                 0.9872
 IR Inten    --     12.9600                 5.7833                 3.2939

                     34                     35                     36
                      A                      A                      A
 Frequencies --    755.7595               765.7767               779.2988
 Red. masses --      5.2503                13.3107                 3.8457
 Frc consts  --      1.7668                 4.5989                 1.3761
 IR Inten    --     14.6362                15.7947                11.9295

                     37                     38                     39
                      A                      A                      A
 Frequencies --    813.6973               837.2625               845.2566
 Red. masses --      1.8595                 1.9154                 1.5688
 Frc consts  --      0.7254                 0.7911                 0.6604
 IR Inten    --      8.2598                18.3264                15.0430

                     40                     41                     42
                      A                      A                      A
 Frequencies --    853.3526               879.0824               886.3506
 Red. masses --      2.7531                 2.6491                 9.9492
 Frc consts  --      1.1812                 1.2061                 4.6052
 IR Inten    --     20.9072               110.6574               190.8871

                     43                     44                     45
                      A                      A                      A
 Frequencies --    897.2408               915.8351               960.0107
 Red. masses --      2.6881                 3.2575                 1.3780
 Frc consts  --      1.2750                 1.6098                 0.7483
 IR Inten    --     20.8306                17.6170                 7.5481

                     46                     47                     48
                      A                      A                      A
 Frequencies --    962.7720               969.7576               976.7684
 Red. masses --      2.3443                 1.3592                 1.4344
 Frc consts  --      1.2803                 0.7531                 0.8063
 IR Inten    --     42.8281                 7.3688                53.5485

                     49                     50                     51
                      A                      A                      A
 Frequencies --   1000.8760              1042.5565              1051.8777
 Red. masses --      2.3938                 2.7759                 1.9747
 Frc consts  --      1.4129                 1.7777                 1.2873
 IR Inten    --     50.7263                18.2057                13.5426

                     52                     53                     54
                      A                      A                      A
 Frequencies --   1059.3413              1108.2437              1111.0645
 Red. masses --      2.2449                 2.0960                 4.5128
 Frc consts  --      1.4843                 1.5167                 3.2822
 IR Inten    --     17.8256                 4.9183                47.3396

                     55                     56                     57
                      A                      A                      A
 Frequencies --   1125.0802              1142.2635              1187.8784
 Red. masses --      1.6672                 1.3786                 1.6588
 Frc consts  --      1.2433                 1.0598                 1.3790
 IR Inten    --    122.9935                 5.5957               167.7643

                     58                     59                     60
                      A                      A                      A
 Frequencies --   1202.4745              1211.5987              1223.2930
 Red. masses --      1.2903                 1.3631                 1.7111
 Frc consts  --      1.0992                 1.1789                 1.5087
 IR Inten    --     95.3444                10.2283                39.7172

                     61                     62                     63
                      A                      A                      A
 Frequencies --   1234.8587              1241.1529              1252.2813
 Red. masses --      1.9321                 2.3873                 1.2000
 Frc consts  --      1.7359                 2.1668                 1.1087
 IR Inten    --     72.4471                34.8428                20.4230

                     64                     65                     66
                      A                      A                      A
 Frequencies --   1259.0065              1312.2416              1335.6607
 Red. masses --      2.0545                 1.1842                 4.0575
 Frc consts  --      1.9187                 1.2014                 4.2648
 IR Inten    --    290.0692                 8.6643               232.1395

                     67                     68                     69
                      A                      A                      A
 Frequencies --   1345.6617              1360.3836              1366.9223
 Red. masses --      1.4139                 3.2041                 1.7108
 Frc consts  --      1.5084                 3.4936                 1.8833
 IR Inten    --      3.2353                 3.3131                53.3506

                     70                     71                     72
                      A                      A                      A
 Frequencies --   1383.9283              1403.7850              1406.4229
 Red. masses --      1.5839                 1.5246                 1.3205
 Frc consts  --      1.7873                 1.7701                 1.5389
 IR Inten    --      4.5157                17.3681                19.7763

                     73                     74                     75
                      A                      A                      A
 Frequencies --   1432.0342              1433.8171              1468.4433
 Red. masses --      1.4832                 1.5639                 2.7640
 Frc consts  --      1.7921                 1.8943                 3.5116
 IR Inten    --     80.2086                23.7145                 3.6988

                     76                     77                     78
                      A                      A                      A
 Frequencies --   1473.7066              1505.7452              1524.8738
 Red. masses --      1.2601                 1.0873                 1.1071
 Frc consts  --      1.6124                 1.4525                 1.5167
 IR Inten    --     45.9869                 4.4946                 4.0298

                     79                     80                     81
                      A                      A                      A
 Frequencies --   1528.9240              1536.0261              1560.1796
 Red. masses --      1.0899                 1.0910                 2.4989
 Frc consts  --      1.5010                 1.5165                 3.5839
 IR Inten    --      1.7242                 8.9694                71.5107

                     82                     83                     84
                      A                      A                      A
 Frequencies --   1649.4362              1670.3721              1694.5478
 Red. masses --      6.8327                 5.8705                 1.1072
 Frc consts  --     10.9526                 9.6505                 1.8731
 IR Inten    --      1.9090                12.1941                35.9650

                     85                     86                     87
                      A                      A                      A
 Frequencies --   1751.6625              1805.9256              3001.7649
 Red. masses --     14.4071                 9.7947                 1.0699
 Frc consts  --     26.0453                18.8210                 5.6800
 IR Inten    --    309.4073               167.6475                61.1732

                     88                     89                     90
                      A                      A                      A
 Frequencies --   3054.4136              3064.4374              3091.9571
 Red. masses --      1.0616                 1.0636                 1.0661
 Frc consts  --      5.8354                 5.8846                 6.0052
 IR Inten    --     14.1957                30.9020                17.0450

                     91                     92                     93
                      A                      A                      A
 Frequencies --   3094.5648              3097.3122              3103.1081
 Red. masses --      1.0942                 1.0949                 1.0868
 Frc consts  --      6.1736                 6.1888                 6.1659
 IR Inten    --     36.7132                18.7882                22.6017

                     94                     95                     96
                      A                      A                      A
 Frequencies --   3116.2721              3151.7306              3183.5553
 Red. masses --      1.1011                 1.1083                 1.0895
 Frc consts  --      6.3001                 6.4867                 6.5057
 IR Inten    --     20.2923                23.0822                13.8994

                     97                     98                     99
                      A                      A                      A
 Frequencies --   3196.8264              3221.1326              3231.5886
 Red. masses --      1.0890                 1.0940                 1.0935
 Frc consts  --      6.5574                 6.6878                 6.7282
 IR Inten    --      7.8764                 4.4830                 3.3762

                    100                    101                    102
                      A                      A                      A
 Frequencies --   3460.6955              3553.8562              3658.6841
 Red. masses --      1.0498                 1.0920                 1.0651
 Frc consts  --      7.4078                 8.1256                 8.4001
 IR Inten    --      4.1044                 4.5595               117.5561

 - Thermochemistry -
 -------------------
 Temperature   298.150 Kelvin.  Pressure   1.00000 Atm.
 Atom     1 has atomic number  6 and mass  12.00000

 Molecular mass:   284.10084 amu.
 Principal axes and moments of inertia in atomic units:
                           1         2         3
     Eigenvalues --  2933.13048********************
           X            0.99985   0.01601   0.00710
           Y           -0.01619   0.99955   0.02537
           Z           -0.00669  -0.02548   0.99965
 This molecule is an asymmetric top.
 Rotational symmetry number  1.
 Warning -- assumption of classical behavior for rotation
           may cause significant error
 Rotational temperatures (Kelvin)      0.02953     0.00660     0.00602
 Rotational constants (GHZ):           0.61530     0.13746     0.12544
 Zero-point vibrational energy     756862.5 (Joules/Mol)
                                  180.89448 (Kcal/Mol)
 Warning -- explicit consideration of  28 degrees of freedom as
           vibrations may cause significant error
 Vibrational temperatures:     15.30    23.28    43.97    54.11    66.99
          (Kelvin)             71.79   106.74   129.46   169.17   225.83
                              257.24   298.08   325.89   344.89   380.60
                              388.07   417.82   452.04   480.87   493.58
                              579.37   611.58   633.22   670.46   724.13
                              797.94   830.89   877.57   918.69   941.75
                             1022.69  1034.59  1082.38  1087.37  1101.78
                             1121.24  1170.73  1204.63  1216.14  1227.78
                             1264.80  1275.26  1290.93  1317.68  1381.24
                             1385.21  1395.26  1405.35  1440.04  1500.01
                             1513.42  1524.16  1594.52  1598.57  1618.74
                             1643.46  1709.09  1730.09  1743.22  1760.05
                             1776.69  1785.74  1801.75  1811.43  1888.02
                             1921.72  1936.11  1957.29  1966.70  1991.16
                             2019.73  2023.53  2060.38  2062.94  2112.76
                             2120.34  2166.43  2193.95  2199.78  2210.00
                             2244.75  2373.17  2403.29  2438.08  2520.25
                             2598.32  4318.87  4394.62  4409.04  4448.64
                             4452.39  4456.34  4464.68  4483.62  4534.64
                             4580.43  4599.52  4634.49  4649.54  4979.17
                             5113.21  5264.03

 Zero-point correction=                           0.288274 (Hartree/Particle)
 Thermal correction to Energy=                    0.307718
 Thermal correction to Enthalpy=                  0.308662
 Thermal correction to Gibbs Free Energy=         0.235450
 Sum of electronic and zero-point Energies=          -1027.391707
 Sum of electronic and thermal Energies=             -1027.372263
 Sum of electronic and thermal Enthalpies=           -1027.371319
 Sum of electronic and thermal Free Energies=        -1027.444531

                     E (Thermal)             CV                S
                      KCal/Mol        Cal/Mol-Kelvin    Cal/Mol-Kelvin
 Total                  193.096             71.056            154.088
 Electronic               0.000              0.000              0.000
 Translational            0.889              2.981             42.830
 Rotational               0.889              2.981             34.670
 Vibrational            191.319             65.094             76.588
 Vibration     1          0.593              1.987              7.889
 Vibration     2          0.593              1.986              7.055
 Vibration     3          0.594              1.984              5.793
 Vibration     4          0.594              1.982              5.381
 Vibration     5          0.595              1.979              4.958
 Vibration     6          0.595              1.978              4.822
 Vibration     7          0.599              1.966              4.039
 Vibration     8          0.602              1.956              3.661
 Vibration     9          0.608              1.935              3.140
 Vibration    10          0.621              1.895              2.586
 Vibration    11          0.629              1.868              2.341
 Vibration    12          0.641              1.830              2.068
 Vibration    13          0.650              1.801              1.906
 Vibration    14          0.657              1.780              1.805
 Vibration    15          0.671              1.738              1.632
 Vibration    16          0.674              1.729              1.598
 Vibration    17          0.686              1.692              1.472
 Vibration    18          0.702              1.647              1.340
 Vibration    19          0.716              1.607              1.240
 Vibration    20          0.722              1.589              1.198
 Vibration    21          0.768              1.464              0.953
 Vibration    22          0.787              1.416              0.875
 Vibration    23          0.800              1.383              0.826
 Vibration    24          0.823              1.325              0.749
 Vibration    25          0.859              1.243              0.650
 Vibration    26          0.910              1.130              0.535
 Vibration    27          0.934              1.080              0.490
 Vibration    28          0.969              1.011              0.433

 Optimization completed.
    -- Stationary point found.
 Normal termination of Gaussian 16 at Mon Dec 14 14:25:40 2020.

 ----------------------------------------------------------------------
 # B3LYP/6-311++G(d,p) empiricaldispersion=gd3bj scf=xqc pop=npa geom=c
 heck
 ----------------------------------------------------------------------

 ---------------------------------------
 CID_44178029_JID_10228_Energie_neutraal
 ---------------------------------------
 Structure from the checkpoint file:  "JID_10228.chk"
 Charge =  0 Multiplicity = 1

 SCF Done:  E(RB3LYP) =  -1027.99283647     A.U. after   16 cycles
 Normal termination of Gaussian 16 at Mon Dec 14 14:33:56 2020.

 ----------------------------------------------------------------------
 # B3LYP/6-311++G(d,p) empiricaldispersion=gd3bj scf=xqc pop=npa geom=c
 heck
 ----------------------------------------------------------------------

 -------------------------------------
 CID_44178029_JID_10228_Energie_kation
 -------------------------------------
 Structure from the checkpoint file:  "JID_10228.chk"
 Charge =  1 Multiplicity = 2

 SCF Done:  E(UB3LYP) =  -1027.67745301     A.U. after   26 cycles
 Normal termination of Gaussian 16 at Mon Dec 14 14:52:59 2020.
 Gaussian 16:  ES64L-G16RevA.03 25-Dec-2016

 ----------------------------------------------------------------------
 # B3LYP/6-311++G(d,p) empiricaldispersion=gd3bj scf=xqc pop=npa geom=c
 heck
 ----------------------------------------------------------------------

 ------------------------------------
 CID_44178029_JID_10228_Energie_anion
 ------------------------------------
 Structure from the checkpoint file:  "JID_10228.chk"
 Charge = -1 Multiplicity = 2

                         Standard orientation:
 ---------------------------------------------------------------------
 Center     Atomic      Atomic             Coordinates (Angstroms)
 Number     Number       Type             X           Y           Z
 ---------------------------------------------------------------------
      1          6           0        0.570168    2.240729    0.378451
      2          6           0       -0.731739    1.805849    0.145996
      3          6           0       -0.941647    0.781825   -0.773112
      4          6           0        0.114342    0.201704   -1.463976
      5          6           0        1.411680    0.653524   -1.223407
      6          6           0        1.659242    1.673988   -0.297239
      7          6           0        3.071945    2.112287    0.011663
      8          6           0        3.639632    1.449459    1.285634
      9          6           0        3.532409   -0.068220    1.285994
     10          8           0        4.223871   -0.515679    0.092500
     11          7           0        4.059235   -1.888466   -0.185402
     12          8           0        3.466395   -2.561759    0.632937
     13          8           0        4.552728   -2.213269   -1.239615
     14          8           0       -2.236221    0.354123   -1.091291
     15          6           0       -3.023268   -0.139826   -0.106327
     16          8           0       -2.649533   -0.325918    1.034623
     17          6           0       -4.441365   -0.399212   -0.599739
     18          6           0       -5.027069   -1.625091    0.125860
     19          8           0       -5.218525   -1.361596    1.504697
     20          7           0       -5.186136    0.842468   -0.349061
     21          1           0        0.742476    3.040077    1.095146
     22          1           0       -1.573898    2.249684    0.664276
     23          1           0       -0.084639   -0.588622   -2.180122
     24          1           0        2.243746    0.202818   -1.757002
     25          1           0        3.724803    1.873184   -0.833050
     26          1           0        3.108987    3.199591    0.146444
     27          1           0        4.685718    1.748700    1.417718
     28          1           0        3.089086    1.801634    2.167212
     29          1           0        4.004629   -0.514408    2.165659
     30          1           0        2.492344   -0.396413    1.234251
     31          1           0       -4.400791   -0.575541   -1.678772
     32          1           0       -6.014866   -1.848020   -0.291456
     33          1           0       -4.385733   -2.506431   -0.036961
     34          1           0       -4.330830   -1.152168    1.851442
     35          1           0       -6.020703    0.856405   -0.932075
     36          1           0       -5.507708    0.802199    0.618929
 ---------------------------------------------------------------------

 SCF Done:  E(UB3LYP) =  -1028.00532241     A.U. after   33 cycles
 SCF Done:  E(UB3LYP) =  -1028.00532241     a.u. after    1 cycles

 The electronic state is 2-A.
 Alpha  occ. eigenvalues --  -19.08958 -19.06265 -19.03535 -19.02866 -19.00891
 Alpha  occ. eigenvalues --  -19.00519 -14.40550 -14.21219 -10.21216 -10.14488
 Alpha  occ. eigenvalues --  -10.13518 -10.12728 -10.12540 -10.09179 -10.09164
 Alpha  occ. eigenvalues --  -10.09110 -10.09029 -10.08837 -10.08786 -10.08528
 Alpha  occ. eigenvalues --   -1.11734  -1.02939  -0.94996  -0.93484  -0.93333
 Alpha  occ. eigenvalues --   -0.92840  -0.80822  -0.77645  -0.71839  -0.67496
 Alpha  occ. eigenvalues --   -0.66563  -0.64908  -0.61318  -0.57670  -0.54098
 Alpha  occ. eigenvalues --   -0.53593  -0.51589  -0.48464  -0.47504  -0.44359
 Alpha  occ. eigenvalues --   -0.43171  -0.43035  -0.42622  -0.41041  -0.40237
 Alpha  occ. eigenvalues --   -0.39356  -0.38855  -0.38248  -0.37211  -0.36603
 Alpha  occ. eigenvalues --   -0.35932  -0.34919  -0.34557  -0.33988  -0.33361
 Alpha  occ. eigenvalues --   -0.31878  -0.31029  -0.30061  -0.29970  -0.28063
 Alpha  occ. eigenvalues --   -0.27479  -0.26416  -0.25687  -0.25628  -0.24963
 Alpha  occ. eigenvalues --   -0.23342  -0.20751  -0.20326  -0.20052  -0.19503
 Alpha  occ. eigenvalues --   -0.18621  -0.17171  -0.16268  -0.15803  -0.15309
 Alpha  occ. eigenvalues --    0.03411
 Alpha virt. eigenvalues --    0.04617   0.05918   0.06608   0.07025   0.07638
 Alpha virt. eigenvalues --    0.08315   0.08534   0.08817   0.09056   0.09288
 Alpha virt. eigenvalues --    0.10366   0.11050   0.11205   0.11641   0.12146

  Beta  occ. eigenvalues --  -19.08959 -19.06224 -19.03531 -19.02787 -19.00568
  Beta  occ. eigenvalues --  -19.00209 -14.39697 -14.21164 -10.21085 -10.14445
  Beta  occ. eigenvalues --  -10.13505 -10.12728 -10.12543 -10.09174 -10.09126
  Beta  occ. eigenvalues --  -10.09107 -10.09023 -10.08839 -10.08766 -10.08533
  Beta  occ. eigenvalues --   -1.10746  -1.02842  -0.94926  -0.93425  -0.92993
  Beta  occ. eigenvalues --   -0.92376  -0.80723  -0.77596  -0.71777  -0.67378
  Beta  occ. eigenvalues --   -0.66531  -0.64821  -0.61191  -0.57523  -0.53856
  Beta  occ. eigenvalues --   -0.53571  -0.51371  -0.48313  -0.47393  -0.44240
  Beta  occ. eigenvalues --   -0.42625  -0.42427  -0.41157  -0.40937  -0.39995
  Beta  occ. eigenvalues --   -0.39155  -0.38723  -0.37739  -0.36529  -0.36406
  Beta  occ. eigenvalues --   -0.35875  -0.34866  -0.34508  -0.33928  -0.33286
  Beta  occ. eigenvalues --   -0.31742  -0.30918  -0.29915  -0.29792  -0.27963
  Beta  occ. eigenvalues --   -0.27394  -0.26314  -0.25654  -0.25593  -0.24908
  Beta  occ. eigenvalues --   -0.23160  -0.20713  -0.20009  -0.19628  -0.19338
  Beta  occ. eigenvalues --   -0.17090  -0.16560  -0.16206  -0.15506  -0.15118
  Beta virt. eigenvalues --    0.05744   0.06194   0.06951   0.07136   0.07789
  Beta virt. eigenvalues --    0.08262   0.08708   0.08988   0.09113   0.09641
  Beta virt. eigenvalues --    0.10385   0.10596   0.11163   0.11429   0.11691

 Mulliken charges and spin densities:
               1          2
     1  C   -0.095970   0.073307
     2  C    0.058789  -0.002172
     3  C   -0.601533  -0.094422
     4  C    0.063516   0.052476
     5  C   -0.457832  -0.068703
     6  C    1.034473  -0.029178
     7  C   -0.437408  -0.007313
     8  C   -0.287597  -0.065576
     9  C   -0.397187  -0.001981
    10  O    0.109404   0.011140
    11  N   -0.354396   0.244991
    12  O   -0.124976   0.124461
    13  O   -0.156521   0.126125
    14  O    0.071157   0.003824
    15  C   -0.302998  -0.305558
    16  O   -0.226942   0.030376
    17  C   -0.213065   0.277837
    18  C    0.076548  -0.632959
    19  O   -0.268257   0.003886
    20  N   -0.165646  -0.067986
    21  H    0.117802   0.026447
    22  H    0.166192   0.020057
    23  H    0.136909   0.047032
    24  H    0.107037   0.068322
    25  H    0.220466  -0.012935
    26  H    0.090173   0.053266
    27  H    0.153685   0.007615
    28  H    0.130181   0.006762
    29  H    0.190601  -0.001685
    30  H    0.166536   0.006279
    31  H   -0.135249   0.365321
    32  H   -0.201442   0.398636
    33  H    0.185256  -0.043634
    34  H    0.238828   0.018607
    35  H   -0.108876   0.354155
    36  H    0.218340   0.013179
 Sum of Mulliken charges =  -1.00000   1.00000

 Dipole moment (field-independent basis, Debye):
    X=              0.4884    Y=              5.4195    Z=              2.1750  Tot=              5.8601
 Quadrupole moment (field-independent basis, Debye-Ang):
   XX=           -233.5444   YY=           -148.2356   ZZ=           -135.4144
   XY=             25.6040   XZ=              7.9164   YZ=              5.1035

 Summary of Natural Population Analysis:

                                       Natural Population
                Natural  -----------------------------------------------
    Atom  No    Charge         Core      Valence    Rydberg      Total
 -----------------------------------------------------------------------
      C    1   -0.09894      0.99952     2.09045    0.00898     3.09894
      C    2   -0.11109      0.99951     2.10336    0.00821     3.11109
      C    3    0.15022      0.99934     1.83852    0.01192     2.84978
      C    4   -0.10822      0.99951     2.09925    0.00947     3.10822
      C    5   -0.09635      0.99952     2.08765    0.00918     3.09635
      C    6   -0.01567      0.99951     2.00648    0.00968     3.01567
      C    7   -0.19863      0.99960     2.18989    0.00914     3.19863
      C    8   -0.19186      0.99962     2.18540    0.00684     3.19186
      C    9   -0.02315      0.99958     2.01287    0.01069     3.02315
      O   10   -0.22902      0.99988     3.21940    0.00973     4.22902
      N   11    0.44795      0.99984     2.02523    0.02698     3.05205
      O   12   -0.19483      0.99989     3.18794    0.00700     4.19483
      O   13   -0.18616      0.99989     3.17847    0.00781     4.18616
      O   14   -0.27168      0.99984     3.26280    0.00905     4.27168
      C   15    0.42948      0.99965     1.54283    0.02803     2.57052
      O   16   -0.31054      0.99986     3.30546    0.00522     4.31054
      C   17   -0.07106      0.99957     2.05777    0.01372     3.07106
      C   18   -0.01638      0.99959     2.00259    0.01419     3.01638
      O   19   -0.37972      0.99990     3.37301    0.00681     4.37972
      N   20   -0.41671      0.99977     2.90600    0.01094     3.91671
      H   21    0.09763      0.00000     0.40124    0.00113     0.40237
      H   22    0.10848      0.00000     0.39032    0.00120     0.39152
      H   23    0.10798      0.00000     0.39097    0.00105     0.39202
      H   24    0.10965      0.00000     0.38834    0.00201     0.39035
      H   25    0.10847      0.00000     0.39026    0.00126     0.39153
      H   26    0.09791      0.00000     0.40060    0.00150     0.40209
      H   27    0.09764      0.00000     0.40126    0.00110     0.40236
      H   28    0.09671      0.00000     0.40157    0.00172     0.40329
      H   29    0.09007      0.00000     0.40864    0.00129     0.40993
      H   30    0.09990      0.00000     0.39881    0.00129     0.40010
      H   31    0.10849      0.00000     0.38981    0.00170     0.39151
      H   32    0.08789      0.00000     0.41060    0.00151     0.41211
      H   33    0.07999      0.00000     0.41890    0.00111     0.42001
      H   34    0.24169      0.00000     0.25548    0.00283     0.25831
      H   35    0.17987      0.00000     0.31652    0.00361     0.32013
      H   36    0.17998      0.00000     0.31798    0.00205     0.32002
 =======================================================================
   * Total *   -0.00000     19.99339    54.75665    0.24996    75.00000

 Normal termination of Gaussian 16 at Mon Dec 14 15:17:00 2020.
