 Gaussian 16, Revision A.03,

 -----------------------------------------------------------
 # opt freq B3LYP/6-31G(d) empiricaldispersion=gd3bj scf=xqc
 -----------------------------------------------------------

 ------------------------------
 CID_66929023_JID_7749_neutraal
 ------------------------------
 Symbolic Z-matrix:
 Charge =  0 Multiplicity = 1

 SCF Done:  E(RB3LYP) =  -852.723748043     A.U. after   15 cycles
 SCF Done:  E(RB3LYP) =  -852.728141185     A.U. after   12 cycles
 SCF Done:  E(RB3LYP) =  -852.728734422     A.U. after   13 cycles
 SCF Done:  E(RB3LYP) =  -852.725512992     A.U. after   14 cycles
 SCF Done:  E(RB3LYP) =  -852.729457608     A.U. after   13 cycles
 SCF Done:  E(RB3LYP) =  -852.729701453     A.U. after   13 cycles
 SCF Done:  E(RB3LYP) =  -852.729906073     A.U. after   13 cycles
 SCF Done:  E(RB3LYP) =  -852.729989947     A.U. after   12 cycles
 SCF Done:  E(RB3LYP) =  -852.730017898     A.U. after   11 cycles
 SCF Done:  E(RB3LYP) =  -852.730029659     A.U. after   11 cycles
 SCF Done:  E(RB3LYP) =  -852.730210809     A.U. after   10 cycles
 SCF Done:  E(RB3LYP) =  -852.730212183     A.U. after   11 cycles
 SCF Done:  E(RB3LYP) =  -852.730212473     A.U. after   11 cycles
 SCF Done:  E(RB3LYP) =  -852.730212497     A.U. after    8 cycles
 Optimization completed.
    -- Stationary point found.
 Normal termination of Gaussian 16 at Mon Dec 14 16:53:25 2020.

 --------------------------------------------------------------------
 #N Geom=AllCheck Guess=TCheck SCRF=Check GenChk RB3LYP/6-31G(d) Freq
 --------------------------------------------------------------------

 Structure from the checkpoint file:  "JID_7749.chk"
 ------------------------------
 CID_66929023_JID_7749_neutraal
 ------------------------------
 Charge =  0 Multiplicity = 1

 SCF Done:  E(RB3LYP) =  -852.730212497     A.U. after    1 cycles

  Exact polarizability: 183.039  -6.038 129.472  -2.340  -0.629  89.370
 Approx polarizability: 242.377 -13.911 231.323  -2.050   2.260 148.740

                      1                      2                      3
                      A                      A                      A
 Frequencies --     10.9612                24.9932                40.7983
 Red. masses --      6.7215                 5.1073                 4.2682
 Frc consts  --      0.0005                 0.0019                 0.0042
 IR Inten    --      4.3502                 1.4437                 1.2251

                      4                      5                      6
                      A                      A                      A
 Frequencies --     53.3501                74.9786               117.4698
 Red. masses --      6.7833                 5.9713                 5.4735
 Frc consts  --      0.0114                 0.0198                 0.0445
 IR Inten    --      0.2982                 1.9570                 0.3228

                      7                      8                      9
                      A                      A                      A
 Frequencies --    128.2449               162.8042               194.9101
 Red. masses --      5.2289                 7.5121                 4.0373
 Frc consts  --      0.0507                 0.1173                 0.0904
 IR Inten    --      1.7429                 1.0304                 2.1186

                     10                     11                     12
                      A                      A                      A
 Frequencies --    239.6228               262.5238               298.7310
 Red. masses --      5.3887                 1.1143                 1.9918
 Frc consts  --      0.1823                 0.0452                 0.1047
 IR Inten    --      0.5617                 0.1055                45.5306

                     13                     14                     15
                      A                      A                      A
 Frequencies --    299.1690               329.2806               343.3696
 Red. masses --      2.5405                 2.9815                 2.5121
 Frc consts  --      0.1340                 0.1905                 0.1745
 IR Inten    --     29.6316                29.2473                26.1179

                     16                     17                     18
                      A                      A                      A
 Frequencies --    367.7672               422.2113               462.5361
 Red. masses --      2.9165                 5.2837                 8.3570
 Frc consts  --      0.2324                 0.5549                 1.0534
 IR Inten    --     12.0006                17.0419                 1.7007

                     19                     20                     21
                      A                      A                      A
 Frequencies --    517.3103               557.0948               621.5293
 Red. masses --      3.0600                 6.7506                 4.2145
 Frc consts  --      0.4825                 1.2344                 0.9592
 IR Inten    --     10.2369                 0.2887                 1.6932

                     22                     23                     24
                      A                      A                      A
 Frequencies --    627.6525               648.6851               677.6974
 Red. masses --      4.2465                 9.7790                 3.4988
 Frc consts  --      0.9856                 2.4244                 0.9468
 IR Inten    --      3.1127                 3.5566                 6.4878

                     25                     26                     27
                      A                      A                      A
 Frequencies --    716.2962               749.5135               765.6830
 Red. masses --      4.9670                 4.1075                 3.0456
 Frc consts  --      1.5015                 1.3595                 1.0520
 IR Inten    --      4.1633                13.7451                31.4560

                     28                     29                     30
                      A                      A                      A
 Frequencies --    783.7179               791.4790               819.8281
 Red. masses --      3.1847                 1.7742                 1.3839
 Frc consts  --      1.1525                 0.6548                 0.5480
 IR Inten    --     33.6319                11.1885                26.6119

                     31                     32                     33
                      A                      A                      A
 Frequencies --    835.6836               872.6353               873.5691
 Red. masses --     12.5055                 1.4006                 1.3333
 Frc consts  --      5.1456                 0.6284                 0.5995
 IR Inten    --     66.1743                 0.4850                 0.6801

                     34                     35                     36
                      A                      A                      A
 Frequencies --    905.3834               937.4604               984.0638
 Red. masses --      2.6024                 2.1769                 3.1902
 Frc consts  --      1.2568                 1.1272                 1.8202
 IR Inten    --     22.2582                15.3873                 7.1982

                     37                     38                     39
                      A                      A                      A
 Frequencies --    998.7062              1019.5623              1024.3266
 Red. masses --      3.6820                 3.5823                 3.4842
 Frc consts  --      2.1638                 2.1940                 2.1539
 IR Inten    --      5.5657                 3.3980                25.8145

                     40                     41                     42
                      A                      A                      A
 Frequencies --   1037.7727              1050.5426              1081.6028
 Red. masses --      2.7016                 1.3745                 1.3492
 Frc consts  --      1.7143                 0.8938                 0.9299
 IR Inten    --     32.4056                23.1824                20.2498

                     43                     44                     45
                      A                      A                      A
 Frequencies --   1092.2919              1108.2612              1194.5888
 Red. masses --      1.8282                 2.6522                 1.5338
 Frc consts  --      1.2851                 1.9193                 1.2896
 IR Inten    --     26.7672                83.8431                 7.7543

                     46                     47                     48
                      A                      A                      A
 Frequencies --   1202.9802              1229.7502              1250.3194
 Red. masses --      1.9923                 1.7080                 3.6352
 Frc consts  --      1.6987                 1.5218                 3.3482
 IR Inten    --    102.9427                 0.5123                 6.7782

                     49                     50                     51
                      A                      A                      A
 Frequencies --   1274.6435              1302.7829              1343.6765
 Red. masses --      3.2087                 1.4750                 2.7233
 Frc consts  --      3.0716                 1.4750                 2.8969
 IR Inten    --     24.0348                15.9104                30.8344

                     52                     53                     54
                      A                      A                      A
 Frequencies --   1355.6959              1365.7997              1405.3847
 Red. masses --      2.1720                 1.7940                 2.8297
 Frc consts  --      2.3520                 1.9717                 3.2929
 IR Inten    --    134.7699                69.5245                 4.0589

                     55                     56                     57
                      A                      A                      A
 Frequencies --   1417.5717              1427.6694              1431.5166
 Red. masses --      1.9803                 9.6716                 1.2909
 Frc consts  --      2.3446                11.6146                 1.5586
 IR Inten    --      9.0082               243.8647                25.0950

                     58                     59                     60
                      A                      A                      A
 Frequencies --   1435.6546              1454.7019              1493.2355
 Red. masses --      1.3979                 3.2931                 2.9068
 Frc consts  --      1.6976                 4.1059                 3.8187
 IR Inten    --     27.2775                12.4266                10.6837

                     61                     62                     63
                      A                      A                      A
 Frequencies --   1505.8026              1520.5601              1523.2993
 Red. masses --      1.3578                 1.0502                 1.0608
 Frc consts  --      1.8139                 1.4306                 1.4503
 IR Inten    --      9.0209                10.7942                 0.1494

                     64                     65                     66
                      A                      A                      A
 Frequencies --   1558.6036              1609.0464              1648.5031
 Red. masses --      4.9755                 7.7148                14.1224
 Frc consts  --      7.1212                11.7682                22.6120
 IR Inten    --     16.3339                 5.4386               197.0465

                     67                     68                     69
                      A                      A                      A
 Frequencies --   1673.3554              3053.3997              3073.0497
 Red. masses --      6.5334                 1.0362                 1.0689
 Frc consts  --     10.7788                 5.6921                 5.9476
 IR Inten    --      0.5207                11.3167                15.5707

                     70                     71                     72
                      A                      A                      A
 Frequencies --   3095.7564              3123.2717              3143.8659
 Red. masses --      1.0873                 1.1003                 1.1030
 Frc consts  --      6.1396                 6.3239                 6.4230
 IR Inten    --      8.2055                32.8187                26.9395

                     73                     74                     75
                      A                      A                      A
 Frequencies --   3168.0717              3268.4592              3280.5376
 Red. masses --      1.0963                 1.0938                 1.1012
 Frc consts  --      6.4831                 6.8845                 6.9825
 IR Inten    --      0.5994                 3.0906                 0.2626

                     76                     77                     78
                      A                      A                      A
 Frequencies --   3294.8055              3320.1772              3729.9081
 Red. masses --      1.0945                 1.1030                 1.0660
 Frc consts  --      7.0005                 7.1642                 8.7379
 IR Inten    --      1.7391                 2.3471                12.3432

 - Thermochemistry -
 -------------------
 Temperature   298.150 Kelvin.  Pressure   1.00000 Atm.
 Atom     1 has atomic number  6 and mass  12.00000

 Molecular mass:   237.07496 amu.
 Principal axes and moments of inertia in atomic units:
                           1         2         3
     Eigenvalues --  1435.232319372.97476**********
           X            0.99996  -0.00792  -0.00424
           Y            0.00793   0.99997   0.00187
           Z            0.00422  -0.00190   0.99999
 This molecule is an asymmetric top.
 Rotational symmetry number  1.
 Warning -- assumption of classical behavior for rotation
           may cause significant error
 Rotational temperatures (Kelvin)      0.06035     0.00924     0.00853
 Rotational constants (GHZ):           1.25746     0.19255     0.17781
 Zero-point vibrational energy     562893.9 (Joules/Mol)
                                  134.53488 (Kcal/Mol)
 Warning -- explicit consideration of  20 degrees of freedom as
           vibrations may cause significant error
 Vibrational temperatures:     15.77    35.96    58.70    76.76   107.88
          (Kelvin)            169.01   184.52   234.24   280.43   344.76
                              377.71   429.81   430.44   473.76   494.03
                              529.14   607.47   665.49   744.29   801.54
                              894.24   903.05   933.31   975.06  1030.59
                             1078.38  1101.65  1127.60  1138.76  1179.55
                             1202.36  1255.53  1256.87  1302.64  1348.80
                             1415.85  1436.92  1466.92  1473.78  1493.12
                             1511.50  1556.19  1571.56  1594.54  1718.75
                             1730.82  1769.34  1798.93  1833.93  1874.41
                             1933.25  1950.54  1965.08  2022.04  2039.57
                             2054.10  2059.63  2065.59  2092.99  2148.43
                             2166.51  2187.75  2191.69  2242.48  2315.06
                             2371.83  2407.59  4393.16  4421.43  4454.10
                             4493.69  4523.32  4558.15  4702.58  4719.96
                             4740.49  4776.99  5366.51

 Zero-point correction=                           0.214395 (Hartree/Particle)
 Thermal correction to Energy=                    0.229753
 Thermal correction to Enthalpy=                  0.230697
 Thermal correction to Gibbs Free Energy=         0.168076
 Sum of electronic and zero-point Energies=           -852.515818
 Sum of electronic and thermal Energies=              -852.500459
 Sum of electronic and thermal Enthalpies=            -852.499515
 Sum of electronic and thermal Free Energies=         -852.562137

                     E (Thermal)             CV                S
                      KCal/Mol        Cal/Mol-Kelvin    Cal/Mol-Kelvin
 Total                  144.172             56.252            131.799
 Electronic               0.000              0.000              0.000
 Translational            0.889              2.981             42.291
 Rotational               0.889              2.981             33.279
 Vibrational            142.395             50.291             56.229
 Vibration     1          0.593              1.987              7.829
 Vibration     2          0.593              1.985              6.192
 Vibration     3          0.594              1.981              5.220
 Vibration     4          0.596              1.976              4.689
 Vibration     5          0.599              1.966              4.018
 Vibration     6          0.608              1.935              3.142
 Vibration     7          0.611              1.925              2.972
 Vibration     8          0.623              1.888              2.517
 Vibration     9          0.636              1.847              2.181
 Vibration    10          0.657              1.780              1.806
 Vibration    11          0.670              1.741              1.645
 Vibration    12          0.692              1.676              1.424
 Vibration    13          0.692              1.675              1.422
 Vibration    14          0.712              1.617              1.264
 Vibration    15          0.722              1.589              1.196
 Vibration    16          0.740              1.539              1.089
 Vibration    17          0.785              1.422              0.884
 Vibration    18          0.820              1.333              0.759
 Vibration    19          0.872              1.212              0.616
 Vibration    20          0.913              1.124              0.530

                           ! Non-Optimized Parameters !
 Normal termination of Gaussian 16 at Mon Dec 14 17:02:45 2020.

 ----------------------------------------------------------------------
 # B3LYP/6-311++G(d,p) empiricaldispersion=gd3bj scf=xqc pop=npa geom=c
 heck
 ----------------------------------------------------------------------

 --------------------------------------
 CID_66929023_JID_7749_Energie_neutraal
 --------------------------------------
 Structure from the checkpoint file:  "JID_7749.chk"
 Charge =  0 Multiplicity = 1

 SCF Done:  E(RB3LYP) =  -852.979553438     A.U. after   15 cycles
 Normal termination of Gaussian 16 at Mon Dec 14 17:07:13 2020.

 ----------------------------------------------------------------------
 # B3LYP/6-311++G(d,p) empiricaldispersion=gd3bj scf=xqc pop=npa geom=c
 heck
 ----------------------------------------------------------------------

 ------------------------------------
 CID_66929023_JID_7749_Energie_kation
 ------------------------------------
 Structure from the checkpoint file:  "JID_7749.chk"
 Charge =  1 Multiplicity = 2

 SCF Done:  E(UB3LYP) =  -852.653216528     A.U. after   33 cycles
 SCF Done:  E(UB3LYP) =  -852.653216528     a.u. after    1 cycles
 Normal termination of Gaussian 16 at Mon Dec 14 17:20:52 2020.
 Gaussian 16:  ES64L-G16RevA.03 25-Dec-2016

 ----------------------------------------------------------------------
 # B3LYP/6-311++G(d,p) empiricaldispersion=gd3bj scf=xqc pop=npa geom=c
 heck
 ----------------------------------------------------------------------

 -----------------------------------
 CID_66929023_JID_7749_Energie_anion
 -----------------------------------
 Structure from the checkpoint file:  "JID_7749.chk"
 Charge = -1 Multiplicity = 2

                         Standard orientation:
 ---------------------------------------------------------------------
 Center     Atomic      Atomic             Coordinates (Angstroms)
 Number     Number       Type             X           Y           Z
 ---------------------------------------------------------------------
      1          6           0        3.603989   -2.138861   -0.393095
      2          6           0        4.137660   -0.709310   -0.256438
      3          6           0        3.060332    0.316894   -0.416501
      4          6           0        2.876879    1.387420   -1.239205
      5          6           0        1.632880    1.992116   -0.861830
      6          6           0        1.141091    1.256905    0.173635
      7          8           0        2.003395    0.223551    0.457694
      8          6           0       -0.101461    1.324974    0.983707
      9          7           0       -1.130254    0.378503    0.529941
     10          6           0       -0.973631   -0.944771    0.225914
     11          6           0       -2.223872   -1.425672   -0.103109
     12          6           0       -3.054755   -0.297629    0.041978
     13          7           0       -2.398414    0.795312    0.425857
     14          7           0       -4.481229   -0.253472   -0.192496
     15          8           0       -5.001312   -1.315840   -0.545474
     16          8           0       -5.069186    0.810600   -0.028928
     17          8           0        4.844763   -0.537006    0.974638
     18          1           0        2.851327   -2.342122    0.377834
     19          1           0        4.425135   -2.850731   -0.271416
     20          1           0        3.137985   -2.294651   -1.372135
     21          1           0        4.881507   -0.520628   -1.036411
     22          1           0        3.551704    1.712917   -2.018090
     23          1           0        1.164633    2.860490   -1.303811
     24          1           0        0.114473    1.127389    2.039772
     25          1           0       -0.555762    2.312611    0.902401
     26          1           0       -0.002662   -1.414660    0.260971
     27          1           0       -2.510794   -2.419207   -0.406077
     28          1           0        4.195777   -0.636646    1.690082
 ---------------------------------------------------------------------

 SCF Done:  E(UB3LYP) =  -853.004391152     A.U. after   33 cycles
 SCF Done:  E(UB3LYP) =  -853.004391152     a.u. after    1 cycles

 The electronic state is 2-A.
 Alpha  occ. eigenvalues --  -19.10949 -19.05615 -18.94408 -18.94343 -14.32312
 Alpha  occ. eigenvalues --  -14.27003 -14.19515 -10.16659 -10.14633 -10.14570
 Alpha  occ. eigenvalues --  -10.13041 -10.09754 -10.09686 -10.09325 -10.08839
 Alpha  occ. eigenvalues --  -10.08393 -10.04732  -1.03420  -1.02605  -0.95825
 Alpha  occ. eigenvalues --   -0.93604  -0.85406  -0.74859  -0.72780  -0.70830
 Alpha  occ. eigenvalues --   -0.67327  -0.66062  -0.61334  -0.56568  -0.54111
 Alpha  occ. eigenvalues --   -0.53172  -0.48743  -0.47678  -0.44971  -0.43047
 Alpha  occ. eigenvalues --   -0.40954  -0.40216  -0.39336  -0.38336  -0.36789
 Alpha  occ. eigenvalues --   -0.35508  -0.35196  -0.34505  -0.33591  -0.33033
 Alpha  occ. eigenvalues --   -0.32321  -0.31605  -0.31402  -0.30208  -0.29986
 Alpha  occ. eigenvalues --   -0.29049  -0.28205  -0.27267  -0.21708  -0.20936
 Alpha  occ. eigenvalues --   -0.17595  -0.15354  -0.14204  -0.13373  -0.13034
 Alpha  occ. eigenvalues --   -0.12182  -0.10179   0.03502
 Alpha virt. eigenvalues --    0.05143   0.06459   0.06555   0.06924   0.08378
 Alpha virt. eigenvalues --    0.09211   0.09358   0.10288   0.10983   0.11592
 Alpha virt. eigenvalues --    0.12283   0.12396   0.13124   0.13855   0.14251

  Beta  occ. eigenvalues --  -19.10909 -19.05601 -18.93968 -18.93871 -14.31679
  Beta  occ. eigenvalues --  -14.26881 -14.19148 -10.16661 -10.14581 -10.14516
  Beta  occ. eigenvalues --  -10.13050 -10.09761 -10.09673 -10.09312 -10.08888
  Beta  occ. eigenvalues --  -10.08382 -10.04703  -1.03348  -1.01580  -0.95800
  Beta  occ. eigenvalues --   -0.93273  -0.84546  -0.74645  -0.72732  -0.70715
  Beta  occ. eigenvalues --   -0.67141  -0.65912  -0.61044  -0.56317  -0.53593
  Beta  occ. eigenvalues --   -0.53143  -0.48636  -0.47606  -0.44898  -0.42909
  Beta  occ. eigenvalues --   -0.40519  -0.40045  -0.39294  -0.38173  -0.36536
  Beta  occ. eigenvalues --   -0.34926  -0.34401  -0.33992  -0.33110  -0.32076
  Beta  occ. eigenvalues --   -0.31917  -0.31434  -0.31350  -0.29963  -0.29921
  Beta  occ. eigenvalues --   -0.28760  -0.27568  -0.27235  -0.21681  -0.20793
  Beta  occ. eigenvalues --   -0.17129  -0.15011  -0.13260  -0.12397  -0.11748
  Beta  occ. eigenvalues --   -0.10121  -0.09727
  Beta virt. eigenvalues --    0.05150   0.06472   0.06823   0.06979   0.08295
  Beta virt. eigenvalues --    0.09163   0.09324   0.10241   0.10847   0.11176
  Beta virt. eigenvalues --    0.11664   0.12292   0.12406   0.13329   0.13851

 Mulliken charges and spin densities:
               1          2
     1  C   -0.270457  -0.236528
     2  C   -0.580579   0.097272
     3  C    0.323439  -0.082238
     4  C   -0.219167   0.048919
     5  C   -0.142109  -0.025218
     6  C    0.178349   0.385260
     7  O    0.016013   0.008530
     8  C   -0.308285  -0.588779
     9  N    0.227487   0.027909
    10  C   -0.312583  -0.069592
    11  C    0.208275   0.108232
    12  C   -0.429608  -0.058486
    13  N   -0.183151   0.226136
    14  N   -0.337179   0.198599
    15  O   -0.206112   0.177341
    16  O   -0.149413   0.176527
    17  O   -0.198018   0.004734
    18  H    0.094232   0.083349
    19  H    0.044912   0.104471
    20  H    0.134030   0.005305
    21  H    0.142607   0.046937
    22  H    0.072076   0.072754
    23  H    0.161080   0.009500
    24  H   -0.011145   0.217269
    25  H    0.215601  -0.014208
    26  H    0.116184   0.032204
    27  H    0.200009   0.004043
    28  H    0.213513   0.039759
 Sum of Mulliken charges =  -1.00000   1.00000

 Dipole moment (field-independent basis, Debye):
    X=             15.2511    Y=              0.1607    Z=             -0.5303  Tot=             15.2611
 Quadrupole moment (field-independent basis, Debye-Ang):
   XX=           -225.0627   YY=           -111.1484   ZZ=           -105.7671
   XY=             -0.9598   XZ=             -9.7407   YZ=             -2.7008

 Summary of Natural Population Analysis:

                                       Natural Population
                Natural  -----------------------------------------------
    Atom  No    Charge         Core      Valence    Rydberg      Total
 -----------------------------------------------------------------------
      C    1   -0.29457      0.99965     2.28985    0.00506     3.29457
      C    2    0.04034      0.99953     1.94747    0.01267     2.95966
      C    3    0.14547      0.99945     1.84084    0.01424     2.85453
      C    4   -0.14490      0.99950     2.13726    0.00814     3.14490
      C    5   -0.13946      0.99950     2.13220    0.00776     3.13946
      C    6    0.15354      0.99946     1.83253    0.01446     2.84646
      O    7   -0.24615      0.99985     3.23719    0.00911     4.24615
      C    8   -0.10622      0.99956     2.09487    0.01179     3.10622
      N    9   -0.09433      0.99966     2.58101    0.01366     3.59433
      C   10   -0.04001      0.99958     2.02830    0.01213     3.04001
      C   11   -0.14698      0.99952     2.13899    0.00846     3.14698
      C   12    0.11710      0.99949     1.86057    0.02285     2.88290
      N   13   -0.08607      0.99969     2.57382    0.01256     3.58607
      N   14    0.30186      0.99970     2.17271    0.02573     3.19814
      O   15   -0.19831      0.99990     3.19115    0.00725     4.19831
      O   16   -0.18328      0.99990     3.17593    0.00745     4.18328
      O   17   -0.36579      0.99990     3.35965    0.00623     4.36579
      H   18    0.10189      0.00000     0.39686    0.00125     0.39811
      H   19    0.10127      0.00000     0.39765    0.00108     0.39873
      H   20    0.10410      0.00000     0.39490    0.00100     0.39590
      H   21    0.09260      0.00000     0.40582    0.00158     0.40740
      H   22    0.10736      0.00000     0.39188    0.00076     0.39264
      H   23    0.11063      0.00000     0.38870    0.00067     0.38937
      H   24    0.10548      0.00000     0.39284    0.00168     0.39452
      H   25    0.11972      0.00000     0.37913    0.00115     0.38028
      H   26    0.10148      0.00000     0.39710    0.00142     0.39852
      H   27    0.11503      0.00000     0.38410    0.00087     0.38497
      H   28    0.22818      0.00000     0.26891    0.00290     0.27182
 =======================================================================
   * Total *    0.00000     16.99385    44.79224    0.21391    62.00000

 Normal termination of Gaussian 16 at Mon Dec 14 17:34:32 2020.
