 Gaussian 16, Revision A.03,

 -----------------------------------------------------------
 # opt freq B3LYP/6-31G(d) empiricaldispersion=gd3bj scf=xqc
 -----------------------------------------------------------

 ------------------------------
 CID_43392636_JID_7742_neutraal
 ------------------------------
 Symbolic Z-matrix:
 Charge =  0 Multiplicity = 1

 SCF Done:  E(RB3LYP) =  -709.219717820     A.U. after   14 cycles
 SCF Done:  E(RB3LYP) =  -709.224104896     A.U. after   12 cycles
 SCF Done:  E(RB3LYP) =  -709.225368416     A.U. after   12 cycles
 SCF Done:  E(RB3LYP) =  -709.226350622     A.U. after   14 cycles
 SCF Done:  E(RB3LYP) =  -709.226698053     A.U. after   12 cycles
 SCF Done:  E(RB3LYP) =  -709.226922988     A.U. after   12 cycles
 SCF Done:  E(RB3LYP) =  -709.227234367     A.U. after   14 cycles
 SCF Done:  E(RB3LYP) =  -709.227389570     A.U. after   14 cycles
 SCF Done:  E(RB3LYP) =  -709.227594852     A.U. after   12 cycles
 SCF Done:  E(RB3LYP) =  -709.227625351     A.U. after   10 cycles
 SCF Done:  E(RB3LYP) =  -709.227927590     A.U. after    9 cycles
 SCF Done:  E(RB3LYP) =  -709.227927912     A.U. after    9 cycles
 SCF Done:  E(RB3LYP) =  -709.227927923     A.U. after    7 cycles
 SCF Done:  E(RB3LYP) =  -709.227927959     A.U. after    7 cycles
 SCF Done:  E(RB3LYP) =  -709.227927961     A.U. after    6 cycles
 Optimization completed.
    -- Stationary point found.
 Normal termination of Gaussian 16 at Fri Dec 11 13:28:05 2020.

 --------------------------------------------------------------------
 #N Geom=AllCheck Guess=TCheck SCRF=Check GenChk RB3LYP/6-31G(d) Freq
 --------------------------------------------------------------------

 Structure from the checkpoint file:  "JID_7742.chk"
 ------------------------------
 CID_43392636_JID_7742_neutraal
 ------------------------------
 Charge =  0 Multiplicity = 1

 SCF Done:  E(RB3LYP) =  -709.227927961     A.U. after    1 cycles

  Exact polarizability: 172.034 -10.503 161.051 -21.899  -1.619 133.039
 Approx polarizability: 246.395 -10.719 237.417 -46.537  -1.027 230.905

                      1                      2                      3
                      A                      A                      A
 Frequencies --     19.9872                26.0888                27.3354
 Red. masses --      3.7531                 3.5396                 3.4199
 Frc consts  --      0.0009                 0.0014                 0.0015
 IR Inten    --      0.0208                 0.1751                 0.2882

                      4                      5                      6
                      A                      A                      A
 Frequencies --     41.2561                64.7614                86.5403
 Red. masses --      4.0045                 3.5041                 3.4721
 Frc consts  --      0.0040                 0.0087                 0.0153
 IR Inten    --      0.0211                 2.0865                 0.5873

                      7                      8                      9
                      A                      A                      A
 Frequencies --    122.3050               165.6607               182.8200
 Red. masses --      2.2531                 2.4126                 4.1803
 Frc consts  --      0.0199                 0.0390                 0.0823
 IR Inten    --      0.3476                 2.0030                 0.9349

                     10                     11                     12
                      A                      A                      A
 Frequencies --    226.5923               244.8571               261.3963
 Red. masses --      1.8890                 4.2840                 2.4575
 Frc consts  --      0.0571                 0.1513                 0.0989
 IR Inten    --      1.5549                 3.5602                 1.5565

                     13                     14                     15
                      A                      A                      A
 Frequencies --    305.0580               315.9506               347.5626
 Red. masses --      2.1814                 2.1546                 3.1600
 Frc consts  --      0.1196                 0.1267                 0.2249
 IR Inten    --      1.3810                 2.9441                 0.2903

                     16                     17                     18
                      A                      A                      A
 Frequencies --    396.0487               416.1504               419.4128
 Red. masses --      2.1703                 3.0053                 2.9129
 Frc consts  --      0.2006                 0.3066                 0.3019
 IR Inten    --      1.5818                 0.1757                 0.5931

                     19                     20                     21
                      A                      A                      A
 Frequencies --    474.7387               529.2277               590.6969
 Red. masses --      3.2528                 3.0491                 5.1105
 Frc consts  --      0.4319                 0.5032                 1.0506
 IR Inten    --      4.5307                 1.2088                 5.1313

                     22                     23                     24
                      A                      A                      A
 Frequencies --    622.5657               638.5430               676.8013
 Red. masses --      4.1529                 5.5393                 6.3855
 Frc consts  --      0.9484                 1.3307                 1.7233
 IR Inten    --      2.2165                 1.1641                 7.2556

                     25                     26                     27
                      A                      A                      A
 Frequencies --    707.8065               713.9992               745.0317
 Red. masses --      2.4255                 2.0948                 1.5524
 Frc consts  --      0.7160                 0.6292                 0.5077
 IR Inten    --     28.7435                33.4245                37.5045

                     28                     29                     30
                      A                      A                      A
 Frequencies --    766.4480               789.1759               804.5588
 Red. masses --      1.5075                 1.6272                 2.1290
 Frc consts  --      0.5218                 0.5971                 0.8120
 IR Inten    --     25.9181                 6.7382                18.5244

                     31                     32                     33
                      A                      A                      A
 Frequencies --    818.2845               825.6729               864.8024
 Red. masses --      1.9719                 2.9113                 1.2503
 Frc consts  --      0.7779                 1.1694                 0.5509
 IR Inten    --     74.8951                28.0162                 0.6151

                     34                     35                     36
                      A                      A                      A
 Frequencies --    866.4076               880.5963               919.5704
 Red. masses --      1.4355                 2.0749                 1.4495
 Frc consts  --      0.6349                 0.9480                 0.7222
 IR Inten    --      9.9636                16.5084                 3.5215

                     37                     38                     39
                      A                      A                      A
 Frequencies --    921.0874               949.0762               972.9115
 Red. masses --      1.6515                 1.4164                 1.6279
 Frc consts  --      0.8255                 0.7517                 0.9079
 IR Inten    --      3.0832                 8.5154                 3.0091

                     40                     41                     42
                      A                      A                      A
 Frequencies --    977.2280              1001.2907              1020.7366
 Red. masses --      1.6558                 1.3003                 4.8928
 Frc consts  --      0.9316                 0.7681                 3.0035
 IR Inten    --      3.2124                 1.0476                 7.5432

                     43                     44                     45
                      A                      A                      A
 Frequencies --   1026.0510              1029.5570              1049.4123
 Red. masses --      3.0174                 1.5322                 4.2884
 Frc consts  --      1.8716                 0.9569                 2.7825
 IR Inten    --      9.7648                13.7028                 8.8081

                     46                     47                     48
                      A                      A                      A
 Frequencies --   1060.9819              1067.8687              1116.8954
 Red. masses --      2.2425                 2.9267                 1.5923
 Frc consts  --      1.4873                 1.9663                 1.1703
 IR Inten    --      3.4777                 5.2276                 3.1160

                     49                     50                     51
                      A                      A                      A
 Frequencies --   1132.0979              1143.4004              1172.3689
 Red. masses --      3.3274                 1.5941                 1.7367
 Frc consts  --      2.5126                 1.2279                 1.4064
 IR Inten    --     28.7824                 4.0239                 1.8690

                     52                     53                     54
                      A                      A                      A
 Frequencies --   1178.8580              1193.5610              1194.6895
 Red. masses --      2.0845                 1.4149                 1.1047
 Frc consts  --      1.7068                 1.1876                 0.9290
 IR Inten    --     28.4716                13.2975                 0.6707

                     55                     56                     57
                      A                      A                      A
 Frequencies --   1216.8245              1228.3773              1235.8251
 Red. masses --      1.1354                 2.6633                 1.6137
 Frc consts  --      0.9905                 2.3677                 1.4521
 IR Inten    --      0.9668                 1.0626                 1.4351

                     58                     59                     60
                      A                      A                      A
 Frequencies --   1261.8431              1299.9579              1337.6048
 Red. masses --      1.3242                 1.2374                 2.3218
 Frc consts  --      1.2422                 1.2321                 2.4476
 IR Inten    --      3.3820                 1.5579                 4.0155

                     61                     62                     63
                      A                      A                      A
 Frequencies --   1345.6670              1369.9364              1371.2246
 Red. masses --      1.3013                 1.5823                 2.0066
 Frc consts  --      1.3884                 1.7497                 2.2230
 IR Inten    --      5.0003                18.1577                 7.4565

                     64                     65                     66
                      A                      A                      A
 Frequencies --   1379.7070              1391.7927              1400.1817
 Red. masses --      1.8359                 1.4189                 1.5521
 Frc consts  --      2.0591                 1.6194                 1.7928
 IR Inten    --     11.1039                 2.1484                14.4457

                     67                     68                     69
                      A                      A                      A
 Frequencies --   1412.0856              1421.9291              1439.3513
 Red. masses --      3.3700                 1.4360                 3.1826
 Frc consts  --      3.9592                 1.7107                 3.8848
 IR Inten    --      6.5943                 0.4180                24.1989

                     70                     71                     72
                      A                      A                      A
 Frequencies --   1446.6215              1474.6376              1501.9666
 Red. masses --      1.2855                 3.0436                 1.4511
 Frc consts  --      1.5850                 3.8995                 1.9287
 IR Inten    --      6.3881                10.4228                 3.3504

                     73                     74                     75
                      A                      A                      A
 Frequencies --   1502.5915              1508.1477              1511.4398
 Red. masses --      1.1725                 1.5082                 1.0798
 Frc consts  --      1.5598                 2.0211                 1.4533
 IR Inten    --      1.0787                19.8897                 2.3812

                     76                     77                     78
                      A                      A                      A
 Frequencies --   1518.2334              1533.5885              1541.6375
 Red. masses --      1.1620                 1.0765                 1.0731
 Frc consts  --      1.5781                 1.4918                 1.5026
 IR Inten    --     11.4057                 9.7055                10.0581

                     79                     80                     81
                      A                      A                      A
 Frequencies --   1549.0717              1551.1827              1611.4580
 Red. masses --      2.1580                 1.0905                 4.9816
 Frc consts  --      3.0510                 1.5459                 7.6219
 IR Inten    --     10.3426                 2.1545                13.9513

                     82                     83                     84
                      A                      A                      A
 Frequencies --   1649.1174              1668.4436              2954.0316
 Red. masses --      5.5756                 5.4974                 1.0705
 Frc consts  --      8.9340                 9.0164                 5.5041
 IR Inten    --      0.9193                 3.3502                50.7165

                     85                     86                     87
                      A                      A                      A
 Frequencies --   3037.6471              3043.1759              3051.3605
 Red. masses --      1.0769                 1.0364                 1.0665
 Frc consts  --      5.8546                 5.6550                 5.8506
 IR Inten    --     14.4917                13.6650                39.0771

                     88                     89                     90
                      A                      A                      A
 Frequencies --   3053.3336              3073.0753              3080.5939
 Red. masses --      1.0652                 1.0617                 1.1025
 Frc consts  --      5.8510                 5.9076                 6.1645
 IR Inten    --     90.6402                30.8998                 7.7409

                     91                     92                     93
                      A                      A                      A
 Frequencies --   3093.5529              3108.4257              3115.0097
 Red. masses --      1.1060                 1.1023                 1.1020
 Frc consts  --      6.2362                 6.2754                 6.3000
 IR Inten    --     22.0187                52.2417                46.8771

                     94                     95                     96
                      A                      A                      A
 Frequencies --   3125.4743              3175.1096              3186.3062
 Red. masses --      1.1029                 1.0872                 1.0866
 Frc consts  --      6.3479                 6.4575                 6.4998
 IR Inten    --      3.6549                 9.4668                 0.7870

                     97                     98                     99
                      A                      A                      A
 Frequencies --   3196.3718              3206.9130              3213.4130
 Red. masses --      1.0910                 1.0936                 1.0974
 Frc consts  --      6.5672                 6.6265                 6.6763
 IR Inten    --     22.4660                21.6905                13.8134

                    100                    101                    102
                      A                      A                      A
 Frequencies --   3242.8776              3271.9617              3483.7666
 Red. masses --      1.0955                 1.0975                 1.0729
 Frc consts  --      6.7880                 6.9229                 7.6718
 IR Inten    --      8.0006                 0.3506                 1.0733

 - Thermochemistry -
 -------------------
 Temperature   298.150 Kelvin.  Pressure   1.00000 Atm.
 Atom     1 has atomic number  6 and mass  12.00000

 Molecular mass:   229.15790 amu.
 Principal axes and moments of inertia in atomic units:
                           1         2         3
     Eigenvalues --  3119.866985088.505397144.20768
           X            0.99962   0.02695  -0.00500
           Y           -0.02702   0.99953  -0.01427
           Z            0.00461   0.01440   0.99989
 This molecule is an asymmetric top.
 Rotational symmetry number  1.
 Warning -- assumption of classical behavior for rotation
           may cause significant error
 Rotational temperatures (Kelvin)      0.02776     0.01702     0.01212
 Rotational constants (GHZ):           0.57847     0.35467     0.25262
 Zero-point vibrational energy     822466.3 (Joules/Mol)
                                  196.57417 (Kcal/Mol)
 Warning -- explicit consideration of  21 degrees of freedom as
           vibrations may cause significant error
 Vibrational temperatures:     28.76    37.54    39.33    59.36    93.18
          (Kelvin)            124.51   175.97   238.35   263.04   326.02
                              352.29   376.09   438.91   454.58   500.07
                              569.83   598.75   603.44   683.04   761.44
                              849.88   895.73   918.72   973.77  1018.38
                             1027.29  1071.93  1102.75  1135.45  1157.58
                             1177.33  1187.96  1244.26  1246.57  1266.98
                             1323.06  1325.24  1365.51  1399.80  1406.01
                             1440.63  1468.61  1476.26  1481.30  1509.87
                             1526.52  1536.42  1606.96  1628.84  1645.10
                             1686.78  1696.11  1717.27  1718.89  1750.74
                             1767.36  1778.08  1815.51  1870.35  1924.51
                             1936.11  1971.03  1972.89  1985.09  2002.48
                             2014.55  2031.68  2045.84  2070.91  2081.37
                             2121.67  2160.99  2161.89  2169.89  2174.62
                             2184.40  2206.49  2218.07  2228.77  2231.81
                             2318.53  2372.71  2400.52  4250.19  4370.50
                             4378.45  4390.23  4393.07  4421.47  4432.29
                             4450.93  4472.33  4481.80  4496.86  4568.27
                             4584.38  4598.87  4614.03  4623.38  4665.78
                             4707.62  5012.36

 Zero-point correction=                           0.313261 (Hartree/Particle)
 Thermal correction to Energy=                    0.329343
 Thermal correction to Enthalpy=                  0.330287
 Thermal correction to Gibbs Free Energy=         0.266436
 Sum of electronic and zero-point Energies=           -708.914667
 Sum of electronic and thermal Energies=              -708.898585
 Sum of electronic and thermal Enthalpies=            -708.897641
 Sum of electronic and thermal Free Energies=         -708.961492

                     E (Thermal)             CV                S
                      KCal/Mol        Cal/Mol-Kelvin    Cal/Mol-Kelvin
 Total                  206.666             60.755            134.386
 Electronic               0.000              0.000              0.000
 Translational            0.889              2.981             42.190
 Rotational               0.889              2.981             33.094
 Vibrational            204.889             54.793             59.102
 Vibration     1          0.593              1.986              6.635
 Vibration     2          0.593              1.985              6.107
 Vibration     3          0.593              1.984              6.014
 Vibration     4          0.594              1.981              5.198
 Vibration     5          0.597              1.971              4.307
 Vibration     6          0.601              1.959              3.737
 Vibration     7          0.610              1.931              3.064
 Vibration     8          0.624              1.885              2.484
 Vibration     9          0.630              1.863              2.299
 Vibration    10          0.650              1.801              1.906
 Vibration    11          0.660              1.771              1.767
 Vibration    12          0.669              1.743              1.652
 Vibration    13          0.696              1.664              1.389
 Vibration    14          0.703              1.643              1.331
 Vibration    15          0.725              1.580              1.177
 Vibration    16          0.763              1.479              0.977
 Vibration    17          0.779              1.435              0.905
 Vibration    18          0.782              1.428              0.894
 Vibration    19          0.831              1.306              0.724
 Vibration    20          0.884              1.185              0.589
 Vibration    21          0.948              1.052              0.466

                           ! Non-Optimized Parameters !
 Normal termination of Gaussian 16 at Fri Dec 11 13:43:11 2020.

 ----------------------------------------------------------------------
 # B3LYP/6-311++G(d,p) empiricaldispersion=gd3bj scf=xqc pop=npa geom=c
 heck
 ----------------------------------------------------------------------

 --------------------------------------
 CID_43392636_JID_7742_Energie_neutraal
 --------------------------------------
 Structure from the checkpoint file:  "JID_7742.chk"
 Charge =  0 Multiplicity = 1

 SCF Done:  E(RB3LYP) =  -709.417574450     A.U. after   15 cycles
 Normal termination of Gaussian 16 at Fri Dec 11 13:50:49 2020.

 ----------------------------------------------------------------------
 # B3LYP/6-311++G(d,p) empiricaldispersion=gd3bj scf=xqc pop=npa geom=c
 heck
 ----------------------------------------------------------------------

 ------------------------------------
 CID_43392636_JID_7742_Energie_kation
 ------------------------------------
 Structure from the checkpoint file:  "JID_7742.chk"
 Charge =  1 Multiplicity = 2

 SCF Done:  E(UB3LYP) =  -709.124513809     A.U. after   30 cycles
 Normal termination of Gaussian 16 at Fri Dec 11 14:12:41 2020.
 Gaussian 16:  ES64L-G16RevA.03 25-Dec-2016

 ----------------------------------------------------------------------
 # B3LYP/6-311++G(d,p) empiricaldispersion=gd3bj scf=xqc pop=npa geom=c
 heck
 ----------------------------------------------------------------------

 -----------------------------------
 CID_43392636_JID_7742_Energie_anion
 -----------------------------------
 Structure from the checkpoint file:  "JID_7742.chk"
 Charge = -1 Multiplicity = 2

                         Standard orientation:
 ---------------------------------------------------------------------
 Center     Atomic      Atomic             Coordinates (Angstroms)
 Number     Number       Type             X           Y           Z
 ---------------------------------------------------------------------
      1          6           0        1.745202    2.871188   -0.999171
      2          6           0        2.372391    2.752651    0.394930
      3          6           0        2.341803    1.328616    0.953599
      4          7           0        3.270992    0.448937    0.244396
      5          6           0        3.125285   -0.972726    0.603880
      6          6           0        1.816397   -1.582155    0.180101
      7          6           0        0.605186   -1.574784    0.851910
      8          7           0       -0.326394   -2.107373    0.015255
      9          7           0        0.199255   -2.443138   -1.188767
     10          6           0        1.492858   -2.138632   -1.084145
     11          6           0       -1.769821   -2.051968    0.175837
     12          6           0       -2.298287   -0.633961    0.064734
     13          6           0       -3.298641   -0.178718    0.926049
     14          6           0       -3.785347    1.125975    0.820741
     15          6           0       -3.265870    1.988541   -0.143583
     16          6           0       -2.261557    1.539439   -1.005196
     17          6           0       -1.780566    0.235719   -0.903452
     18          1           0        2.302988    2.302532   -1.753012
     19          1           0        1.723656    3.913571   -1.335588
     20          1           0        0.714492    2.495739   -0.993007
     21          1           0        3.410639    3.106488    0.375224
     22          1           0        1.824757    3.404104    1.087773
     23          1           0        2.643494    1.338361    2.010061
     24          1           0        1.297551    0.965939    0.923233
     25          1           0        3.096707    0.531084   -0.756501
     26          1           0        3.956159   -1.518323    0.142027
     27          1           0        3.257003   -1.053458    1.689404
     28          1           0        0.339880   -1.229917    1.841129
     29          1           0        2.158627   -2.337755   -1.915127
     30          1           0       -2.178758   -2.695870   -0.607714
     31          1           0       -2.039612   -2.486154    1.144411
     32          1           0       -3.697392   -0.845554    1.687303
     33          1           0       -4.562053    1.468819    1.498584
     34          1           0       -3.637998    3.005991   -0.222918
     35          1           0       -1.853094    2.206339   -1.759454
     36          1           0       -0.998218   -0.116015   -1.569420
 ---------------------------------------------------------------------

 SCF Done:  E(UB3LYP) =  -709.405346715     A.U. after   33 cycles
 SCF Done:  E(UB3LYP) =  -709.405346715     a.u. after    1 cycles

 The electronic state is 2-A.
 Alpha  occ. eigenvalues --  -14.29757 -14.24002 -14.21009 -10.12743 -10.11412
 Alpha  occ. eigenvalues --  -10.11206 -10.10028 -10.09740 -10.09355 -10.08301
 Alpha  occ. eigenvalues --  -10.08144 -10.08110 -10.08103 -10.08050 -10.08044
 Alpha  occ. eigenvalues --  -10.07733 -10.07037  -0.96072  -0.82014  -0.77673
 Alpha  occ. eigenvalues --   -0.74879  -0.70673  -0.68454  -0.66773  -0.65487
 Alpha  occ. eigenvalues --   -0.61740  -0.59022  -0.56148  -0.51757  -0.50763
 Alpha  occ. eigenvalues --   -0.50043  -0.49367  -0.47440  -0.43754  -0.42365
 Alpha  occ. eigenvalues --   -0.39844  -0.38573  -0.37729  -0.36934  -0.36204
 Alpha  occ. eigenvalues --   -0.35243  -0.34669  -0.33588  -0.32908  -0.32433
 Alpha  occ. eigenvalues --   -0.32099  -0.31167  -0.30561  -0.30192  -0.28254
 Alpha  occ. eigenvalues --   -0.27130  -0.25930  -0.25416  -0.25142  -0.24865
 Alpha  occ. eigenvalues --   -0.24605  -0.20714  -0.17331  -0.16398  -0.16135
 Alpha  occ. eigenvalues --   -0.15462  -0.13968   0.04130
 Alpha virt. eigenvalues --    0.06070   0.06470   0.07057   0.07309   0.07565
 Alpha virt. eigenvalues --    0.07653   0.08304   0.08667   0.09212   0.09381
 Alpha virt. eigenvalues --    0.09750   0.10390   0.10463   0.11171   0.11625

  Beta  occ. eigenvalues --  -14.29744 -14.23984 -14.21002 -10.12722 -10.11405
  Beta  occ. eigenvalues --  -10.11179 -10.10026 -10.09734 -10.09356 -10.08290
  Beta  occ. eigenvalues --  -10.08122 -10.08100 -10.08094 -10.08029 -10.08026
  Beta  occ. eigenvalues --  -10.07723 -10.07015  -0.96044  -0.81999  -0.77641
  Beta  occ. eigenvalues --   -0.74844  -0.70643  -0.68426  -0.66744  -0.65438
  Beta  occ. eigenvalues --   -0.61707  -0.58989  -0.56116  -0.51701  -0.50730
  Beta  occ. eigenvalues --   -0.50015  -0.49333  -0.47390  -0.43709  -0.42303
  Beta  occ. eigenvalues --   -0.39823  -0.38536  -0.37690  -0.36909  -0.36160
  Beta  occ. eigenvalues --   -0.35199  -0.34641  -0.33561  -0.32867  -0.32411
  Beta  occ. eigenvalues --   -0.32066  -0.31143  -0.30532  -0.30145  -0.28233
  Beta  occ. eigenvalues --   -0.27090  -0.25890  -0.25387  -0.25105  -0.24843
  Beta  occ. eigenvalues --   -0.24582  -0.20685  -0.17274  -0.16345  -0.16079
  Beta  occ. eigenvalues --   -0.15406  -0.13950
  Beta virt. eigenvalues --    0.06126   0.06984   0.07126   0.07199   0.07486
  Beta virt. eigenvalues --    0.07664   0.08204   0.08816   0.08832   0.09454
  Beta virt. eigenvalues --    0.09638   0.09957   0.10801   0.10904   0.11195

 Mulliken charges and spin densities:
               1          2
     1  C   -0.035971  -0.438440
     2  C   -0.485198   0.069447
     3  C   -0.242411   0.021137
     4  N    0.069120   0.015570
     5  C   -0.286764  -0.628610
     6  C    0.672666   0.084995
     7  C   -0.524183  -0.006646
     8  N    0.434239   0.033728
     9  N   -0.316701   0.072831
    10  C   -0.056467  -0.206043
    11  C    1.508370  -2.359000
    12  C   -0.593935   1.518728
    13  C   -0.056424  -0.279316
    14  C    0.978032  -1.314025
    15  C    0.924171  -1.284522
    16  C   -0.329576   0.192030
    17  C   -0.905368   0.755621
    18  H   -0.089771   0.207034
    19  H   -0.262541   0.411661
    20  H    0.401008  -0.311354
    21  H    0.089390   0.068877
    22  H   -0.146760   0.289109
    23  H    0.007533   0.153423
    24  H    0.578227  -0.525837
    25  H    0.156419   0.020845
    26  H    0.119232   0.046522
    27  H   -0.018108   0.185043
    28  H   -0.467745   0.652105
    29  H    0.026690   0.112915
    30  H    0.123784   0.068074
    31  H   -0.449348   0.665010
    32  H   -0.729038   0.906738
    33  H   -0.671283   0.857454
    34  H   -0.397568   0.559393
    35  H   -0.200130   0.382677
    36  H    0.176410   0.002825
 Sum of Mulliken charges =  -1.00000   1.00000

 Dipole moment (field-independent basis, Debye):
    X=              5.7985    Y=             -2.1086    Z=             -3.3695  Tot=              7.0301
 Quadrupole moment (field-independent basis, Debye-Ang):
   XX=           -179.9890   YY=           -162.4196   ZZ=           -144.7185
   XY=              0.7688   XZ=             11.2721   YZ=              5.4135

 Summary of Natural Population Analysis:

                                       Natural Population
                Natural  -----------------------------------------------
    Atom  No    Charge         Core      Valence    Rydberg      Total
 -----------------------------------------------------------------------
      C    1   -0.28976      0.99967     2.28453    0.00556     3.28976
      C    2   -0.19244      0.99964     2.18540    0.00741     3.19244
      C    3   -0.08932      0.99962     2.08024    0.00946     3.08932
      N    4   -0.33507      0.99976     2.82387    0.01144     3.83507
      C    5   -0.09474      0.99959     2.08420    0.01095     3.09474
      C    6   -0.08552      0.99952     2.07616    0.00984     3.08552
      C    7    0.00059      0.99949     1.98861    0.01131     2.99941
      N    8   -0.10572      0.99966     2.59201    0.01405     3.60572
      N    9   -0.15157      0.99974     2.64124    0.01060     3.65157
      C   10   -0.01644      0.99957     2.00294    0.01393     3.01644
      C   11   -0.08804      0.99957     2.07606    0.01241     3.08804
      C   12   -0.02814      0.99949     2.01803    0.01061     3.02814
      C   13   -0.09816      0.99951     2.08772    0.01093     3.09816
      C   14   -0.09377      0.99956     2.08374    0.01047     3.09377
      C   15   -0.10165      0.99956     2.09173    0.01037     3.10165
      C   16   -0.09881      0.99956     2.08882    0.01043     3.09881
      C   17   -0.09959      0.99951     2.09110    0.00898     3.09959
      H   18    0.09118      0.00000     0.40773    0.00109     0.40882
      H   19    0.10020      0.00000     0.39882    0.00098     0.39980
      H   20    0.10104      0.00000     0.39747    0.00150     0.39896
      H   21    0.09477      0.00000     0.40371    0.00151     0.40523
      H   22    0.09833      0.00000     0.40056    0.00112     0.40167
      H   23    0.08937      0.00000     0.40916    0.00147     0.41063
      H   24    0.08472      0.00000     0.41278    0.00251     0.41528
      H   25    0.16886      0.00000     0.32775    0.00339     0.33114
      H   26    0.09658      0.00000     0.40246    0.00095     0.40342
      H   27    0.09725      0.00000     0.40163    0.00112     0.40275
      H   28    0.11059      0.00000     0.38787    0.00153     0.38941
      H   29    0.09609      0.00000     0.40292    0.00099     0.40391
      H   30    0.11268      0.00000     0.38572    0.00160     0.38732
      H   31    0.10717      0.00000     0.39087    0.00196     0.39283
      H   32    0.10460      0.00000     0.39233    0.00307     0.39540
      H   33    0.10384      0.00000     0.39411    0.00205     0.39616
      H   34    0.10274      0.00000     0.39585    0.00141     0.39726
      H   35    0.10127      0.00000     0.39769    0.00105     0.39873
      H   36    0.10689      0.00000     0.39105    0.00207     0.39311
 =======================================================================
   * Total *   -0.00000     16.99300    44.79688    0.21012    62.00000

 Normal termination of Gaussian 16 at Fri Dec 11 14:36:27 2020.
