 Gaussian 16, Revision A.03,

 -----------------------------------------------------------
 # opt freq B3LYP/6-31G(d) empiricaldispersion=gd3bj scf=xqc
 -----------------------------------------------------------

 ----------------------------
 CID_289190_JID_4121_neutraal
 ----------------------------
 Symbolic Z-matrix:
 Charge =  0 Multiplicity = 1

 SCF Done:  E(RB3LYP) =  -776.804586165     A.U. after   14 cycles
 SCF Done:  E(RB3LYP) =  -776.812459285     A.U. after   12 cycles
 SCF Done:  E(RB3LYP) =  -776.814233633     A.U. after   11 cycles
 SCF Done:  E(RB3LYP) =  -776.815275936     A.U. after   12 cycles
 SCF Done:  E(RB3LYP) =  -776.815572975     A.U. after   12 cycles
 SCF Done:  E(RB3LYP) =  -776.816023700     A.U. after   10 cycles
 SCF Done:  E(RB3LYP) =  -776.816367127     A.U. after   11 cycles
 SCF Done:  E(RB3LYP) =  -776.816525489     A.U. after   11 cycles
 SCF Done:  E(RB3LYP) =  -776.816608905     A.U. after   11 cycles
 SCF Done:  E(RB3LYP) =  -776.816682341     A.U. after   10 cycles
 SCF Done:  E(RB3LYP) =  -776.817383135     A.U. after   11 cycles
 SCF Done:  E(RB3LYP) =  -776.817450915     A.U. after   10 cycles
 SCF Done:  E(RB3LYP) =  -776.817502027     A.U. after   10 cycles
 SCF Done:  E(RB3LYP) =  -776.817504225     A.U. after    8 cycles
 SCF Done:  E(RB3LYP) =  -776.817505165     A.U. after    8 cycles
 SCF Done:  E(RB3LYP) =  -776.817505242     A.U. after    7 cycles
 Optimization completed.
    -- Stationary point found.
 Normal termination of Gaussian 16 at Sat Feb 27 18:25:10 2021.

 --------------------------------------------------------------------
 #N Geom=AllCheck Guess=TCheck SCRF=Check GenChk RB3LYP/6-31G(d) Freq
 --------------------------------------------------------------------

 Structure from the checkpoint file:  "JID_4121.chk"
 ----------------------------
 CID_289190_JID_4121_neutraal
 ----------------------------
 Charge =  0 Multiplicity = 1

 SCF Done:  E(RB3LYP) =  -776.817505242     A.U. after    1 cycles

  Exact polarizability: 113.684   5.989  91.536   0.833   2.621  86.445
 Approx polarizability: 135.599   7.294 127.164  -0.303   2.287 145.360

                      1                      2                      3
                      A                      A                      A
 Frequencies --     37.9954                48.4338                56.2286
 Red. masses --      5.4066                 6.1567                 5.6697
 Frc consts  --      0.0046                 0.0085                 0.0106
 IR Inten    --      2.2349                 1.3910                 7.9422

                      4                      5                      6
                      A                      A                      A
 Frequencies --    104.0232               117.4244               168.5410
 Red. masses --      5.0851                 7.2912                 6.4648
 Frc consts  --      0.0324                 0.0592                 0.1082
 IR Inten    --      3.9128                 4.3565                 1.3753

                      7                      8                      9
                      A                      A                      A
 Frequencies --    213.8552               250.2909               258.6401
 Red. masses --      3.5821                 4.2853                 2.6238
 Frc consts  --      0.0965                 0.1582                 0.1034
 IR Inten    --      3.7693                10.0060                13.1306

                     10                     11                     12
                      A                      A                      A
 Frequencies --    280.4375               314.8014               331.1330
 Red. masses --      3.9832                 2.7805                 2.0258
 Frc consts  --      0.1846                 0.1623                 0.1309
 IR Inten    --      1.3336                 4.6256                21.6888

                     13                     14                     15
                      A                      A                      A
 Frequencies --    345.2442               364.3887               395.6029
 Red. masses --      1.2808                 1.9587                 1.5865
 Frc consts  --      0.0899                 0.1532                 0.1463
 IR Inten    --     51.7103                59.9616                54.9977

                     16                     17                     18
                      A                      A                      A
 Frequencies --    415.9156               422.0625               457.2903
 Red. masses --      2.6933                 3.4142                 1.2298
 Frc consts  --      0.2745                 0.3583                 0.1515
 IR Inten    --     26.5171                34.8035               119.4794

                     19                     20                     21
                      A                      A                      A
 Frequencies --    481.9035               494.9953               504.8926
 Red. masses --      2.6384                 2.0972                 2.2005
 Frc consts  --      0.3610                 0.3028                 0.3305
 IR Inten    --     26.9676                48.6099                20.8064

                     22                     23                     24
                      A                      A                      A
 Frequencies --    539.2469               569.4109               590.9301
 Red. masses --      4.0094                 1.7217                 2.2391
 Frc consts  --      0.6869                 0.3289                 0.4607
 IR Inten    --     44.7500               170.8963               120.1441

                     25                     26                     27
                      A                      A                      A
 Frequencies --    618.5990               641.1253               690.0770
 Red. masses --      2.8729                 2.6328                 4.6756
 Frc consts  --      0.6477                 0.6376                 1.3119
 IR Inten    --      1.7463                72.8992                15.5540

                     28                     29                     30
                      A                      A                      A
 Frequencies --    759.4287               828.0933               908.1494
 Red. masses --      3.4520                 2.4942                 2.0154
 Frc consts  --      1.1730                 1.0077                 0.9793
 IR Inten    --     53.4301                98.2701                19.8775

                     31                     32                     33
                      A                      A                      A
 Frequencies --    961.1529               989.2563              1021.2925
 Red. masses --      3.1899                 3.9938                 3.2872
 Frc consts  --      1.7363                 2.3028                 2.0201
 IR Inten    --     12.5714                79.4472                62.0195

                     34                     35                     36
                      A                      A                      A
 Frequencies --   1063.6527              1077.1750              1096.9181
 Red. masses --      2.6171                 2.5780                 3.5252
 Frc consts  --      1.7445                 1.7624                 2.4991
 IR Inten    --     12.8709                22.1037                57.3360

                     37                     38                     39
                      A                      A                      A
 Frequencies --   1107.2651              1115.6831              1127.2253
 Red. masses --      2.3861                 3.9049                 3.4730
 Frc consts  --      1.7236                 2.8638                 2.6000
 IR Inten    --    113.9935               108.7399                69.4043

                     40                     41                     42
                      A                      A                      A
 Frequencies --   1154.4346              1166.5073              1195.8965
 Red. masses --      3.3811                 3.4321                 2.3404
 Frc consts  --      2.6549                 2.7516                 1.9721
 IR Inten    --     78.1645                23.9381                15.0660

                     43                     44                     45
                      A                      A                      A
 Frequencies --   1227.5947              1241.7450              1252.9123
 Red. masses --      1.5368                 2.1969                 1.4447
 Frc consts  --      1.3645                 1.9958                 1.3362
 IR Inten    --     22.8548                10.1589                11.9491

                     46                     47                     48
                      A                      A                      A
 Frequencies --   1270.0566              1293.3025              1330.6196
 Red. masses --      1.3551                 1.2104                 1.9745
 Frc consts  --      1.2878                 1.1929                 2.0597
 IR Inten    --      7.7618                57.3336               158.8879

                     49                     50                     51
                      A                      A                      A
 Frequencies --   1342.4216              1357.2313              1368.5747
 Red. masses --      1.2684                 1.2686                 1.1870
 Frc consts  --      1.3467                 1.3768                 1.3099
 IR Inten    --     61.6635                29.2353                35.5486

                     52                     53                     54
                      A                      A                      A
 Frequencies --   1389.8970              1416.0999              1422.2276
 Red. masses --      1.3692                 1.3247                 1.3791
 Frc consts  --      1.5584                 1.5652                 1.6435
 IR Inten    --     25.3557                27.2741                 9.9582

                     55                     56                     57
                      A                      A                      A
 Frequencies --   1448.8820              1456.3596              1464.6469
 Red. masses --      1.3055                 1.7502                 1.5557
 Frc consts  --      1.6147                 2.1871                 1.9663
 IR Inten    --     32.5591                 3.8401                 6.6599

                     58                     59                     60
                      A                      A                      A
 Frequencies --   1518.1254              1525.7195              1577.3802
 Red. masses --      1.2174                 1.1523                 1.5160
 Frc consts  --      1.6531                 1.5804                 2.2224
 IR Inten    --     11.8196                 7.3618               145.3008

                     61                     62                     63
                      A                      A                      A
 Frequencies --   1661.5761              1853.1774              2857.4262
 Red. masses --      1.1566                 8.4537                 1.0791
 Frc consts  --      1.8814                17.1053                 5.1910
 IR Inten    --     81.0654               293.5927                66.4684

                     64                     65                     66
                      A                      A                      A
 Frequencies --   2937.5638              2951.3018              3041.2456
 Red. masses --      1.0794                 1.0744                 1.0844
 Frc consts  --      5.4877                 5.5135                 5.9092
 IR Inten    --     13.0440               109.0496                28.8230

                     67                     68                     69
                      A                      A                      A
 Frequencies --   3105.9471              3137.6920              3466.6189
 Red. masses --      1.0861                 1.0917                 1.0752
 Frc consts  --      6.1730                 6.3328                 7.6129
 IR Inten    --     17.5158                22.3689                17.9768

                     70                     71                     72
                      A                      A                      A
 Frequencies --   3538.2754              3555.0838              3667.9473
 Red. masses --      1.0754                 1.0488                 1.0978
 Frc consts  --      7.9327                 7.8099                 8.7021
 IR Inten    --     13.8853                14.4300                23.8655

                     73                     74                     75
                      A                      A                      A
 Frequencies --   3705.8911              3714.9778              3734.5217
 Red. masses --      1.0657                 1.0656                 1.0659
 Frc consts  --      8.6234                 8.6648                 8.7587
 IR Inten    --     14.4213                35.8226                43.1928

 - Thermochemistry -
 -------------------
 Temperature   298.150 Kelvin.  Pressure   1.00000 Atm.
 Atom     1 has atomic number  8 and mass  15.99491

 Molecular mass:   207.08552 amu.
 Principal axes and moments of inertia in atomic units:
                           1         2         3
     Eigenvalues --  1364.004234946.114885841.47495
           X            0.99997   0.00365   0.00655
           Y           -0.00375   0.99986   0.01612
           Z           -0.00649  -0.01614   0.99985
 This molecule is an asymmetric top.
 Rotational symmetry number  1.
 Warning -- assumption of classical behavior for rotation
           may cause significant error
 Rotational temperatures (Kelvin)      0.06350     0.01751     0.01483
 Rotational constants (GHZ):           1.32312     0.36488     0.30895
 Zero-point vibrational energy     580898.6 (Joules/Mol)
                                  138.83810 (Kcal/Mol)
 Warning -- explicit consideration of  25 degrees of freedom as
           vibrations may cause significant error
 Vibrational temperatures:     54.67    69.69    80.90   149.67   168.95
          (Kelvin)            242.49   307.69   360.11   372.13   403.49
                              452.93   476.43   496.73   524.27   569.18
                              598.41   607.25   657.94   693.35   712.19
                              726.43   775.86   819.26   850.22   890.03
                              922.44   992.87  1092.65  1191.44  1306.62
                             1382.88  1423.32  1469.41  1530.36  1549.81
                             1578.22  1593.11  1605.22  1621.83  1660.97
                             1678.34  1720.63  1766.23  1786.59  1802.66
                             1827.33  1860.77  1914.46  1931.45  1952.75
                             1969.07  1999.75  2037.45  2046.27  2084.62
                             2095.38  2107.30  2184.24  2195.17  2269.50
                             2390.64  2666.31  4111.20  4226.50  4246.27
                             4375.67  4468.77  4514.44  4987.69  5090.79
                             5114.97  5277.36  5331.95  5345.02  5373.14

 Zero-point correction=                           0.221253 (Hartree/Particle)
 Thermal correction to Energy=                    0.235568
 Thermal correction to Enthalpy=                  0.236512
 Thermal correction to Gibbs Free Energy=         0.179716
 Sum of electronic and zero-point Energies=           -776.596253
 Sum of electronic and thermal Energies=              -776.581937
 Sum of electronic and thermal Enthalpies=            -776.580993
 Sum of electronic and thermal Free Energies=         -776.637789

                     E (Thermal)             CV                S
                      KCal/Mol        Cal/Mol-Kelvin    Cal/Mol-Kelvin
 Total                  147.821             54.190            119.538
 Electronic               0.000              0.000              0.000
 Translational            0.889              2.981             41.888
 Rotational               0.889              2.981             32.044
 Vibrational            146.044             48.229             45.606
 Vibration     1          0.594              1.982              5.361
 Vibration     2          0.595              1.978              4.880
 Vibration     3          0.596              1.975              4.585
 Vibration     4          0.605              1.946              3.377
 Vibration     5          0.608              1.935              3.142
 Vibration     6          0.625              1.881              2.452
 Vibration     7          0.644              1.820              2.011
 Vibration     8          0.663              1.762              1.729
 Vibration     9          0.667              1.748              1.671
 Vibration    10          0.680              1.710              1.531
 Vibration    11          0.702              1.645              1.337
 Vibration    12          0.713              1.613              1.255
 Vibration    13          0.724              1.585              1.188
 Vibration    14          0.738              1.546              1.103
 Vibration    15          0.762              1.480              0.979
 Vibration    16          0.779              1.436              0.906
 Vibration    17          0.784              1.422              0.885
 Vibration    18          0.815              1.345              0.774
 Vibration    19          0.838              1.290              0.705
 Vibration    20          0.851              1.261              0.671
 Vibration    21          0.860              1.239              0.646
 Vibration    22          0.894              1.163              0.567
 Vibration    23          0.925              1.097              0.505
 Vibration    24          0.948              1.051              0.466
 Vibration    25          0.978              0.993              0.419

 Optimization completed.
    -- Stationary point found.
 Normal termination of Gaussian 16 at Sat Feb 27 18:31:50 2021.

 ----------------------------------------------------------------------
 # B3LYP/6-311++G(d,p) empiricaldispersion=gd3bj scf=xqc pop=npa geom=c
 heck
 ----------------------------------------------------------------------

 ------------------------------------
 CID_289190_JID_4121_Energie_neutraal
 ------------------------------------
 Structure from the checkpoint file:  "JID_4121.chk"
 Charge =  0 Multiplicity = 1

 SCF Done:  E(RB3LYP) =  -777.092882335     A.U. after   14 cycles
 Normal termination of Gaussian 16 at Sat Feb 27 18:34:11 2021.

 ----------------------------------------------------------------------
 # B3LYP/6-311++G(d,p) empiricaldispersion=gd3bj scf=xqc pop=npa geom=c
 heck
 ----------------------------------------------------------------------

 ----------------------------------
 CID_289190_JID_4121_Energie_kation
 ----------------------------------
 Structure from the checkpoint file:  "JID_4121.chk"
 Charge =  1 Multiplicity = 2

 SCF Done:  E(UB3LYP) =  -776.761455618     A.U. after   31 cycles
 Normal termination of Gaussian 16 at Sat Feb 27 18:41:04 2021.
 Gaussian 16:  ES64L-G16RevA.03 25-Dec-2016

 ----------------------------------------------------------------------
 # B3LYP/6-311++G(d,p) empiricaldispersion=gd3bj scf=xqc pop=npa geom=c
 heck
 ----------------------------------------------------------------------

 ---------------------------------
 CID_289190_JID_4121_Energie_anion
 ---------------------------------
 Structure from the checkpoint file:  "JID_4121.chk"
 Charge = -1 Multiplicity = 2

                         Standard orientation:
 ---------------------------------------------------------------------
 Center     Atomic      Atomic             Coordinates (Angstroms)
 Number     Number       Type             X           Y           Z
 ---------------------------------------------------------------------
      1          8           0       -0.214978   -0.925872    0.200340
      2          8           0        3.460856    0.956089    0.385559
      3          8           0        1.122276    2.414520   -0.365856
      4          8           0        3.344250   -1.894848   -0.082203
      5          8           0       -3.443974   -0.193640    1.403192
      6          7           0       -1.322503    1.100777    0.128041
      7          7           0       -2.497756    0.702990   -0.504904
      8          7           0       -4.239546   -0.818249   -0.660432
      9          6           0        2.329314    0.309325   -0.172621
     10          6           0        1.094399    1.114310    0.205939
     11          6           0        2.199156   -1.134963    0.303239
     12          6           0       -0.152663    0.397407   -0.314111
     13          6           0        0.881569   -1.725114   -0.210018
     14          6           0       -3.368286   -0.136962    0.193209
     15          1           0        2.401029    0.303779   -1.277389
     16          1           0        1.020940    1.164637    1.301583
     17          1           0        2.197260   -1.150274    1.397158
     18          1           0       -0.090661    0.334763   -1.424366
     19          1           0        0.918726   -1.805369   -1.313380
     20          1           0        0.716470   -2.723283    0.200786
     21          1           0       -1.186701    2.103228    0.033849
     22          1           0        1.964899    2.814464   -0.094599
     23          1           0        4.194316    0.320771    0.323390
     24          1           0        3.337152   -1.964071   -1.051983
     25          1           0       -2.450761    0.588251   -1.516255
     26          1           0       -4.794957   -1.496447   -0.155103
     27          1           0       -3.857445   -1.183071   -1.524690
 ---------------------------------------------------------------------

 SCF Done:  E(UB3LYP) =  -777.090939836     A.U. after   28 cycles

 The electronic state is 2-A.
 Alpha  occ. eigenvalues --  -19.04823 -19.04400 -19.04058 -19.03867 -18.98108
 Alpha  occ. eigenvalues --  -14.25491 -14.24470 -14.22361 -10.19287 -10.16143
 Alpha  occ. eigenvalues --  -10.13936 -10.13521 -10.13462 -10.12623  -0.97388
 Alpha  occ. eigenvalues --   -0.95801  -0.94840  -0.94659  -0.92986  -0.88586
 Alpha  occ. eigenvalues --   -0.80419  -0.72830  -0.69358  -0.64553  -0.56081
 Alpha  occ. eigenvalues --   -0.55173  -0.50735  -0.49711  -0.46114  -0.45847
 Alpha  occ. eigenvalues --   -0.44393  -0.43590  -0.41567  -0.39513  -0.38928
 Alpha  occ. eigenvalues --   -0.38633  -0.38341  -0.34122  -0.33965  -0.32458
 Alpha  occ. eigenvalues --   -0.32338  -0.31490  -0.30675  -0.28754  -0.27042
 Alpha  occ. eigenvalues --   -0.26046  -0.23900  -0.22180  -0.20028  -0.19447
 Alpha  occ. eigenvalues --   -0.18559  -0.17457  -0.16897  -0.16199  -0.15813
 Alpha  occ. eigenvalues --    0.03864
 Alpha virt. eigenvalues --    0.05886   0.07436   0.08191   0.09443   0.09597
 Alpha virt. eigenvalues --    0.10452   0.10910   0.11541   0.12147   0.12789
 Alpha virt. eigenvalues --    0.13698   0.13759   0.14689   0.15013   0.16230

  Beta  occ. eigenvalues --  -19.04818 -19.04387 -19.03995 -19.03857 -18.98103
  Beta  occ. eigenvalues --  -14.25458 -14.24468 -14.22307 -10.19285 -10.16127
  Beta  occ. eigenvalues --  -10.13935 -10.13519 -10.13441 -10.12590  -0.97361
  Beta  occ. eigenvalues --   -0.95770  -0.94813  -0.94609  -0.92907  -0.88561
  Beta  occ. eigenvalues --   -0.80346  -0.72783  -0.69314  -0.64508  -0.56033
  Beta  occ. eigenvalues --   -0.55114  -0.50667  -0.49638  -0.46073  -0.45790
  Beta  occ. eigenvalues --   -0.44340  -0.43507  -0.41526  -0.39451  -0.38886
  Beta  occ. eigenvalues --   -0.38591  -0.38287  -0.34100  -0.33925  -0.32440
  Beta  occ. eigenvalues --   -0.32290  -0.31448  -0.30646  -0.28728  -0.26993
  Beta  occ. eigenvalues --   -0.26000  -0.23856  -0.22137  -0.19999  -0.19411
  Beta  occ. eigenvalues --   -0.18520  -0.17428  -0.16872  -0.16166  -0.15780
  Beta virt. eigenvalues --    0.06799   0.07137   0.08081   0.08694   0.09560
  Beta virt. eigenvalues --    0.10172   0.10829   0.11553   0.11901   0.12417
  Beta virt. eigenvalues --    0.13506   0.13824   0.13995   0.14847   0.15323

 Mulliken charges and spin densities:
               1          2
     1  O   -0.133258   0.043005
     2  O   -0.256090   0.026023
     3  O   -0.222740   0.014283
     4  O   -0.211445  -0.003247
     5  O   -0.384918  -0.004252
     6  N    0.062548  -0.015522
     7  N   -0.224146  -0.020838
     8  N   -0.286760  -0.035416
     9  C   -0.048867  -0.353718
    10  C    0.182218  -0.294432
    11  C   -0.584111   0.175028
    12  C   -0.278723  -0.291525
    13  C    1.025756  -1.174235
    14  C    0.533786  -0.398380
    15  H   -0.353349   0.614380
    16  H    0.260544  -0.020074
    17  H    0.260925  -0.033845
    18  H   -0.076435   0.319994
    19  H   -0.460752   0.638006
    20  H    0.057775   0.133608
    21  H    0.293245   0.000195
    22  H    0.222623   0.031491
    23  H    0.070331   0.191022
    24  H   -0.226748   0.505556
    25  H   -0.140530   0.362013
    26  H    0.156338   0.117859
    27  H   -0.237218   0.473021
 Sum of Mulliken charges =  -1.00000   1.00000

 Dipole moment (field-independent basis, Debye):
    X=              1.1750    Y=              3.5699    Z=              4.1900  Tot=              5.6286
 Quadrupole moment (field-independent basis, Debye-Ang):
   XX=           -152.1476   YY=           -109.5761   ZZ=           -124.5507
   XY=              8.1160   XZ=              9.7290   YZ=             -7.4790

 Summary of Natural Population Analysis:

                                       Natural Population
                Natural  -----------------------------------------------
    Atom  No    Charge         Core      Valence    Rydberg      Total
 -----------------------------------------------------------------------
      O    1   -0.29267      0.99988     3.28326    0.00953     4.29267
      O    2   -0.38074      0.99989     3.37448    0.00637     4.38074
      O    3   -0.37406      0.99989     3.36833    0.00584     4.37406
      O    4   -0.37393      0.99990     3.36673    0.00730     4.37393
      O    5   -0.32132      0.99987     3.31615    0.00530     4.32132
      N    6   -0.23177      0.99967     2.71922    0.01287     3.73177
      N    7   -0.24642      0.99968     2.73374    0.01300     3.74642
      N    8   -0.42114      0.99972     2.91257    0.00885     3.92114
      C    9    0.04007      0.99949     1.94388    0.01657     2.95993
      C   10    0.04439      0.99948     1.94135    0.01478     2.95561
      C   11    0.04078      0.99952     1.94547    0.01423     2.95922
      C   12    0.14590      0.99954     1.83588    0.01868     2.85410
      C   13   -0.02266      0.99955     2.00850    0.01461     3.02266
      C   14    0.40142      0.99975     1.57483    0.02400     2.59858
      H   15    0.08725      0.00000     0.40993    0.00283     0.41275
      H   16    0.08980      0.00000     0.40851    0.00169     0.41020
      H   17    0.09195      0.00000     0.40638    0.00167     0.40805
      H   18    0.07542      0.00000     0.42213    0.00245     0.42458
      H   19    0.08676      0.00000     0.40970    0.00355     0.41324
      H   20    0.09711      0.00000     0.40185    0.00104     0.40289
      H   21    0.18501      0.00000     0.31313    0.00185     0.31499
      H   22    0.23727      0.00000     0.26030    0.00243     0.26273
      H   23    0.23956      0.00000     0.25755    0.00288     0.26044
      H   24    0.23738      0.00000     0.25018    0.01243     0.26262
      H   25    0.18089      0.00000     0.31544    0.00367     0.31911
      H   26    0.19121      0.00000     0.30729    0.00150     0.30879
      H   27    0.19255      0.00000     0.30158    0.00587     0.30745
 =======================================================================
   * Total *   -0.00000     13.99583    40.78837    0.21579    55.00000

 Normal termination of Gaussian 16 at Sat Feb 27 18:47:15 2021.
