 Gaussian 16, Revision A.03,

 -----------------------------------------------------------
 # opt freq B3LYP/6-31G(d) empiricaldispersion=gd3bj scf=xqc
 -----------------------------------------------------------

 -------------------------------
 CID_113763195_JID_9560_neutraal
 -------------------------------
 Symbolic Z-matrix:
 Charge =  0 Multiplicity = 1

 SCF Done:  E(RB3LYP) =  -894.383964463     A.U. after   15 cycles
 SCF Done:  E(RB3LYP) =  -894.349323527     A.U. after   14 cycles
 SCF Done:  E(RB3LYP) =  -894.389650676     A.U. after   13 cycles
 SCF Done:  E(RB3LYP) =  -894.388794814     A.U. after   13 cycles
 SCF Done:  E(RB3LYP) =  -894.389416403     A.U. after   12 cycles
 SCF Done:  E(RB3LYP) =  -894.390354577     A.U. after    9 cycles
 SCF Done:  E(RB3LYP) =  -894.390480297     A.U. after   12 cycles
 SCF Done:  E(RB3LYP) =  -894.390713067     A.U. after   12 cycles
 SCF Done:  E(RB3LYP) =  -894.390757589     A.U. after   12 cycles
 SCF Done:  E(RB3LYP) =  -894.390813145     A.U. after   10 cycles
 SCF Done:  E(RB3LYP) =  -894.394259892     A.U. after    7 cycles
 SCF Done:  E(RB3LYP) =  -894.394259977     A.U. after    7 cycles
 SCF Done:  E(RB3LYP) =  -894.394260162     A.U. after    9 cycles
 SCF Done:  E(RB3LYP) =  -894.394260220     A.U. after    8 cycles
 SCF Done:  E(RB3LYP) =  -894.394260220     A.U. after    7 cycles
 Optimization completed.
    -- Stationary point found.
 Normal termination of Gaussian 16 at Sun Dec 13 21:09:07 2020.

 --------------------------------------------------------------------
 #N Geom=AllCheck Guess=TCheck SCRF=Check GenChk RB3LYP/6-31G(d) Freq
 --------------------------------------------------------------------

 Structure from the checkpoint file:  "JID_9560.chk"
 -------------------------------
 CID_113763195_JID_9560_neutraal
 -------------------------------
 Charge =  0 Multiplicity = 1

 SCF Done:  E(RB3LYP) =  -894.394260220     A.U. after    1 cycles

  Exact polarizability: 161.384   1.178 182.672  27.996  -1.470 118.611
 Approx polarizability: 240.715  -0.433 304.439  59.616  -4.616 195.144

                      1                      2                      3
                      A                      A                      A
 Frequencies --     19.0864                28.6397                32.2282
 Red. masses --      4.6231                 3.6298                 1.1488
 Frc consts  --      0.0010                 0.0018                 0.0007
 IR Inten    --      0.4546                 0.8741                 0.1549

                      4                      5                      6
                      A                      A                      A
 Frequencies --     49.2680                61.1511                85.0688
 Red. masses --      4.1799                 6.1110                 2.9954
 Frc consts  --      0.0060                 0.0135                 0.0128
 IR Inten    --      0.7999                 2.6722                 3.3681

                      7                      8                      9
                      A                      A                      A
 Frequencies --     97.1033               131.2799               151.6696
 Red. masses --      5.5364                 4.8610                 2.4194
 Frc consts  --      0.0308                 0.0494                 0.0328
 IR Inten    --      1.1794                 1.0093                 2.1892

                     10                     11                     12
                      A                      A                      A
 Frequencies --    170.8442               177.8125               226.2080
 Red. masses --      2.6510                 5.5645                 2.5627
 Frc consts  --      0.0456                 0.1037                 0.0773
 IR Inten    --      0.8899                 1.3868                 4.5903

                     13                     14                     15
                      A                      A                      A
 Frequencies --    250.3395               266.0769               325.8722
 Red. masses --      2.6774                 3.6643                 3.1972
 Frc consts  --      0.0989                 0.1528                 0.2000
 IR Inten    --      4.9196                 0.4690                 3.9471

                     16                     17                     18
                      A                      A                      A
 Frequencies --    344.1905               362.3284               374.8250
 Red. masses --      4.4200                 2.6920                 4.8708
 Frc consts  --      0.3085                 0.2082                 0.4032
 IR Inten    --      2.5034                 4.4350                 4.3115

                     19                     20                     21
                      A                      A                      A
 Frequencies --    390.6287               425.7858               434.9541
 Red. masses --      7.4100                 2.3217                 4.3424
 Frc consts  --      0.6662                 0.2480                 0.4840
 IR Inten    --      1.3066                 1.1188                 0.5473

                     22                     23                     24
                      A                      A                      A
 Frequencies --    493.5796               499.3496               562.1411
 Red. masses --      4.3378                 3.5742                 2.8995
 Frc consts  --      0.6226                 0.5251                 0.5398
 IR Inten    --      5.3402                 4.8853                16.8536

                     25                     26                     27
                      A                      A                      A
 Frequencies --    601.1855               628.2339               639.0583
 Red. masses --      3.0201                 4.0874                 1.5827
 Frc consts  --      0.6431                 0.9505                 0.3808
 IR Inten    --     27.8233                 0.8497                65.0148

                     28                     29                     30
                      A                      A                      A
 Frequencies --    655.7569               664.4609               697.2356
 Red. masses --      5.6626                 5.9060                 3.5956
 Frc consts  --      1.4347                 1.5363                 1.0299
 IR Inten    --     51.7700                 4.1672                 2.0158

                     31                     32                     33
                      A                      A                      A
 Frequencies --    721.9153               734.6810               741.2508
 Red. masses --      4.3710                 3.9195                 3.8381
 Frc consts  --      1.3422                 1.2464                 1.2425
 IR Inten    --     16.5726                19.7800                22.4456

                     34                     35                     36
                      A                      A                      A
 Frequencies --    771.7189               783.4880               820.4852
 Red. masses --      3.8114                 1.3600                 5.8077
 Frc consts  --      1.3374                 0.4919                 2.3036
 IR Inten    --     20.7337                24.4601                 7.0568

                     37                     38                     39
                      A                      A                      A
 Frequencies --    834.9631               870.9825               889.6711
 Red. masses --      1.6372                 1.2922                 2.5973
 Frc consts  --      0.6725                 0.5776                 1.2113
 IR Inten    --     31.0696                 2.1203                 5.5559

                     40                     41                     42
                      A                      A                      A
 Frequencies --    935.9661               954.2746               961.2926
 Red. masses --      4.1145                 4.4402                 1.3508
 Frc consts  --      2.1237                 2.3823                 0.7354
 IR Inten    --      2.4815                10.3451                 1.7400

                     43                     44                     45
                      A                      A                      A
 Frequencies --    964.2345              1030.1020              1042.7292
 Red. masses --      2.4336                 1.6142                 1.8759
 Frc consts  --      1.3331                 1.0092                 1.2017
 IR Inten    --      2.0093                 4.5723                 8.8782

                     46                     47                     48
                      A                      A                      A
 Frequencies --   1054.5260              1071.9740              1076.4803
 Red. masses --      2.3739                 1.5757                 2.0033
 Frc consts  --      1.5554                 1.0668                 1.3677
 IR Inten    --     21.3590                 6.4082                 2.9906

                     49                     50                     51
                      A                      A                      A
 Frequencies --   1082.7824              1122.4087              1163.1773
 Red. masses --      1.7869                 4.7846                 1.3238
 Frc consts  --      1.2343                 3.5514                 1.0553
 IR Inten    --      3.1773               271.3045                10.3363

                     52                     53                     54
                      A                      A                      A
 Frequencies --   1181.6655              1190.5324              1222.0815
 Red. masses --      1.7761                 1.5748                 2.0838
 Frc consts  --      1.4612                 1.3151                 1.8336
 IR Inten    --     20.5669                13.5953               199.3747

                     55                     56                     57
                      A                      A                      A
 Frequencies --   1240.6236              1255.5919              1287.7811
 Red. masses --      1.7028                 1.3959                 1.6380
 Frc consts  --      1.5442                 1.2966                 1.6004
 IR Inten    --     15.1591                 4.3395                74.4783

                     58                     59                     60
                      A                      A                      A
 Frequencies --   1289.1198              1317.1147              1321.8274
 Red. masses --      2.5716                 4.1067                 3.5652
 Frc consts  --      2.5179                 4.1975                 3.6701
 IR Inten    --      6.9921                19.2663                63.8794

                     61                     62                     63
                      A                      A                      A
 Frequencies --   1334.9304              1375.2375              1388.2748
 Red. masses --      2.2740                 2.3068                 1.7823
 Frc consts  --      2.3876                 2.5705                 2.0239
 IR Inten    --     93.8938                10.8850                 8.8467

                     64                     65                     66
                      A                      A                      A
 Frequencies --   1398.2467              1421.9144              1433.4044
 Red. masses --      3.4850                 1.4049                 1.4433
 Frc consts  --      4.0144                 1.6735                 1.7472
 IR Inten    --     43.2292                 2.9358                10.0745

                     67                     68                     69
                      A                      A                      A
 Frequencies --   1449.9062              1449.9912              1479.8135
 Red. masses --      2.9904                 2.7816                 1.3724
 Frc consts  --      3.7039                 3.4456                 1.7707
 IR Inten    --     71.6826                 9.3630                 8.6933

                     70                     71                     72
                      A                      A                      A
 Frequencies --   1506.0194              1506.7517              1515.3474
 Red. masses --      1.2931                 1.3136                 1.4151
 Frc consts  --      1.7280                 1.7571                 1.9145
 IR Inten    --     45.6496                15.2898                52.2024

                     73                     74                     75
                      A                      A                      A
 Frequencies --   1519.5993              1522.9919              1532.4453
 Red. masses --      1.5559                 1.3847                 1.1991
 Frc consts  --      2.1169                 1.8924                 1.6591
 IR Inten    --      8.1290                59.2618                21.3991

                     76                     77                     78
                      A                      A                      A
 Frequencies --   1540.6340              1545.8332              1590.2469
 Red. masses --      1.1941                 1.3502                 4.5824
 Frc consts  --      1.6699                 1.9009                 6.8277
 IR Inten    --     14.3177                10.9385                 6.9666

                     79                     80                     81
                      A                      A                      A
 Frequencies --   1621.6772              1652.3842              1810.5691
 Red. masses --      5.5614                 6.7139                 9.7996
 Frc consts  --      8.6171                10.8005                18.9274
 IR Inten    --     21.7835                 2.8196               295.2832

                     82                     83                     84
                      A                      A                      A
 Frequencies --   3048.3075              3062.0474              3066.6869
 Red. masses --      1.0412                 1.0626                 1.0458
 Frc consts  --      5.7002                 5.8703                 5.7946
 IR Inten    --     22.2115                 9.8137                51.0461

                     85                     86                     87
                      A                      A                      A
 Frequencies --   3069.0190              3105.0499              3112.2228
 Red. masses --      1.0621                 1.0975                 1.0990
 Frc consts  --      5.8943                 6.2343                 6.2716
 IR Inten    --     32.6704                18.8836                16.8198

                     88                     89                     90
                      A                      A                      A
 Frequencies --   3129.2383              3155.4135              3155.5513
 Red. masses --      1.1047                 1.0923                 1.1006
 Frc consts  --      6.3735                 6.4077                 6.4571
 IR Inten    --     30.8163                 5.1320                 6.9893

                     91                     92                     93
                      A                      A                      A
 Frequencies --   3196.3967              3200.7657              3250.3908
 Red. masses --      1.1061                 1.0907                 1.0914
 Frc consts  --      6.6580                 6.5839                 6.7936
 IR Inten    --      5.3641                10.2730                 7.5712

                     94                     95                     96
                      A                      A                      A
 Frequencies --   3252.6805              3267.7796              3685.3719
 Red. masses --      1.0916                 1.1021                 1.0638
 Frc consts  --      6.8043                 6.9336                 8.5128
 IR Inten    --      5.2785                 6.0611                61.8230

 - Thermochemistry -
 -------------------
 Temperature   298.150 Kelvin.  Pressure   1.00000 Atm.
 Atom     1 has atomic number  6 and mass  12.00000

 Molecular mass:   261.11134 amu.
 Principal axes and moments of inertia in atomic units:
                           1         2         3
     Eigenvalues --  3399.330895164.220586634.34311
           X            0.99846   0.05367   0.01392
           Y           -0.05363   0.99856  -0.00287
           Z           -0.01406   0.00212   0.99990
 This molecule is an asymmetric top.
 Rotational symmetry number  1.
 Warning -- assumption of classical behavior for rotation
           may cause significant error
 Rotational temperatures (Kelvin)      0.02548     0.01677     0.01306
 Rotational constants (GHZ):           0.53091     0.34947     0.27203
 Zero-point vibrational energy     718566.5 (Joules/Mol)
                                  171.74152 (Kcal/Mol)
 Warning -- explicit consideration of  25 degrees of freedom as
           vibrations may cause significant error
 Vibrational temperatures:     27.46    41.21    46.37    70.89    87.98
          (Kelvin)            122.40   139.71   188.88   218.22   245.81
                              255.83   325.46   360.18   382.83   468.86
                              495.21   521.31   539.29   562.03   612.61
                              625.80   710.15   718.45   808.80   864.97
                              903.89   919.46   943.49   956.01  1003.17
                             1038.68  1057.04  1066.49  1110.33  1127.26
                             1180.50  1201.33  1253.15  1280.04  1346.65
                             1372.99  1383.09  1387.32  1482.09  1500.25
                             1517.23  1542.33  1548.82  1557.88  1614.90
                             1673.55  1700.15  1712.91  1758.30  1784.98
                             1806.52  1852.83  1854.76  1895.03  1901.81
                             1920.67  1978.66  1997.42  2011.77  2045.82
                             2062.35  2086.09  2086.21  2129.12  2166.83
                             2167.88  2180.25  2186.36  2191.25  2204.85
                             2216.63  2224.11  2288.01  2333.23  2377.41
                             2605.01  4385.83  4405.60  4412.28  4415.63
                             4467.47  4477.79  4502.28  4539.94  4540.13
                             4598.90  4605.19  4676.59  4679.88  4701.61
                             5302.43

 Zero-point correction=                           0.273688 (Hartree/Particle)
 Thermal correction to Energy=                    0.291447
 Thermal correction to Enthalpy=                  0.292391
 Thermal correction to Gibbs Free Energy=         0.225316
 Sum of electronic and zero-point Energies=           -894.120573
 Sum of electronic and thermal Energies=              -894.102814
 Sum of electronic and thermal Enthalpies=            -894.101869
 Sum of electronic and thermal Free Energies=         -894.168944

                     E (Thermal)             CV                S
                      KCal/Mol        Cal/Mol-Kelvin    Cal/Mol-Kelvin
 Total                  182.886             65.716            141.171
 Electronic               0.000              0.000              0.000
 Translational            0.889              2.981             42.579
 Rotational               0.889              2.981             33.121
 Vibrational            181.108             59.755             65.471
 Vibration     1          0.593              1.986              6.727
 Vibration     2          0.593              1.984              5.921
 Vibration     3          0.594              1.983              5.687
 Vibration     4          0.595              1.978              4.847
 Vibration     5          0.597              1.973              4.420
 Vibration     6          0.601              1.960              3.770
 Vibration     7          0.603              1.951              3.512
 Vibration     8          0.612              1.922              2.927
 Vibration     9          0.619              1.901              2.651
 Vibration    10          0.626              1.878              2.426
 Vibration    11          0.628              1.870              2.351
 Vibration    12          0.650              1.801              1.909
 Vibration    13          0.663              1.762              1.728
 Vibration    14          0.672              1.735              1.622
 Vibration    15          0.710              1.624              1.280
 Vibration    16          0.723              1.587              1.193
 Vibration    17          0.736              1.550              1.112
 Vibration    18          0.746              1.524              1.060
 Vibration    19          0.758              1.490              0.998
 Vibration    20          0.788              1.414              0.873
 Vibration    21          0.796              1.394              0.843
 Vibration    22          0.849              1.264              0.674
 Vibration    23          0.855              1.251              0.660
 Vibration    24          0.918              1.113              0.520
 Vibration    25          0.959              1.029              0.448

 Optimization completed.
    -- Stationary point found.
 Normal termination of Gaussian 16 at Sun Dec 13 21:26:37 2020.

 ----------------------------------------------------------------------
 # B3LYP/6-311++G(d,p) empiricaldispersion=gd3bj scf=xqc pop=npa geom=c
 heck
 ----------------------------------------------------------------------

 ---------------------------------------
 CID_113763195_JID_9560_Energie_neutraal
 ---------------------------------------
 Structure from the checkpoint file:  "JID_9560.chk"
 Charge =  0 Multiplicity = 1

 SCF Done:  E(RB3LYP) =  -894.644436251     A.U. after   16 cycles
 Normal termination of Gaussian 16 at Sun Dec 13 21:32:57 2020.

 ----------------------------------------------------------------------
 # B3LYP/6-311++G(d,p) empiricaldispersion=gd3bj scf=xqc pop=npa geom=c
 heck
 ----------------------------------------------------------------------

 -------------------------------------
 CID_113763195_JID_9560_Energie_kation
 -------------------------------------
 Structure from the checkpoint file:  "JID_9560.chk"
 Charge =  1 Multiplicity = 2

 SCF Done:  E(UB3LYP) =  -894.351331415     A.U. after   26 cycles
 Normal termination of Gaussian 16 at Sun Dec 13 21:46:41 2020.
 Gaussian 16:  ES64L-G16RevA.03 25-Dec-2016

 ----------------------------------------------------------------------
 # B3LYP/6-311++G(d,p) empiricaldispersion=gd3bj scf=xqc pop=npa geom=c
 heck
 ----------------------------------------------------------------------

 ------------------------------------
 CID_113763195_JID_9560_Energie_anion
 ------------------------------------
 Structure from the checkpoint file:  "JID_9560.chk"
 Charge = -1 Multiplicity = 2

                         Standard orientation:
 ---------------------------------------------------------------------
 Center     Atomic      Atomic             Coordinates (Angstroms)
 Number     Number       Type             X           Y           Z
 ---------------------------------------------------------------------
      1          6           0        2.546916    3.268228    0.049495
      2          6           0        1.823229    2.004195   -0.336187
      3          7           0        2.337410    0.848543    0.090712
      4          6           0        1.700265   -0.298584   -0.178460
      5          6           0        0.510430   -0.357472   -0.930856
      6          6           0       -0.016367    0.852327   -1.397008
      7          6           0        0.638763    2.033460   -1.086641
      8          8           0       -0.005967   -1.588402   -1.183373
      9          6           0       -1.340751   -1.754861   -1.658689
     10          6           0       -2.375581   -1.719616   -0.523051
     11          6           0       -2.549895   -0.368655    0.097866
     12          6           0       -3.323920    0.704811   -0.322344
     13          6           0       -3.010637    1.749425    0.569386
     14          7           0       -2.117315    1.365841    1.482119
     15          7           0       -1.843449    0.075776    1.178546
     16          6           0       -0.946288   -0.666223    2.049085
     17          6           0        2.286483   -1.535372    0.427228
     18          8           0        1.647642   -2.468434    0.875399
     19          8           0        3.635564   -1.505712    0.458404
     20          1           0        3.577425    3.034430    0.325596
     21          1           0        2.549562    3.996519   -0.768797
     22          1           0        2.064899    3.745427    0.912561
     23          1           0       -0.942259    0.881761   -1.955137
     24          1           0        0.228852    2.981671   -1.421657
     25          1           0       -1.583157   -1.020347   -2.434534
     26          1           0       -1.338457   -2.745447   -2.120438
     27          1           0       -3.335278   -2.039636   -0.946651
     28          1           0       -2.091641   -2.468829    0.222668
     29          1           0       -4.007456    0.718576   -1.159962
     30          1           0       -3.395931    2.760452    0.591491
     31          1           0       -0.201142    0.034408    2.426785
     32          1           0       -1.497305   -1.093904    2.894018
     33          1           0       -0.438470   -1.458153    1.499124
     34          1           0        3.900037   -2.327646    0.912915
 ---------------------------------------------------------------------

 SCF Done:  E(UB3LYP) =  -894.647580651     A.U. after   33 cycles
 SCF Done:  E(UB3LYP) =  -894.647580651     a.u. after    1 cycles

 The electronic state is 2-A.
 Alpha  occ. eigenvalues --  -19.03211 -19.02955 -18.96238 -14.28145 -14.21903
 Alpha  occ. eigenvalues --  -14.15598 -10.14742 -10.12528 -10.10673 -10.10520
 Alpha  occ. eigenvalues --  -10.09365 -10.08824 -10.08339 -10.07010 -10.05839
 Alpha  occ. eigenvalues --  -10.05754 -10.04798 -10.04001 -10.03007  -0.96916
 Alpha  occ. eigenvalues --   -0.95104  -0.94077  -0.87391  -0.80218  -0.73591
 Alpha  occ. eigenvalues --   -0.70962  -0.66993  -0.65764  -0.63662  -0.59107
 Alpha  occ. eigenvalues --   -0.58447  -0.54940  -0.52586  -0.49767  -0.47927
 Alpha  occ. eigenvalues --   -0.45435  -0.44795  -0.41578  -0.40701  -0.38425
 Alpha  occ. eigenvalues --   -0.38290  -0.36430  -0.35031  -0.34675  -0.34265
 Alpha  occ. eigenvalues --   -0.32477  -0.32045  -0.31873  -0.30921  -0.30448
 Alpha  occ. eigenvalues --   -0.29811  -0.29350  -0.28599  -0.28219  -0.27565
 Alpha  occ. eigenvalues --   -0.27055  -0.25919  -0.25284  -0.24523  -0.21979
 Alpha  occ. eigenvalues --   -0.20805  -0.18747  -0.18678  -0.15419  -0.14652
 Alpha  occ. eigenvalues --   -0.14569  -0.13846  -0.11314  -0.09780   0.04462
 Alpha virt. eigenvalues --    0.06309   0.07951   0.08640   0.08822   0.09373
 Alpha virt. eigenvalues --    0.09681   0.09927   0.11013   0.11328   0.11853
 Alpha virt. eigenvalues --    0.11979   0.12810   0.12953   0.13672   0.14022

  Beta  occ. eigenvalues --  -19.03216 -19.02901 -18.96015 -14.28147 -14.21904
  Beta  occ. eigenvalues --  -14.15276 -10.14546 -10.12509 -10.10670 -10.10514
  Beta  occ. eigenvalues --  -10.09365 -10.08815 -10.08336 -10.07109 -10.05830
  Beta  occ. eigenvalues --  -10.05552 -10.04793 -10.03903 -10.02718  -0.96680
  Beta  occ. eigenvalues --   -0.95090  -0.94077  -0.87057  -0.79738  -0.73587
  Beta  occ. eigenvalues --   -0.70940  -0.66797  -0.65354  -0.63584  -0.59099
  Beta  occ. eigenvalues --   -0.58295  -0.54638  -0.52152  -0.49743  -0.47703
  Beta  occ. eigenvalues --   -0.45323  -0.44768  -0.41489  -0.40643  -0.38283
  Beta  occ. eigenvalues --   -0.38139  -0.36292  -0.34904  -0.34621  -0.34088
  Beta  occ. eigenvalues --   -0.32436  -0.31859  -0.31604  -0.30665  -0.30178
  Beta  occ. eigenvalues --   -0.29774  -0.29119  -0.28551  -0.28160  -0.27422
  Beta  occ. eigenvalues --   -0.26996  -0.25519  -0.25130  -0.24375  -0.21692
  Beta  occ. eigenvalues --   -0.20384  -0.18677  -0.17866  -0.14957  -0.14463
  Beta  occ. eigenvalues --   -0.14140  -0.13016  -0.10922  -0.09008
  Beta virt. eigenvalues --    0.06957   0.08066   0.08672   0.08844   0.09442
  Beta virt. eigenvalues --    0.09683   0.09844   0.10244   0.11060   0.11441
  Beta virt. eigenvalues --    0.11925   0.12196   0.12903   0.13111   0.13667

 Mulliken charges and spin densities:
               1          2
     1  C   -0.633465  -0.021267
     2  C   -0.088177  -0.114878
     3  N    0.077225   0.152331
     4  C   -0.620322   0.166903
     5  C   -0.408171   0.253311
     6  C    0.788133  -0.164608
     7  C   -0.282437   0.173182
     8  O   -0.032348   0.015464
     9  C    0.461945  -0.596841
    10  C   -0.179184  -0.540168
    11  C   -0.012253   0.070557
    12  C   -0.191683   0.128012
    13  C    0.074008  -0.266286
    14  N   -0.359508  -0.014465
    15  N    0.502910   0.023745
    16  C   -0.370091   0.000354
    17  C   -0.159800   0.133513
    18  O   -0.328839   0.074868
    19  O   -0.154227   0.005511
    20  H    0.141320  -0.000682
    21  H    0.121208  -0.002992
    22  H    0.143920   0.001269
    23  H    0.151165  -0.011576
    24  H    0.094200   0.028885
    25  H   -0.232359   0.397374
    26  H   -0.022619   0.194786
    27  H   -0.146268   0.305941
    28  H    0.180781   0.012915
    29  H   -0.372722   0.529451
    30  H    0.066659   0.076319
    31  H    0.190467  -0.001996
    32  H    0.156685   0.004587
    33  H    0.194269  -0.015217
    34  H    0.249577   0.001698
 Sum of Mulliken charges =  -1.00000   1.00000

 Dipole moment (field-independent basis, Debye):
    X=             -1.3105    Y=              0.0931    Z=              1.4960  Tot=              1.9910
 Quadrupole moment (field-independent basis, Debye-Ang):
   XX=           -155.9276   YY=           -136.0599   ZZ=           -134.1895
   XY=              0.1028   XZ=             -4.1720   YZ=             -4.8272

 Summary of Natural Population Analysis:

                                       Natural Population
                Natural  -----------------------------------------------
    Atom  No    Charge         Core      Valence    Rydberg      Total
 -----------------------------------------------------------------------
      C    1   -0.29331      0.99964     2.28913    0.00455     3.29331
      C    2    0.06874      0.99956     1.91956    0.01214     2.93126
      N    3   -0.18322      0.99965     2.67324    0.01032     3.68322
      C    4    0.05284      0.99945     1.93154    0.01617     2.94716
      C    5    0.15402      0.99934     1.83230    0.01434     2.84598
      C    6   -0.11360      0.99952     2.10456    0.00951     3.11360
      C    7   -0.05567      0.99952     2.04712    0.00903     3.05567
      O    8   -0.27479      0.99985     3.26576    0.00918     4.27479
      C    9   -0.00252      0.99956     1.98993    0.01303     3.00252
      C   10   -0.22084      0.99959     2.21232    0.00893     3.22084
      C   11    0.08619      0.99952     1.90134    0.01296     2.91381
      C   12   -0.16850      0.99949     2.15970    0.00930     3.16850
      C   13   -0.01631      0.99964     2.00171    0.01496     3.01631
      N   14   -0.15364      0.99974     2.64205    0.01185     3.65364
      N   15   -0.10512      0.99961     2.59334    0.01216     3.60512
      C   16   -0.18275      0.99963     2.17642    0.00669     3.18275
      C   17    0.41863      0.99969     1.55612    0.02556     2.58137
      O   18   -0.30703      0.99987     3.30051    0.00665     4.30703
      O   19   -0.33742      0.99988     3.33156    0.00598     4.33742
      H   20    0.10482      0.00000     0.39414    0.00104     0.39518
      H   21    0.09361      0.00000     0.40553    0.00086     0.40639
      H   22    0.09762      0.00000     0.40137    0.00101     0.40238
      H   23    0.10036      0.00000     0.39765    0.00199     0.39964
      H   24    0.09069      0.00000     0.40824    0.00106     0.40931
      H   25    0.08666      0.00000     0.41150    0.00184     0.41334
      H   26    0.09116      0.00000     0.40778    0.00105     0.40884
      H   27    0.10883      0.00000     0.38989    0.00128     0.39117
      H   28    0.10900      0.00000     0.38990    0.00110     0.39100
      H   29    0.10729      0.00000     0.39167    0.00103     0.39271
      H   30    0.09443      0.00000     0.40476    0.00081     0.40557
      H   31    0.11222      0.00000     0.38706    0.00072     0.38778
      H   32    0.08953      0.00000     0.40966    0.00081     0.41047
      H   33    0.12128      0.00000     0.37738    0.00135     0.37872
      H   34    0.22677      0.00000     0.26894    0.00428     0.27323
 =======================================================================
   * Total *   -0.00000     18.99274    49.77371    0.23355    69.00000

 Normal termination of Gaussian 16 at Sun Dec 13 22:04:37 2020.
