 Gaussian 16, Revision A.03,

 -----------------------------------------------------------
 # opt freq B3LYP/6-31G(d) empiricaldispersion=gd3bj scf=xqc
 -----------------------------------------------------------

 -------------------------------
 CID_140971900_JID_5423_neutraal
 -------------------------------
 Symbolic Z-matrix:
 Charge =  0 Multiplicity = 1

 SCF Done:  E(RB3LYP) =  -667.764523107     A.U. after   15 cycles
 SCF Done:  E(RB3LYP) =  -667.768700872     A.U. after   12 cycles
 SCF Done:  E(RB3LYP) =  -667.769125667     A.U. after   11 cycles
 SCF Done:  E(RB3LYP) =  -667.769216402     A.U. after   11 cycles
 SCF Done:  E(RB3LYP) =  -667.769262143     A.U. after    9 cycles
 SCF Done:  E(RB3LYP) =  -667.769277579     A.U. after   10 cycles
 SCF Done:  E(RB3LYP) =  -667.769287664     A.U. after    9 cycles
 SCF Done:  E(RB3LYP) =  -667.769291568     A.U. after    8 cycles
 SCF Done:  E(RB3LYP) =  -667.769292433     A.U. after    8 cycles
 SCF Done:  E(RB3LYP) =  -667.769292730     A.U. after    8 cycles
 SCF Done:  E(RB3LYP) =  -667.769292787     A.U. after    7 cycles
 Optimization completed.
    -- Stationary point found.
 Normal termination of Gaussian 16 at Thu Dec 10 15:57:15 2020.

 --------------------------------------------------------------------
 #N Geom=AllCheck Guess=TCheck SCRF=Check GenChk RB3LYP/6-31G(d) Freq
 --------------------------------------------------------------------

 Structure from the checkpoint file:  "JID_5423.chk"
 -------------------------------
 CID_140971900_JID_5423_neutraal
 -------------------------------
 Charge =  0 Multiplicity = 1

 SCF Done:  E(RB3LYP) =  -667.769292787     A.U. after    1 cycles

  Exact polarizability: 191.799   2.321 135.268   0.061   1.850  77.611
 Approx polarizability: 252.744   5.435 229.095  -0.273   7.157 116.486

                      1                      2                      3
                      A                      A                      A
 Frequencies --     32.9809                48.9833                62.7514
 Red. masses --      3.5046                 3.4925                 4.4670
 Frc consts  --      0.0022                 0.0049                 0.0104
 IR Inten    --      0.0891                 0.1995                 2.6716

                      4                      5                      6
                      A                      A                      A
 Frequencies --    109.4202               133.7526               181.6019
 Red. masses --      4.0795                 4.1003                 3.8635
 Frc consts  --      0.0288                 0.0432                 0.0751
 IR Inten    --      2.1997                 1.1380                 2.5353

                      7                      8                      9
                      A                      A                      A
 Frequencies --    188.1373               237.5401               248.2064
 Red. masses --      2.0073                 1.3107                 1.9554
 Frc consts  --      0.0419                 0.0436                 0.0710
 IR Inten    --      2.6884                 0.6319                 4.4047

                     10                     11                     12
                      A                      A                      A
 Frequencies --    262.9993               267.4892               283.0760
 Red. masses --      2.6279                 1.4550                 4.1531
 Frc consts  --      0.1071                 0.0613                 0.1961
 IR Inten    --      2.3661                 1.3672                 2.3851

                     13                     14                     15
                      A                      A                      A
 Frequencies --    352.2421               385.8443               397.9972
 Red. masses --      4.6894                 4.5121                 2.7537
 Frc consts  --      0.3428                 0.3958                 0.2570
 IR Inten    --      1.7617                 2.5727                 0.0551

                     16                     17                     18
                      A                      A                      A
 Frequencies --    427.8240               456.2089               546.5842
 Red. masses --      3.4359                 2.8849                 3.0066
 Frc consts  --      0.3705                 0.3538                 0.5292
 IR Inten    --     15.4566                 3.2804                10.9840

                     19                     20                     21
                      A                      A                      A
 Frequencies --    592.3525               639.4200               674.0175
 Red. masses --      2.6515                 6.7020                 4.8712
 Frc consts  --      0.5482                 1.6144                 1.3038
 IR Inten    --      6.4535                10.1807                27.7206

                     22                     23                     24
                      A                      A                      A
 Frequencies --    690.4842               746.6329               751.2376
 Red. masses --      5.8144                 9.6820                 3.8504
 Frc consts  --      1.6333                 3.1800                 1.2803
 IR Inten    --      3.8500                12.4571                 4.8032

                     25                     26                     27
                      A                      A                      A
 Frequencies --    769.4558               822.0681               832.5847
 Red. masses --      6.1548                 1.7571                 2.1537
 Frc consts  --      2.1470                 0.6996                 0.8796
 IR Inten    --      7.8524                15.2630                17.7440

                     28                     29                     30
                      A                      A                      A
 Frequencies --    875.6302               899.6053               942.4685
 Red. masses --      1.2855                 1.7843                 1.3112
 Frc consts  --      0.5807                 0.8508                 0.6862
 IR Inten    --      8.6597                 8.6878                 0.7177

                     31                     32                     33
                      A                      A                      A
 Frequencies --    955.7915               963.6998               968.5783
 Red. masses --      2.0077                 1.4310                 1.3134
 Frc consts  --      1.0806                 0.7830                 0.7260
 IR Inten    --      9.1400                 0.2438                 0.7996

                     34                     35                     36
                      A                      A                      A
 Frequencies --    996.7068              1009.5018              1015.0032
 Red. masses --      1.3952                 3.0599                 4.2790
 Frc consts  --      0.8166                 1.8372                 2.5973
 IR Inten    --      0.6775                 1.5733                23.3292

                     37                     38                     39
                      A                      A                      A
 Frequencies --   1081.1482              1100.0562              1105.9233
 Red. masses --      3.7587                 1.6691                 1.8610
 Frc consts  --      2.5885                 1.1900                 1.3410
 IR Inten    --     33.8419                18.1599                 0.3653

                     40                     41                     42
                      A                      A                      A
 Frequencies --   1131.8793              1140.9879              1162.4655
 Red. masses --      1.8279                 1.6622                 2.0775
 Frc consts  --      1.3797                 1.2749                 1.6541
 IR Inten    --      5.1701                 3.8213                20.7298

                     43                     44                     45
                      A                      A                      A
 Frequencies --   1176.7689              1214.8222              1241.4329
 Red. masses --      2.9580                 1.9010                 1.2120
 Frc consts  --      2.4134                 1.6529                 1.1005
 IR Inten    --     22.6045                 0.3442                 8.5358

                     46                     47                     48
                      A                      A                      A
 Frequencies --   1263.4941              1265.7795              1279.4642
 Red. masses --      1.3082                 1.6884                 3.3230
 Frc consts  --      1.2304                 1.5938                 3.2051
 IR Inten    --     63.2025                15.0911               198.0547

                     49                     50                     51
                      A                      A                      A
 Frequencies --   1296.5320              1313.6907              1372.1856
 Red. masses --      1.8763                 7.1191                 1.5205
 Frc consts  --      1.8584                 7.2387                 1.6867
 IR Inten    --    239.5153                 0.3489                 7.0380

                     52                     53                     54
                      A                      A                      A
 Frequencies --   1379.4988              1384.5136              1407.6362
 Red. masses --      1.8190                 1.3528                 1.6024
 Frc consts  --      2.0395                 1.5279                 1.8707
 IR Inten    --     28.2449                 0.3668                29.4877

                     55                     56                     57
                      A                      A                      A
 Frequencies --   1427.3255              1435.6409              1446.4142
 Red. masses --      1.2724                 1.6515                 1.5087
 Frc consts  --      1.5273                 2.0054                 1.8596
 IR Inten    --     12.3978                75.1087               119.6586

                     58                     59                     60
                      A                      A                      A
 Frequencies --   1458.8206              1470.4181              1517.2617
 Red. masses --      1.8262                 2.3649                 1.0450
 Frc consts  --      2.2899                 3.0126                 1.4174
 IR Inten    --    328.3643                48.9777                 1.5454

                     61                     62                     63
                      A                      A                      A
 Frequencies --   1522.0489              1533.2392              1538.9153
 Red. masses --      1.0540                 1.0457                 1.0624
 Frc consts  --      1.4386                 1.4483                 1.4824
 IR Inten    --      1.3927                 8.0129                 6.1809

                     64                     65                     66
                      A                      A                      A
 Frequencies --   1548.4636              1554.9846              1563.5358
 Red. masses --      1.2629                 1.8483                 1.0994
 Frc consts  --      1.7841                 2.6332                 1.5834
 IR Inten    --    138.5698                42.2799                 8.3192

                     67                     68                     69
                      A                      A                      A
 Frequencies --   1613.2038              1654.8061              1810.5428
 Red. masses --      7.1597                 5.2001                11.9552
 Frc consts  --     10.9781                 8.3899                23.0901
 IR Inten    --     28.5884               224.9132               286.9531

                     70                     71                     72
                      A                      A                      A
 Frequencies --   3017.6870              3036.2061              3049.7447
 Red. masses --      1.0721                 1.0678                 1.0367
 Frc consts  --      5.7523                 5.7996                 5.6809
 IR Inten    --     36.9084                31.5799                14.5363

                     73                     74                     75
                      A                      A                      A
 Frequencies --   3054.1677              3098.5188              3107.8842
 Red. masses --      1.0383                 1.0874                 1.0915
 Frc consts  --      5.7064                 6.1511                 6.2116
 IR Inten    --     27.3612                 1.9887                26.2243

                     76                     77                     78
                      A                      A                      A
 Frequencies --   3113.9332              3117.1962              3127.0777
 Red. masses --      1.1000                 1.1000                 1.0971
 Frc consts  --      6.2843                 6.2973                 6.3208
 IR Inten    --     14.0099                19.7873                51.2882

                     79                     80                     81
                      A                      A                      A
 Frequencies --   3134.7869              3136.9010              3165.9387
 Red. masses --      1.1030                 1.1029                 1.0889
 Frc consts  --      6.3863                 6.3940                 6.4303
 IR Inten    --     20.0365                28.8665                40.2106

                     82                     83                     84
                      A                      A                      A
 Frequencies --   3173.7877              3227.5436              3282.1924
 Red. masses --      1.0911                 1.0916                 1.0924
 Frc consts  --      6.4752                 6.6995                 6.9337
 IR Inten    --     31.9346                11.2844                 5.5713

 - Thermochemistry -
 -------------------
 Temperature   298.150 Kelvin.  Pressure   1.00000 Atm.
 Atom     1 has atomic number  6 and mass  12.00000

 Molecular mass:   205.12151 amu.
 Principal axes and moments of inertia in atomic units:
                           1         2         3
     Eigenvalues --  1050.093685734.719946428.33878
           X            1.00000  -0.00117   0.00203
           Y            0.00119   0.99992  -0.01223
           Z           -0.00202   0.01224   0.99992
 This molecule is an asymmetric top.
 Rotational symmetry number  1.
 Warning -- assumption of classical behavior for rotation
           may cause significant error
 Rotational temperatures (Kelvin)      0.08248     0.01510     0.01347
 Rotational constants (GHZ):           1.71865     0.31470     0.28075
 Zero-point vibrational energy     670066.3 (Joules/Mol)
                                  160.14970 (Kcal/Mol)
 Warning -- explicit consideration of  19 degrees of freedom as
           vibrations may cause significant error
 Vibrational temperatures:     47.45    70.48    90.29   157.43   192.44
          (Kelvin)            261.28   270.69   341.77   357.11   378.40
                              384.86   407.28   506.80   555.14   572.63
                              615.54   656.38   786.41   852.26   919.98
                              969.76   993.45  1074.24  1080.86  1107.08
                             1182.77  1197.90  1259.84  1294.33  1356.00
                             1375.17  1386.55  1393.57  1434.04  1452.45
                             1460.36  1555.53  1582.74  1591.18  1628.52
                             1641.63  1672.53  1693.11  1747.86  1786.15
                             1817.89  1821.17  1840.86  1865.42  1890.11
                             1974.27  1984.79  1992.01  2025.27  2053.60
                             2065.57  2081.07  2098.92  2115.60  2183.00
                             2189.89  2205.99  2214.16  2227.89  2237.28
                             2249.58  2321.04  2380.90  2604.97  4341.78
                             4368.42  4387.90  4394.27  4458.08  4471.55
                             4480.26  4484.95  4499.17  4510.26  4513.30
                             4555.08  4566.37  4643.72  4722.34

 Zero-point correction=                           0.255215 (Hartree/Particle)
 Thermal correction to Energy=                    0.268917
 Thermal correction to Enthalpy=                  0.269862
 Thermal correction to Gibbs Free Energy=         0.213972
 Sum of electronic and zero-point Energies=           -667.514078
 Sum of electronic and thermal Energies=              -667.500375
 Sum of electronic and thermal Enthalpies=            -667.499431
 Sum of electronic and thermal Free Energies=         -667.555321

                     E (Thermal)             CV                S
                      KCal/Mol        Cal/Mol-Kelvin    Cal/Mol-Kelvin
 Total                  168.748             52.050            117.630
 Electronic               0.000              0.000              0.000
 Translational            0.889              2.981             41.860
 Rotational               0.889              2.981             32.026
 Vibrational            166.971             46.089             43.744
 Vibration     1          0.594              1.983              5.642
 Vibration     2          0.595              1.978              4.858
 Vibration     3          0.597              1.972              4.369
 Vibration     4          0.606              1.942              3.279
 Vibration     5          0.613              1.920              2.891
 Vibration     6          0.630              1.865              2.312
 Vibration     7          0.633              1.856              2.246
 Vibration     8          0.656              1.783              1.821
 Vibration     9          0.662              1.766              1.743
 Vibration    10          0.670              1.741              1.642
 Vibration    11          0.673              1.733              1.612
 Vibration    12          0.682              1.705              1.515
 Vibration    13          0.729              1.571              1.156
 Vibration    14          0.755              1.500              1.016
 Vibration    15          0.764              1.474              0.970
 Vibration    16          0.789              1.410              0.866
 Vibration    17          0.814              1.347              0.777
 Vibration    18          0.902              1.147              0.551
 Vibration    19          0.950              1.048              0.463

                           ! Non-Optimized Parameters !
 Normal termination of Gaussian 16 at Thu Dec 10 16:06:10 2020.

 ----------------------------------------------------------------------
 # B3LYP/6-311++G(d,p) empiricaldispersion=gd3bj scf=xqc pop=npa geom=c
 heck
 ----------------------------------------------------------------------

 ---------------------------------------
 CID_140971900_JID_5423_Energie_neutraal
 ---------------------------------------
 Structure from the checkpoint file:  "JID_5423.chk"
 Charge =  0 Multiplicity = 1

 SCF Done:  E(RB3LYP) =  -667.948739897     A.U. after   16 cycles
 Normal termination of Gaussian 16 at Thu Dec 10 16:10:21 2020.

 ----------------------------------------------------------------------
 # B3LYP/6-311++G(d,p) empiricaldispersion=gd3bj scf=xqc pop=npa geom=c
 heck
 ----------------------------------------------------------------------

 -------------------------------------
 CID_140971900_JID_5423_Energie_kation
 -------------------------------------
 Structure from the checkpoint file:  "JID_5423.chk"
 Charge =  1 Multiplicity = 2

 SCF Done:  E(UB3LYP) =  -667.651358019     A.U. after   26 cycles
 Normal termination of Gaussian 16 at Thu Dec 10 16:18:25 2020.
 Gaussian 16:  ES64L-G16RevA.03 25-Dec-2016

 ----------------------------------------------------------------------
 # B3LYP/6-311++G(d,p) empiricaldispersion=gd3bj scf=xqc pop=npa geom=c
 heck
 ----------------------------------------------------------------------

 ------------------------------------
 CID_140971900_JID_5423_Energie_anion
 ------------------------------------
 Structure from the checkpoint file:  "JID_5423.chk"
 Charge = -1 Multiplicity = 2

                         Standard orientation:
 ---------------------------------------------------------------------
 Center     Atomic      Atomic             Coordinates (Angstroms)
 Number     Number       Type             X           Y           Z
 ---------------------------------------------------------------------
      1          6           0        4.259760    0.281364   -0.884499
      2          6           0        3.161181   -0.528174   -0.195366
      3          6           0        3.532343   -0.916549    1.241807
      4          7           0        1.885533    0.191033   -0.252330
      5          6           0        1.707169    1.529297    0.287214
      6          6           0        0.197499    1.750984    0.109312
      7          7           0       -0.326188    0.388078    0.073559
      8          6           0        0.705417   -0.524447   -0.204285
      9          8           0        0.595295   -1.727805   -0.378317
     10          6           0       -1.695603    0.117964    0.026437
     11          6           0       -2.212561   -1.189345   -0.005062
     12          6           0       -3.592812   -1.352599   -0.028410
     13          7           0       -4.489078   -0.354336   -0.019053
     14          6           0       -3.980919    0.881604    0.011462
     15          6           0       -2.620001    1.175601    0.033315
     16          1           0        4.494955    1.197660   -0.329702
     17          1           0        3.960985    0.559153   -1.900309
     18          1           0        5.178542   -0.310603   -0.943673
     19          1           0        2.982428   -1.445324   -0.763094
     20          1           0        3.699910   -0.031750    1.867411
     21          1           0        2.735953   -1.518268    1.690127
     22          1           0        4.454091   -1.508127    1.250369
     23          1           0        2.295909    2.269621   -0.260572
     24          1           0        1.991883    1.579068    1.348497
     25          1           0       -0.026317    2.276448   -0.828945
     26          1           0       -0.235263    2.318607    0.937001
     27          1           0       -1.547949   -2.040150   -0.019295
     28          1           0       -4.005175   -2.359825   -0.054366
     29          1           0       -4.702329    1.697490    0.016892
     30          1           0       -2.300688    2.210806    0.049414
 ---------------------------------------------------------------------

 SCF Done:  E(UB3LYP) =  -667.942699697     A.U. after   33 cycles
 SCF Done:  E(UB3LYP) =  -667.942699697     a.u. after    1 cycles

 The electronic state is 2-A.
 Alpha  occ. eigenvalues --  -18.99812 -14.26575 -14.24251 -14.20886 -10.20437
 Alpha  occ. eigenvalues --  -10.14102 -10.12218 -10.11855 -10.11489 -10.11382
 Alpha  occ. eigenvalues --  -10.11155 -10.08628 -10.07991 -10.06857 -10.06848
 Alpha  occ. eigenvalues --   -0.96862  -0.88698  -0.85059  -0.83190  -0.72102
 Alpha  occ. eigenvalues --   -0.68027  -0.67059  -0.65428  -0.59986  -0.57193
 Alpha  occ. eigenvalues --   -0.56820  -0.53107  -0.50168  -0.46518  -0.43455
 Alpha  occ. eigenvalues --   -0.42000  -0.40909  -0.39385  -0.38502  -0.36570
 Alpha  occ. eigenvalues --   -0.35136  -0.34700  -0.33977  -0.33645  -0.32829
 Alpha  occ. eigenvalues --   -0.32521  -0.30414  -0.29994  -0.29903  -0.28788
 Alpha  occ. eigenvalues --   -0.27922  -0.27246  -0.25958  -0.24889  -0.22857
 Alpha  occ. eigenvalues --   -0.18664  -0.17321  -0.16695  -0.16134  -0.13478
 Alpha  occ. eigenvalues --    0.03935
 Alpha virt. eigenvalues --    0.06167   0.06551   0.07259   0.07648   0.07752
 Alpha virt. eigenvalues --    0.08576   0.09066   0.09647   0.10098   0.11185
 Alpha virt. eigenvalues --    0.11456   0.11726   0.12151   0.12969   0.13494

  Beta  occ. eigenvalues --  -18.99800 -14.26584 -14.24255 -14.20840 -10.20421
  Beta  occ. eigenvalues --  -10.14050 -10.12177 -10.11852 -10.11433 -10.11377
  Beta  occ. eigenvalues --  -10.11144 -10.08619 -10.07994 -10.06833 -10.06810
  Beta  occ. eigenvalues --   -0.96839  -0.88676  -0.85005  -0.83159  -0.72050
  Beta  occ. eigenvalues --   -0.67990  -0.67023  -0.65363  -0.59927  -0.57136
  Beta  occ. eigenvalues --   -0.56742  -0.53068  -0.50111  -0.46476  -0.43410
  Beta  occ. eigenvalues --   -0.41944  -0.40866  -0.39345  -0.38465  -0.36528
  Beta  occ. eigenvalues --   -0.35104  -0.34656  -0.33936  -0.33624  -0.32769
  Beta  occ. eigenvalues --   -0.32471  -0.30360  -0.29894  -0.29824  -0.28743
  Beta  occ. eigenvalues --   -0.27871  -0.27221  -0.25925  -0.24848  -0.22694
  Beta  occ. eigenvalues --   -0.18644  -0.17248  -0.16643  -0.16072  -0.13424
  Beta virt. eigenvalues --    0.06467   0.06669   0.07159   0.07311   0.08189
  Beta virt. eigenvalues --    0.08434   0.08806   0.09511   0.10374   0.10475
  Beta virt. eigenvalues --    0.11555   0.11831   0.12085   0.12469   0.13253

 Mulliken charges and spin densities:
               1          2
     1  C    1.122905  -1.720670
     2  C   -2.296537   2.349917
     3  C    0.947893  -1.430187
     4  N    0.056034   0.084671
     5  C   -0.175235  -0.458524
     6  C    2.326886  -2.308596
     7  N   -0.012552   0.067060
     8  C    0.097460  -0.256649
     9  O   -0.353935   0.008750
    10  C   -0.111004  -0.554903
    11  C    0.081120   0.425940
    12  C   -0.600634  -0.165534
    13  N   -0.115933   0.030623
    14  C   -0.338253  -0.532799
    15  C    0.651007   0.529718
    16  H   -0.346095   0.502090
    17  H   -0.103435   0.272275
    18  H   -0.268122   0.413314
    19  H    0.077523   0.114760
    20  H   -0.222091   0.373576
    21  H    0.092737   0.077170
    22  H   -0.062545   0.205609
    23  H   -0.733838   0.925517
    24  H   -0.158395   0.343753
    25  H   -0.183613   0.386043
    26  H   -0.489100   0.676871
    27  H    0.214360   0.032675
    28  H    0.143450   0.006847
    29  H    0.059696   0.097096
    30  H   -0.299750   0.503590
 Sum of Mulliken charges =  -1.00000   1.00000

 Dipole moment (field-independent basis, Debye):
    X=             -3.2540    Y=             -4.6860    Z=             -0.6650  Tot=              5.7437
 Quadrupole moment (field-independent basis, Debye-Ang):
   XX=           -175.4847   YY=           -136.8482   ZZ=           -120.8439
   XY=            -11.1835   XZ=              0.4899   YZ=             -2.7560

 Summary of Natural Population Analysis:

                                       Natural Population
                Natural  -----------------------------------------------
    Atom  No    Charge         Core      Valence    Rydberg      Total
 -----------------------------------------------------------------------
      C    1   -0.28857      0.99965     2.28320    0.00572     3.28857
      C    2   -0.00849      0.99960     1.99698    0.01191     3.00849
      C    3   -0.29274      0.99964     2.28795    0.00515     3.29274
      N    4   -0.26239      0.99963     2.75087    0.01188     3.76239
      C    5   -0.08257      0.99962     2.07168    0.01127     3.08257
      C    6   -0.08240      0.99963     2.07162    0.01115     3.08240
      N    7   -0.24897      0.99961     2.74026    0.00910     3.74897
      C    8    0.42242      0.99964     1.55405    0.02389     2.57758
      O    9   -0.33085      0.99987     3.32636    0.00462     4.33085
      C   10    0.11309      0.99949     1.87573    0.01169     2.88691
      C   11   -0.13763      0.99952     2.13075    0.00735     3.13763
      C   12    0.02845      0.99960     1.95813    0.01382     2.97155
      N   13   -0.24503      0.99972     2.73387    0.01144     3.74503
      C   14    0.02846      0.99960     1.95578    0.01616     2.97154
      C   15   -0.14584      0.99953     2.13769    0.00862     3.14584
      H   16    0.10134      0.00000     0.39713    0.00153     0.39866
      H   17    0.10446      0.00000     0.39433    0.00120     0.39554
      H   18    0.10139      0.00000     0.39771    0.00091     0.39861
      H   19    0.10684      0.00000     0.39135    0.00181     0.39316
      H   20    0.10005      0.00000     0.39892    0.00103     0.39995
      H   21    0.10459      0.00000     0.39460    0.00081     0.39541
      H   22    0.10027      0.00000     0.39895    0.00077     0.39973
      H   23    0.10692      0.00000     0.38922    0.00386     0.39308
      H   24    0.09461      0.00000     0.40244    0.00294     0.40539
      H   25    0.09727      0.00000     0.40076    0.00197     0.40273
      H   26    0.10534      0.00000     0.39208    0.00258     0.39466
      H   27    0.12507      0.00000     0.37387    0.00106     0.37493
      H   28    0.08711      0.00000     0.41175    0.00114     0.41289
      H   29    0.08840      0.00000     0.41031    0.00129     0.41160
      H   30    0.10941      0.00000     0.38928    0.00130     0.39059
 =======================================================================
   * Total *   -0.00000     14.99436    39.81764    0.18800    55.00000

 Normal termination of Gaussian 16 at Thu Dec 10 16:29:41 2020.
