 Gaussian 16, Revision A.03,

 -----------------------------------------------------------
 # opt freq B3LYP/6-31G(d) empiricaldispersion=gd3bj scf=xqc
 -----------------------------------------------------------

 ------------------------------
 CID_10975903_JID_2988_neutraal
 ------------------------------
 Symbolic Z-matrix:
 Charge =  0 Multiplicity = 1

 SCF Done:  E(RB3LYP) =  -611.816692503     A.U. after   15 cycles
 SCF Done:  E(RB3LYP) =  -611.820646827     A.U. after   13 cycles
 SCF Done:  E(RB3LYP) =  -611.820606147     A.U. after   12 cycles
 SCF Done:  E(RB3LYP) =  -611.821269088     A.U. after   12 cycles
 SCF Done:  E(RB3LYP) =  -611.821354486     A.U. after   11 cycles
 SCF Done:  E(RB3LYP) =  -611.821376803     A.U. after   11 cycles
 SCF Done:  E(RB3LYP) =  -611.821398998     A.U. after    9 cycles
 SCF Done:  E(RB3LYP) =  -611.821402613     A.U. after    9 cycles
 SCF Done:  E(RB3LYP) =  -611.821403346     A.U. after    8 cycles
 SCF Done:  E(RB3LYP) =  -611.821403702     A.U. after    8 cycles
 SCF Done:  E(RB3LYP) =  -611.821503474     A.U. after   10 cycles
 SCF Done:  E(RB3LYP) =  -611.821513392     A.U. after    9 cycles
 SCF Done:  E(RB3LYP) =  -611.821513481     A.U. after    9 cycles
 SCF Done:  E(RB3LYP) =  -611.821514876     A.U. after    9 cycles
 SCF Done:  E(RB3LYP) =  -611.821514912     A.U. after    7 cycles
 Optimization completed.
    -- Stationary point found.

 1\1\GINC-NODE205\FOpt\RB3LYP\6-31G(d)\C8H10O4\VSC10255\09-Dec-2020\0\\
 # opt freq B3LYP/6-31G(d) empiricaldispersion=gd3bj scf=xqc\\CID_10975
 903_JID_2988_neutraal\\0,1\C,0.9442156125,-0.075561719,-0.1718007983\C
 ,0.0176137169,1.1185322769,-0.3712379877\C,0.0593004474,2.1427336275,0
 .7365505704\C,0.4827449414,3.3257194753,0.2564655247\C,0.7234436913,3.
 1449813406,-1.2092742615\O,1.1049913887,3.9666704032,-2.0055867559\O,0
 .4280131204,1.8547806862,-1.5418007896\C,0.7145601903,4.6494375679,0.9
 032473114\C,-0.3613012766,1.7754273662,2.1005678543\O,-0.8080775074,0.

 Normal termination of Gaussian 16 at Wed Dec  9 18:25:16 2020.

 --------------------------------------------------------------------
 #N Geom=AllCheck Guess=TCheck SCRF=Check GenChk RB3LYP/6-31G(d) Freq
 --------------------------------------------------------------------

 Structure from the checkpoint file:  "JID_2988.chk"
 ------------------------------
 CID_10975903_JID_2988_neutraal
 ------------------------------
 Charge =  0 Multiplicity = 1

 SCF Done:  E(RB3LYP) =  -611.821514912     A.U. after    1 cycles

  Exact polarizability: 112.017  10.542 109.104  -0.883  -4.136  59.199
 Approx polarizability: 159.176  36.988 174.675  -4.280 -13.368  88.531

                      1                      2                      3
                      A                      A                      A
 Frequencies --     43.7681                75.5200                88.3194
 Red. masses --      2.4923                 1.3507                 3.5419
 Frc consts  --      0.0028                 0.0045                 0.0163
 IR Inten    --      1.1162                 0.0660                 3.0585

                      4                      5                      6
                      A                      A                      A
 Frequencies --    119.1898               136.2998               138.3194
 Red. masses --      3.0023                 1.8757                 2.3375
 Frc consts  --      0.0251                 0.0205                 0.0263
 IR Inten    --      1.4392                 0.4833                 2.0861

                      7                      8                      9
                      A                      A                      A
 Frequencies --    151.9851               211.1811               255.5434
 Red. masses --      2.8152                 3.0918                 1.1352
 Frc consts  --      0.0383                 0.0812                 0.0437
 IR Inten    --      2.0932                 4.2649                 1.1430

                     10                     11                     12
                      A                      A                      A
 Frequencies --    281.2703               302.4749               331.5146
 Red. masses --      3.0047                 4.7947                 4.2832
 Frc consts  --      0.1401                 0.2585                 0.2773
 IR Inten    --      1.2943                14.5884                13.5167

                     13                     14                     15
                      A                      A                      A
 Frequencies --    373.9286               410.7696               436.4981
 Red. masses --      4.5649                 5.2889                 6.5665
 Frc consts  --      0.3761                 0.5258                 0.7371
 IR Inten    --      0.2003                 4.3631                 1.2244

                     16                     17                     18
                      A                      A                      A
 Frequencies --    530.5423               609.7611               639.7485
 Red. masses --      4.8475                 4.7025                 6.1219
 Frc consts  --      0.8039                 1.0301                 1.4762
 IR Inten    --      0.9540                 2.7830                 5.9628

                     19                     20                     21
                      A                      A                      A
 Frequencies --    719.9727               754.7690               787.4318
 Red. masses --      4.2175                 6.3610                 6.0955
 Frc consts  --      1.2881                 2.1350                 2.2268
 IR Inten    --      1.8014                13.8901                12.6880

                     22                     23                     24
                      A                      A                      A
 Frequencies --    788.3736               888.1432               936.9022
 Red. masses --      6.1272                 2.8551                 3.8084
 Frc consts  --      2.2438                 1.3269                 1.9696
 IR Inten    --      6.7270                 2.8393                 5.1499

                     25                     26                     27
                      A                      A                      A
 Frequencies --    983.6492              1046.9883              1064.4810
 Red. masses --      3.0367                 2.1315                 1.5115
 Frc consts  --      1.7312                 1.3766                 1.0091
 IR Inten    --     21.2886                13.0810                 1.6778

                     28                     29                     30
                      A                      A                      A
 Frequencies --   1087.1639              1119.6935              1128.2896
 Red. masses --      4.0013                 2.4187                 2.4642
 Frc consts  --      2.7864                 1.7866                 1.8483
 IR Inten    --     78.4307                97.0817                12.6968

                     31                     32                     33
                      A                      A                      A
 Frequencies --   1135.4501              1184.9692              1187.0048
 Red. masses --      2.7265                 1.2849                 2.2430
 Frc consts  --      2.0711                 1.0630                 1.8621
 IR Inten    --     29.9506                 0.9223                 8.9651

                     34                     35                     36
                      A                      A                      A
 Frequencies --   1219.8998              1243.5744              1353.7433
 Red. masses --      1.6254                 4.5641                 1.9715
 Frc consts  --      1.4252                 4.1586                 2.1287
 IR Inten    --     12.7258               362.8356                16.4830

                     37                     38                     39
                      A                      A                      A
 Frequencies --   1366.8205              1403.2444              1428.7153
 Red. masses --      1.3372                 3.8480                 1.2534
 Frc consts  --      1.4718                 4.4643                 1.5074
 IR Inten    --     10.4760               119.1056                 9.9519

                     40                     41                     42
                      A                      A                      A
 Frequencies --   1436.0584              1494.6213              1506.9147
 Red. masses --      1.3060                 1.2725                 1.0737
 Frc consts  --      1.5868                 1.6748                 1.4365
 IR Inten    --     15.4364                17.8336                13.3543

                     43                     44                     45
                      A                      A                      A
 Frequencies --   1511.9837              1516.0929              1522.6331
 Red. masses --      1.0476                 1.0460                 1.0477
 Frc consts  --      1.4110                 1.4166                 1.4311
 IR Inten    --      6.9018                 8.5382                11.5998

                     46                     47                     48
                      A                      A                      A
 Frequencies --   1523.5450              1526.4970              1718.9085
 Red. masses --      1.0503                 1.0555                10.5310
 Frc consts  --      1.4364                 1.4492                18.3326
 IR Inten    --      2.8591                 3.7858                 3.7908

                     49                     50                     51
                      A                      A                      A
 Frequencies --   1793.0010              1861.7068              3067.0130
 Red. masses --     11.5185                12.8388                 1.0358
 Frc consts  --     21.8177                26.2180                 5.7408
 IR Inten    --    256.6749               413.8438                 7.5411

                     52                     53                     54
                      A                      A                      A
 Frequencies --   3068.4908              3071.9865              3079.6353
 Red. masses --      1.0612                 1.0574                 1.0295
 Frc consts  --      5.8870                 5.8794                 5.7527
 IR Inten    --      7.1224                18.3377                28.2838

                     55                     56                     57
                      A                      A                      A
 Frequencies --   3125.9377              3144.9872              3155.7719
 Red. masses --      1.0997                 1.1034                 1.1077
 Frc consts  --      6.3315                 6.4301                 6.4996
 IR Inten    --      6.2936                19.3784                17.2401

                     58                     59                     60
                      A                      A                      A
 Frequencies --   3157.7908              3164.4644              3189.8392
 Red. masses --      1.1036                 1.1031                 1.1074
 Frc consts  --      6.4840                 6.5084                 6.6386
 IR Inten    --      5.3053                 5.9650                12.9111

 - Thermochemistry -
 -------------------
 Temperature   298.150 Kelvin.  Pressure   1.00000 Atm.
 Atom     1 has atomic number  6 and mass  12.00000

 Molecular mass:   170.05791 amu.
 Principal axes and moments of inertia in atomic units:
                           1         2         3
     Eigenvalues --  1193.966922530.511063563.25218
           X            0.99939  -0.03496  -0.00118
           Y            0.03497   0.99935   0.00881
           Z            0.00087  -0.00884   0.99996
 This molecule is an asymmetric top.
 Rotational symmetry number  1.
 Warning -- assumption of classical behavior for rotation
           may cause significant error
 Rotational temperatures (Kelvin)      0.07254     0.03423     0.02431
 Rotational constants (GHZ):           1.51155     0.71319     0.50649
 Zero-point vibrational energy     458192.4 (Joules/Mol)
                                  109.51062 (Kcal/Mol)
 Warning -- explicit consideration of  17 degrees of freedom as
           vibrations may cause significant error
 Vibrational temperatures:     62.97   108.66   127.07   171.49   196.11
          (Kelvin)            199.01   218.67   303.84   367.67   404.69
                              435.19   476.98   538.00   591.01   628.02
                              763.33   877.31   920.46  1035.88  1085.94
                             1132.94  1134.29  1277.84  1347.99  1415.25
                             1506.38  1531.55  1564.19  1610.99  1623.36
                             1633.66  1704.91  1707.84  1755.16  1789.23
                             1947.73  1966.55  2018.96  2055.60  2066.17
                             2150.43  2168.11  2175.41  2181.32  2190.73
                             2192.04  2196.29  2473.13  2579.73  2678.58
                             4412.75  4414.87  4419.90  4430.91  4497.53
                             4524.94  4540.45  4543.36  4552.96  4589.47

 Zero-point correction=                           0.174516 (Hartree/Particle)
 Thermal correction to Energy=                    0.186875
 Thermal correction to Enthalpy=                  0.187819
 Thermal correction to Gibbs Free Energy=         0.135330
 Sum of electronic and zero-point Energies=           -611.646999
 Sum of electronic and thermal Energies=              -611.634640
 Sum of electronic and thermal Enthalpies=            -611.633696
 Sum of electronic and thermal Free Energies=         -611.686185

                     E (Thermal)             CV                S
                      KCal/Mol        Cal/Mol-Kelvin    Cal/Mol-Kelvin
 Total                  117.266             43.445            110.472
 Electronic               0.000              0.000              0.000
 Translational            0.889              2.981             41.301
 Rotational               0.889              2.981             30.755
 Vibrational            115.488             37.484             38.417
 Vibration     1          0.595              1.980              5.081
 Vibration     2          0.599              1.965              4.004
 Vibration     3          0.601              1.957              3.697
 Vibration     4          0.609              1.933              3.113
 Vibration     5          0.614              1.917              2.855
 Vibration     6          0.614              1.915              2.827
 Vibration     7          0.619              1.900              2.647
 Vibration     8          0.643              1.824              2.033
 Vibration     9          0.666              1.753              1.692
 Vibration    10          0.681              1.708              1.526
 Vibration    11          0.694              1.669              1.403
 Vibration    12          0.714              1.613              1.253
 Vibration    13          0.745              1.526              1.064
 Vibration    14          0.775              1.447              0.924
 Vibration    15          0.797              1.391              0.838
 Vibration    16          0.886              1.182              0.586
 Vibration    17          0.969              1.011              0.433

 Optimization completed.
    -- Stationary point found.

 1\1\GINC-NODE205\Freq\RB3LYP\6-31G(d)\C8H10O4\VSC10255\09-Dec-2020\0\\
 #N Geom=AllCheck Guess=TCheck SCRF=Check GenChk RB3LYP/6-31G(d) Freq\\
 CID_10975903_JID_2988_neutraal\\0,1\C,0.9442156125,-0.075561719,-0.171
 8007983\C,0.0176137169,1.1185322769,-0.3712379877\C,0.0593004474,2.142
 7336275,0.7365505704\C,0.4827449414,3.3257194753,0.2564655247\C,0.7234
 436913,3.1449813406,-1.2092742615\O,1.1049913887,3.9666704032,-2.00558
 67559\O,0.4280131204,1.8547806862,-1.5418007896\C,0.7145601903,4.64943
 75679,0.9032473114\C,-0.3613012766,1.7754273662,2.1005678543\O,-0.8080

 Normal termination of Gaussian 16 at Wed Dec  9 18:29:47 2020.

 ----------------------------------------------------------------------
 # B3LYP/6-311++G(d,p) empiricaldispersion=gd3bj scf=xqc pop=npa geom=c
 heck
 ----------------------------------------------------------------------

 --------------------------------------
 CID_10975903_JID_2988_Energie_neutraal
 --------------------------------------
 Structure from the checkpoint file:  "JID_2988.chk"
 Charge =  0 Multiplicity = 1

 SCF Done:  E(RB3LYP) =  -611.999703414     A.U. after   15 cycles
 Normal termination of Gaussian 16 at Wed Dec  9 18:31:55 2020.

 ----------------------------------------------------------------------
 # B3LYP/6-311++G(d,p) empiricaldispersion=gd3bj scf=xqc pop=npa geom=c
 heck
 ----------------------------------------------------------------------

 ------------------------------------
 CID_10975903_JID_2988_Energie_kation
 ------------------------------------
 Structure from the checkpoint file:  "JID_2988.chk"
 Charge =  1 Multiplicity = 2

 SCF Done:  E(UB3LYP) =  -611.636993583     A.U. after   33 cycles
 SCF Done:  E(UB3LYP) =  -611.636993583     a.u. after    1 cycles
 Normal termination of Gaussian 16 at Wed Dec  9 18:37:38 2020.
 Gaussian 16:  ES64L-G16RevA.03 25-Dec-2016

 -----------------------------------
 CID_10975903_JID_2988_Energie_anion
 -----------------------------------
 Structure from the checkpoint file:  "JID_2988.chk"
 Charge = -1 Multiplicity = 2

                         Standard orientation:
 ---------------------------------------------------------------------
 Center     Atomic      Atomic             Coordinates (Angstroms)
 Number     Number       Type             X           Y           Z
 ---------------------------------------------------------------------
      1          6           0       -0.797250    2.435778    0.747690
      2          6           0       -0.898578    1.364089   -0.331867
      3          6           0        0.017063    0.180502   -0.135280
      4          6           0       -0.706373   -0.943504    0.014698
      5          6           0       -2.147646   -0.557357   -0.097627
      6          8           0       -3.115650   -1.273248   -0.024586
      7          8           0       -2.220922    0.788065   -0.314284
      8          6           0       -0.320251   -2.365613    0.244499
      9          6           0        1.479317    0.364033   -0.157465
     10          8           0        2.021428    1.429437   -0.386150
     11          8           0        2.149283   -0.778889    0.096706
     12          6           0        3.582422   -0.662189    0.077402
     13          1           0       -1.556193    3.205002    0.580635
     14          1           0        0.194120    2.893736    0.715552
     15          1           0       -0.958660    1.991827    1.735175
     16          1           0       -0.749166    1.812200   -1.321311
     17          1           0        0.361037   -2.719576   -0.535097
     18          1           0        0.205191   -2.478227    1.198569
     19          1           0       -1.219213   -2.986482    0.254637
     20          1           0        3.924272   -0.329148   -0.905665
     21          1           0        3.916000    0.054254    0.832150
     22          1           0        3.957273   -1.660948    0.299574
 ---------------------------------------------------------------------

 SCF Done:  E(UB3LYP) =  -612.028985030     A.U. after   20 cycles

 The electronic state is 2-A.
 Alpha  occ. eigenvalues --  -19.01571 -18.99745 -18.93671 -18.93231 -10.12123
 Alpha  occ. eigenvalues --  -10.11591 -10.10425 -10.08721 -10.02973 -10.02079
 Alpha  occ. eigenvalues --  -10.00764 -10.00667  -0.95404  -0.93825  -0.86002
 Alpha  occ. eigenvalues --   -0.85804  -0.66594  -0.62439  -0.60137  -0.55646
 Alpha  occ. eigenvalues --   -0.50254  -0.47129  -0.41663  -0.39052  -0.35655
 Alpha  occ. eigenvalues --   -0.35046  -0.34160  -0.32567  -0.31179  -0.28985
 Alpha  occ. eigenvalues --   -0.28227  -0.27571  -0.26988  -0.25884  -0.25264
 Alpha  occ. eigenvalues --   -0.25045  -0.23491  -0.21583  -0.20903  -0.19166
 Alpha  occ. eigenvalues --   -0.16713  -0.14750  -0.13003  -0.11471  -0.10735
 Alpha  occ. eigenvalues --    0.03788
 Alpha virt. eigenvalues --    0.08288   0.10167   0.10688   0.11616   0.12275
 Alpha virt. eigenvalues --    0.12850   0.13760   0.14126   0.14714   0.14958
 Alpha virt. eigenvalues --    0.16745   0.17857   0.18246   0.18708   0.18913

  Beta  occ. eigenvalues --  -19.01453 -18.99671 -18.93279 -18.92954 -10.11891
  Beta  occ. eigenvalues --  -10.11487 -10.10432 -10.08746 -10.02939 -10.02115
  Beta  occ. eigenvalues --  -10.00498 -10.00270  -0.95055  -0.93598  -0.85535
  Beta  occ. eigenvalues --   -0.85252  -0.65954  -0.62190  -0.59910  -0.55409
  Beta  occ. eigenvalues --   -0.49969  -0.46490  -0.41375  -0.38822  -0.35278
  Beta  occ. eigenvalues --   -0.34661  -0.33837  -0.32230  -0.30787  -0.28707
  Beta  occ. eigenvalues --   -0.27878  -0.27212  -0.26618  -0.25346  -0.24958
  Beta  occ. eigenvalues --   -0.24422  -0.22796  -0.21393  -0.20644  -0.18988
  Beta  occ. eigenvalues --   -0.15376  -0.13786  -0.12622  -0.10347  -0.09040
  Beta virt. eigenvalues --    0.08255   0.09888   0.10667   0.11037   0.11613
  Beta virt. eigenvalues --    0.12234   0.12872   0.13728   0.14116   0.14705
  Beta virt. eigenvalues --    0.14926   0.16737   0.17846   0.18233   0.18688

 Mulliken charges and spin densities:
               1          2
     1  C   -0.520579   0.013112
     2  C   -0.441407  -0.019565
     3  C    0.544388   0.202389
     4  C    0.582831   0.276594
     5  C    0.170371   0.065921
     6  O   -0.448626   0.094794
     7  O   -0.110838   0.012994
     8  C   -0.803207  -0.022756
     9  C   -0.616969   0.132630
    10  O   -0.378063   0.129136
    11  O   -0.128595   0.015609
    12  C   -0.246635  -0.000507
    13  H    0.096686   0.025958
    14  H    0.167557   0.005457
    15  H    0.127856   0.000072
    16  H    0.172129   0.017578
    17  H    0.132663   0.018646
    18  H    0.122120   0.026407
    19  H    0.155171  -0.001351
    20  H    0.157311   0.002512
    21  H    0.151906   0.004959
    22  H    0.113927  -0.000588
 Sum of Mulliken charges =  -1.00000   1.00000

 Dipole moment (field-independent basis, Debye):
    X=              4.9293    Y=             -0.0232    Z=              0.6763  Tot=              4.9756
 Quadrupole moment (field-independent basis, Debye-Ang):
   XX=           -106.7756   YY=            -88.1115   ZZ=            -75.2260
   XY=            -12.4168   XZ=              0.9366   YZ=              1.4221

 Summary of Natural Population Analysis:

                                       Natural Population
                Natural  -----------------------------------------------
    Atom  No    Charge         Core      Valence    Rydberg      Total
 -----------------------------------------------------------------------
      C    1   -0.28897      0.99964     2.28349    0.00584     3.28897
      C    2    0.06514      0.99955     1.92283    0.01248     2.93486
      C    3   -0.02270      0.99936     2.01213    0.01121     3.02270
      C    4    0.03343      0.99940     1.95794    0.00924     2.96657
      C    5    0.40348      0.99962     1.56969    0.02721     2.59652
      O    6   -0.29560      0.99986     3.28915    0.00659     4.29560
      O    7   -0.28635      0.99986     3.27730    0.00920     4.28635
      C    8   -0.30160      0.99964     2.29703    0.00492     3.30160
      C    9    0.41969      0.99962     1.55770    0.02300     2.58031
      O   10   -0.29582      0.99988     3.29004    0.00591     4.29582
      O   11   -0.27519      0.99986     3.26644    0.00889     4.27519
      C   12   -0.10570      0.99961     2.09767    0.00841     3.10570
      H   13    0.09157      0.00000     0.40683    0.00161     0.40843
      H   14    0.10865      0.00000     0.38977    0.00157     0.39135
      H   15    0.09635      0.00000     0.40210    0.00155     0.40365
      H   16    0.08872      0.00000     0.40932    0.00195     0.41128
      H   17    0.10356      0.00000     0.39533    0.00111     0.39644
      H   18    0.10343      0.00000     0.39544    0.00113     0.39657
      H   19    0.10412      0.00000     0.39465    0.00123     0.39588
      H   20    0.08607      0.00000     0.41264    0.00129     0.41393
      H   21    0.08614      0.00000     0.41258    0.00128     0.41386
      H   22    0.08158      0.00000     0.41758    0.00085     0.41842
 =======================================================================
   * Total *   -0.00000     11.99591    32.85761    0.14648    45.00000

 Normal termination of Gaussian 16 at Wed Dec  9 18:41:09 2020.
