 Gaussian 16, Revision A.03,

 -----------------------------------------------------------
 # opt freq B3LYP/6-31G(d) empiricaldispersion=gd3bj scf=xqc
 -----------------------------------------------------------

 ------------------------------
 CID_62456677_JID_9934_neutraal
 ------------------------------
 Symbolic Z-matrix:
 Charge =  0 Multiplicity = 1

 SCF Done:  E(RB3LYP) =  -875.663731731     A.U. after   15 cycles
 SCF Done:  E(RB3LYP) =  -875.606353282     A.U. after   14 cycles
 SCF Done:  E(RB3LYP) =  -875.669527716     A.U. after   12 cycles
 SCF Done:  E(RB3LYP) =  -875.670478196     A.U. after   13 cycles
 SCF Done:  E(RB3LYP) =  -875.670637614     A.U. after   13 cycles
 SCF Done:  E(RB3LYP) =  -875.670903123     A.U. after   12 cycles
 SCF Done:  E(RB3LYP) =  -875.671013353     A.U. after   11 cycles
 SCF Done:  E(RB3LYP) =  -875.671051782     A.U. after   11 cycles
 SCF Done:  E(RB3LYP) =  -875.671087298     A.U. after   10 cycles
 SCF Done:  E(RB3LYP) =  -875.671101070     A.U. after   10 cycles
 SCF Done:  E(RB3LYP) =  -875.671179858     A.U. after   10 cycles
 SCF Done:  E(RB3LYP) =  -875.671183054     A.U. after   11 cycles
 SCF Done:  E(RB3LYP) =  -875.671183772     A.U. after    8 cycles
 SCF Done:  E(RB3LYP) =  -875.671184720     A.U. after    9 cycles
 SCF Done:  E(RB3LYP) =  -875.671184803     A.U. after    7 cycles
 SCF Done:  E(RB3LYP) =  -875.671184861     A.U. after    7 cycles
 Optimization completed.
    -- Stationary point found.
 Normal termination of Gaussian 16 at Sat Dec 12 10:28:14 2020.

 --------------------------------------------------------------------
 #N Geom=AllCheck Guess=TCheck SCRF=Check GenChk RB3LYP/6-31G(d) Freq
 --------------------------------------------------------------------

 Structure from the checkpoint file:  "JID_9934.chk"
 ------------------------------
 CID_62456677_JID_9934_neutraal
 ------------------------------
 Charge =  0 Multiplicity = 1

 SCF Done:  E(RB3LYP) =  -875.671184861     A.U. after    1 cycles

  Exact polarizability: 178.718  31.795 169.033 -10.286  15.150 128.607
 Approx polarizability: 261.422  52.424 251.245 -33.708  39.337 231.437

                      1                      2                      3
                      A                      A                      A
 Frequencies --     17.4431                28.2718                41.7036
 Red. masses --      5.0266                 3.2459                 3.3546
 Frc consts  --      0.0009                 0.0015                 0.0034
 IR Inten    --      0.9689                 2.7006                 2.2714

                      4                      5                      6
                      A                      A                      A
 Frequencies --     43.9329                73.5649                87.6234
 Red. masses --      4.9510                 3.9440                 5.2816
 Frc consts  --      0.0056                 0.0126                 0.0239
 IR Inten    --      2.1795                 1.9314                11.4137

                      7                      8                      9
                      A                      A                      A
 Frequencies --    101.0268               128.5338               146.2493
 Red. masses --      3.7163                 4.6481                 3.8685
 Frc consts  --      0.0223                 0.0452                 0.0488
 IR Inten    --      0.6540                 2.5835                 2.5027

                     10                     11                     12
                      A                      A                      A
 Frequencies --    161.6929               195.2879               226.6717
 Red. masses --      4.3791                 2.0955                 1.6378
 Frc consts  --      0.0675                 0.0471                 0.0496
 IR Inten    --      1.6354                10.5674                28.3220

                     13                     14                     15
                      A                      A                      A
 Frequencies --    244.5849               263.5441               273.0198
 Red. masses --      2.9545                 1.2281                 2.4397
 Frc consts  --      0.1041                 0.0503                 0.1071
 IR Inten    --      4.9913                 4.5172                10.4007

                     16                     17                     18
                      A                      A                      A
 Frequencies --    331.1630               337.8024               353.3830
 Red. masses --      3.1632                 2.6601                 2.8038
 Frc consts  --      0.2044                 0.1788                 0.2063
 IR Inten    --      4.9577                 6.8673                 6.9567

                     19                     20                     21
                      A                      A                      A
 Frequencies --    400.6915               408.1245               427.2429
 Red. masses --      5.1865                 2.4065                 4.2838
 Frc consts  --      0.4906                 0.2362                 0.4607
 IR Inten    --      0.8744                10.1754                 2.0143

                     22                     23                     24
                      A                      A                      A
 Frequencies --    433.3303               477.1084               513.4921
 Red. masses --      3.8909                 4.3948                 2.6494
 Frc consts  --      0.4305                 0.5894                 0.4116
 IR Inten    --      0.6490                 3.8235                15.3760

                     25                     26                     27
                      A                      A                      A
 Frequencies --    531.8944               595.8591               623.5733
 Red. masses --      2.8266                 3.6271                 3.5466
 Frc consts  --      0.4712                 0.7588                 0.8125
 IR Inten    --      7.6693                17.1590                 4.5936

                     28                     29                     30
                      A                      A                      A
 Frequencies --    654.1247               667.7248               714.8040
 Red. masses --      6.9034                 4.4883                 3.8037
 Frc consts  --      1.7403                 1.1790                 1.1451
 IR Inten    --      1.7324                 1.5263                 0.8839

                     31                     32                     33
                      A                      A                      A
 Frequencies --    720.8691               752.5182               764.3005
 Red. masses --      5.1150                 2.1603                 4.3303
 Frc consts  --      1.5661                 0.7208                 1.4904
 IR Inten    --      3.2960                 9.7897                 6.8509

                     34                     35                     36
                      A                      A                      A
 Frequencies --    791.5536               829.7882               838.5828
 Red. masses --      1.9368                 1.6065                 1.7751
 Frc consts  --      0.7150                 0.6517                 0.7355
 IR Inten    --     40.8078                24.9108                 7.5850

                     37                     38                     39
                      A                      A                      A
 Frequencies --    850.8536               860.0382               862.9248
 Red. masses --      1.9031                 3.1724                 1.3936
 Frc consts  --      0.8118                 1.3825                 0.6114
 IR Inten    --     66.4764                 9.9410                97.0989

                     40                     41                     42
                      A                      A                      A
 Frequencies --    957.3746               972.9930               976.5711
 Red. masses --      1.3133                 1.2935                 2.9890
 Frc consts  --      0.7092                 0.7215                 1.6795
 IR Inten    --      4.8128                 0.4003                13.4857

                     43                     44                     45
                      A                      A                      A
 Frequencies --    989.0538              1001.3703              1032.8372
 Red. masses --      2.0505                 2.0497                 2.7850
 Frc consts  --      1.1818                 1.2110                 1.7504
 IR Inten    --      8.1397                40.8744                 6.5761

                     46                     47                     48
                      A                      A                      A
 Frequencies --   1035.9962              1044.2404              1059.4593
 Red. masses --      3.3059                 2.6469                 3.0389
 Frc consts  --      2.0905                 1.7005                 2.0097
 IR Inten    --      3.7606                14.3077                25.4595

                     49                     50                     51
                      A                      A                      A
 Frequencies --   1080.1339              1083.2904              1088.7971
 Red. masses --      2.8650                 5.8068                 2.3417
 Frc consts  --      1.9694                 4.0149                 1.6356
 IR Inten    --      6.1225                45.2284                12.4923

                     52                     53                     54
                      A                      A                      A
 Frequencies --   1139.8996              1146.9920              1159.0032
 Red. masses --      2.8187                 1.3288                 2.7053
 Frc consts  --      2.1579                 1.0300                 2.1411
 IR Inten    --     62.9510                 8.1252                60.5138

                     55                     56                     57
                      A                      A                      A
 Frequencies --   1174.6872              1186.7192              1212.4668
 Red. masses --      1.5769                 1.2724                 1.3210
 Frc consts  --      1.2820                 1.0558                 1.1442
 IR Inten    --      9.4918                 0.8448                16.8704

                     58                     59                     60
                      A                      A                      A
 Frequencies --   1214.4169              1220.2761              1242.1552
 Red. masses --      1.2905                 1.3750                 3.0689
 Frc consts  --      1.1214                 1.2064                 2.7899
 IR Inten    --      6.2493                11.7096                11.2364

                     61                     62                     63
                      A                      A                      A
 Frequencies --   1292.1001              1297.4597              1303.3958
 Red. masses --      3.3792                 3.0537                 1.7093
 Frc consts  --      3.3240                 3.0288                 1.7109
 IR Inten    --     26.0429               138.3808               116.6727

                     64                     65                     66
                      A                      A                      A
 Frequencies --   1312.8921              1338.6121              1351.8656
 Red. masses --      1.4895                 1.3895                 1.3795
 Frc consts  --      1.5127                 1.4670                 1.4854
 IR Inten    --      7.0513                 2.8977                21.0547

                     67                     68                     69
                      A                      A                      A
 Frequencies --   1360.5870              1368.1526              1384.5524
 Red. masses --      1.5792                 3.2969                 1.8634
 Frc consts  --      1.7225                 3.6360                 2.1046
 IR Inten    --      7.2339                17.2487                12.4726

                     70                     71                     72
                      A                      A                      A
 Frequencies --   1398.1534              1421.7350              1441.5656
 Red. masses --      1.4497                 1.3830                 1.4160
 Frc consts  --      1.6697                 1.6470                 1.7338
 IR Inten    --     12.5395                33.2633                16.7997

                     73                     74                     75
                      A                      A                      A
 Frequencies --   1453.8185              1476.9941              1484.5733
 Red. masses --      1.7346                 2.3598                 1.9582
 Frc consts  --      2.1601                 3.0330                 2.5428
 IR Inten    --     10.7789                 1.0070                11.5291

                     76                     77                     78
                      A                      A                      A
 Frequencies --   1500.1264              1510.8654              1516.2469
 Red. masses --      1.1949                 1.4639                 1.1792
 Frc consts  --      1.5843                 1.9689                 1.5972
 IR Inten    --     11.4442                12.1552                 0.6693

                     79                     80                     81
                      A                      A                      A
 Frequencies --   1520.3393              1532.4281              1535.4533
 Red. masses --      1.0479                 1.0923                 1.1052
 Frc consts  --      1.4270                 1.5114                 1.5352
 IR Inten    --      4.5833                 4.0193                23.7155

                     82                     83                     84
                      A                      A                      A
 Frequencies --   1536.1803              1569.5955              1600.8926
 Red. masses --      1.0655                 2.4077                 6.0341
 Frc consts  --      1.4814                 3.4948                 9.1115
 IR Inten    --     18.7252                76.9308                 0.9609

                     85                     86                     87
                      A                      A                      A
 Frequencies --   1639.6570              1678.8277              1692.5351
 Red. masses --      6.3878                 5.7030                 1.0942
 Frc consts  --     10.1183                 9.4704                 1.8467
 IR Inten    --     16.8996                63.4785                27.4838

                     88                     89                     90
                      A                      A                      A
 Frequencies --   2952.4948              3022.7908              3028.7501
 Red. masses --      1.0737                 1.0355                 1.0667
 Frc consts  --      5.5144                 5.5745                 5.7655
 IR Inten    --     91.8701                49.4662                32.5994

                     91                     92                     93
                      A                      A                      A
 Frequencies --   3055.2271              3069.9851              3081.0519
 Red. masses --      1.0582                 1.0684                 1.1058
 Frc consts  --      5.8198                 5.9325                 6.1850
 IR Inten    --     30.7720                19.0691                45.9932

                     94                     95                     96
                      A                      A                      A
 Frequencies --   3094.7461              3097.2317              3105.3239
 Red. masses --      1.1078                 1.0878                 1.0962
 Frc consts  --      6.2513                 6.1484                 6.2280
 IR Inten    --     20.1555                14.7596                52.4833

                     97                     98                     99
                      A                      A                      A
 Frequencies --   3152.3125              3159.0377              3192.8814
 Red. masses --      1.0981                 1.0995                 1.0879
 Frc consts  --      6.4292                 6.4651                 6.5345
 IR Inten    --      2.5731                28.7111                 6.5975

                    100                    101                    102
                      A                      A                      A
 Frequencies --   3207.5303              3215.0911              3229.2816
 Red. masses --      1.0889                 1.0937                 1.0920
 Frc consts  --      6.6005                 6.6612                 6.7093
 IR Inten    --      3.2870                 9.0721                 8.3576

                    103                    104                    105
                      A                      A                      A
 Frequencies --   3292.4356              3457.6477              3546.8548
 Red. masses --      1.0989                 1.0495                 1.0927
 Frc consts  --      7.0186                 7.3922                 8.0990
 IR Inten    --      0.1129                 3.8322                 1.8579

 - Thermochemistry -
 -------------------
 Temperature   298.150 Kelvin.  Pressure   1.00000 Atm.
 Atom     1 has atomic number  6 and mass  12.00000

 Molecular mass:   262.14298 amu.
 Principal axes and moments of inertia in atomic units:
                           1         2         3
     Eigenvalues --  4307.178475226.743888401.45941
           X            0.99353   0.11318   0.00972
           Y           -0.11316   0.99357  -0.00308
           Z           -0.01001   0.00196   0.99995
 This molecule is an asymmetric top.
 Rotational symmetry number  1.
 Warning -- assumption of classical behavior for rotation
           may cause significant error
 Rotational temperatures (Kelvin)      0.02011     0.01657     0.01031
 Rotational constants (GHZ):           0.41901     0.34529     0.21481
 Zero-point vibrational energy     815099.0 (Joules/Mol)
                                  194.81334 (Kcal/Mol)
 Warning -- explicit consideration of  26 degrees of freedom as
           vibrations may cause significant error
 Vibrational temperatures:     25.10    40.68    60.00    63.21   105.84
          (Kelvin)            126.07   145.36   184.93   210.42   232.64
                              280.98   326.13   351.90   379.18   392.81
                              476.47   486.02   508.44   576.51   587.20
                              614.71   623.47   686.45   738.80   765.28
                              857.31   897.18   941.14   960.71  1028.44
                             1037.17  1082.71  1099.66  1138.87  1193.88
                             1206.53  1224.19  1237.40  1241.56  1377.45
                             1399.92  1405.07  1423.03  1440.75  1486.02
                             1490.57  1502.43  1524.33  1554.07  1558.61
                             1566.54  1640.06  1650.27  1667.55  1690.11
                             1707.42  1744.47  1747.28  1755.71  1787.18
                             1859.04  1866.76  1875.30  1888.96  1925.96
                             1945.03  1957.58  1968.47  1992.06  2011.63
                             2045.56  2074.09  2091.72  2125.07  2135.97
                             2158.35  2173.80  2181.54  2187.43  2204.82
                             2209.17  2210.22  2258.30  2303.33  2359.10
                             2415.46  2435.18  4247.98  4349.12  4357.70
                             4395.79  4417.02  4432.95  4452.65  4456.23
                             4467.87  4535.47  4545.15  4593.84  4614.92
                             4625.80  4646.22  4737.08  4974.78  5103.13

 Zero-point correction=                           0.310455 (Hartree/Particle)
 Thermal correction to Energy=                    0.328562
 Thermal correction to Enthalpy=                  0.329506
 Thermal correction to Gibbs Free Energy=         0.261806
 Sum of electronic and zero-point Energies=           -875.360730
 Sum of electronic and thermal Energies=              -875.342623
 Sum of electronic and thermal Enthalpies=            -875.341679
 Sum of electronic and thermal Free Energies=         -875.409379

                     E (Thermal)             CV                S
                      KCal/Mol        Cal/Mol-Kelvin    Cal/Mol-Kelvin
 Total                  206.176             67.582            142.487
 Electronic               0.000              0.000              0.000
 Translational            0.889              2.981             42.591
 Rotational               0.889              2.981             33.603
 Vibrational            204.398             61.621             66.294
 Vibration     1          0.593              1.986              6.906
 Vibration     2          0.593              1.984              5.947
 Vibration     3          0.594              1.981              5.176
 Vibration     4          0.595              1.980              5.073
 Vibration     5          0.599              1.966              4.056
 Vibration     6          0.601              1.958              3.712
 Vibration     7          0.604              1.948              3.434
 Vibration     8          0.611              1.925              2.968
 Vibration     9          0.617              1.907              2.720
 Vibration    10          0.622              1.889              2.530
 Vibration    11          0.636              1.846              2.177
 Vibration    12          0.650              1.800              1.905
 Vibration    13          0.660              1.772              1.769
 Vibration    14          0.670              1.740              1.638
 Vibration    15          0.676              1.723              1.577
 Vibration    16          0.714              1.613              1.254
 Vibration    17          0.718              1.600              1.223
 Vibration    18          0.730              1.568              1.151
 Vibration    19          0.767              1.469              0.960
 Vibration    20          0.773              1.453              0.933
 Vibration    21          0.789              1.411              0.868
 Vibration    22          0.794              1.398              0.848
 Vibration    23          0.834              1.301              0.718
 Vibration    24          0.869              1.220              0.625
 Vibration    25          0.887              1.179              0.583
 Vibration    26          0.954              1.041              0.457

                           ! Non-Optimized Parameters !
 Normal termination of Gaussian 16 at Sat Dec 12 10:49:18 2020.

 ----------------------------------------------------------------------
 # B3LYP/6-311++G(d,p) empiricaldispersion=gd3bj scf=xqc pop=npa geom=c
 heck
 ----------------------------------------------------------------------

 --------------------------------------
 CID_62456677_JID_9934_Energie_neutraal
 --------------------------------------
 Structure from the checkpoint file:  "JID_9934.chk"
 Charge =  0 Multiplicity = 1

 SCF Done:  E(RB3LYP) =  -875.917180944     A.U. after   16 cycles
 Normal termination of Gaussian 16 at Sat Dec 12 10:59:02 2020.

 ----------------------------------------------------------------------
 # B3LYP/6-311++G(d,p) empiricaldispersion=gd3bj scf=xqc pop=npa geom=c
 heck
 ----------------------------------------------------------------------

 ------------------------------------
 CID_62456677_JID_9934_Energie_kation
 ------------------------------------
 Structure from the checkpoint file:  "JID_9934.chk"
 Charge =  1 Multiplicity = 2

 SCF Done:  E(UB3LYP) =  -875.626332582     A.U. after   28 cycles
 Normal termination of Gaussian 16 at Sat Dec 12 11:23:22 2020.
 Gaussian 16:  ES64L-G16RevA.03 25-Dec-2016

 ----------------------------------------------------------------------
 # B3LYP/6-311++G(d,p) empiricaldispersion=gd3bj scf=xqc pop=npa geom=c
 heck
 ----------------------------------------------------------------------

 -----------------------------------
 CID_62456677_JID_9934_Energie_anion
 -----------------------------------
 Structure from the checkpoint file:  "JID_9934.chk"
 Charge = -1 Multiplicity = 2

                         Standard orientation:
 ---------------------------------------------------------------------
 Center     Atomic      Atomic             Coordinates (Angstroms)
 Number     Number       Type             X           Y           Z
 ---------------------------------------------------------------------
      1          6           0        4.466175    0.803332   -0.020864
      2          8           0        3.933679   -0.399181   -0.548729
      3          6           0        2.703707   -0.796331   -0.108591
      4          6           0        2.212771   -1.987525   -0.665540
      5          6           0        0.967879   -2.469376   -0.287861
      6          6           0        0.175813   -1.775747    0.640365
      7          6           0        0.675852   -0.595532    1.186614
      8          6           0        1.933018   -0.101557    0.827804
      9          6           0       -1.185074   -2.294683    1.040831
     10          8           0       -1.965931   -2.796968   -0.051357
     11          6           0       -2.203320   -1.911488   -1.124551
     12          6           0       -3.058433   -0.680240   -0.787748
     13          7           0       -2.298856    0.446574   -0.260363
     14          6           0       -1.343325    1.187464   -0.873460
     15          6           0       -0.937913    2.097884    0.080623
     16          7           0       -1.661910    1.864880    1.216218
     17          7           0       -2.481957    0.868749    1.012234
     18          6           0        0.103634    3.168685   -0.004985
     19          7           0       -0.439974    4.396701   -0.606515
     20          1           0        5.438463    0.937185   -0.497952
     21          1           0        4.599751    0.742141    1.067138
     22          1           0        3.824376    1.663963   -0.254001
     23          1           0        2.828659   -2.512721   -1.388636
     24          1           0        0.588561   -3.389093   -0.725015
     25          1           0        0.071516   -0.031699    1.890291
     26          1           0        2.285957    0.821483    1.271995
     27          1           0       -1.092398   -3.161613    1.704274
     28          1           0       -1.734455   -1.517119    1.584756
     29          1           0       -1.261514   -1.584308   -1.588497
     30          1           0       -2.750648   -2.508707   -1.860707
     31          1           0       -3.577375   -0.344195   -1.692574
     32          1           0       -3.807514   -0.928496   -0.033052
     33          1           0       -1.023774    0.999557   -1.886903
     34          1           0        0.417804    3.407141    1.016211
     35          1           0        0.985518    2.759180   -0.530468
     36          1           0        0.294668    5.101753   -0.653721
     37          1           0       -0.715395    4.207082   -1.569288
 ---------------------------------------------------------------------

 SCF Done:  E(UB3LYP) =  -875.911448010     A.U. after   32 cycles

 The electronic state is 2-A.
 Alpha  occ. eigenvalues --  -19.07072 -19.04546 -14.30830 -14.26958 -14.23336
 Alpha  occ. eigenvalues --  -14.19911 -10.15172 -10.13935 -10.13610 -10.13487
 Alpha  occ. eigenvalues --  -10.13444 -10.11731 -10.10532 -10.10251 -10.09277
 Alpha  occ. eigenvalues --  -10.09054 -10.08993 -10.08942 -10.08861  -1.00197
 Alpha  occ. eigenvalues --   -0.98663  -0.95580  -0.82584  -0.78956  -0.77439
 Alpha  occ. eigenvalues --   -0.71266  -0.69705  -0.67729  -0.66701  -0.63294
 Alpha  occ. eigenvalues --   -0.60337  -0.58725  -0.54523  -0.53290  -0.50894
 Alpha  occ. eigenvalues --   -0.50226  -0.49026  -0.45328  -0.44022  -0.42332
 Alpha  occ. eigenvalues --   -0.41372  -0.40114  -0.39467  -0.38882  -0.38546
 Alpha  occ. eigenvalues --   -0.37411  -0.36758  -0.36232  -0.35200  -0.34326
 Alpha  occ. eigenvalues --   -0.33785  -0.32557  -0.32370  -0.31416  -0.30856
 Alpha  occ. eigenvalues --   -0.29219  -0.29084  -0.28144  -0.27917  -0.24879
 Alpha  occ. eigenvalues --   -0.23996  -0.23679  -0.23196  -0.20212  -0.18563
 Alpha  occ. eigenvalues --   -0.17911  -0.17588  -0.15907  -0.15108  -0.13952
 Alpha  occ. eigenvalues --    0.03597
 Alpha virt. eigenvalues --    0.05183   0.06448   0.06613   0.07019   0.07256
 Alpha virt. eigenvalues --    0.07930   0.08235   0.08525   0.08966   0.09469
 Alpha virt. eigenvalues --    0.10043   0.10254   0.10704   0.11095   0.11802

  Beta  occ. eigenvalues --  -19.07065 -19.04545 -14.30825 -14.26890 -14.23299
  Beta  occ. eigenvalues --  -14.19877 -10.15171 -10.13914 -10.13568 -10.13486
  Beta  occ. eigenvalues --  -10.13422 -10.11709 -10.10512 -10.10259 -10.09270
  Beta  occ. eigenvalues --  -10.09053 -10.08992 -10.08941 -10.08853  -1.00133
  Beta  occ. eigenvalues --   -0.98647  -0.95574  -0.82531  -0.78895  -0.77432
  Beta  occ. eigenvalues --   -0.71212  -0.69682  -0.67696  -0.66687  -0.63256
  Beta  occ. eigenvalues --   -0.60293  -0.58667  -0.54478  -0.53276  -0.50843
  Beta  occ. eigenvalues --   -0.50190  -0.48992  -0.45302  -0.43971  -0.42309
  Beta  occ. eigenvalues --   -0.41324  -0.40093  -0.39419  -0.38851  -0.38517
  Beta  occ. eigenvalues --   -0.37351  -0.36735  -0.36187  -0.35146  -0.34309
  Beta  occ. eigenvalues --   -0.33735  -0.32526  -0.32301  -0.31390  -0.30822
  Beta  occ. eigenvalues --   -0.29199  -0.29064  -0.28120  -0.27890  -0.24852
  Beta  occ. eigenvalues --   -0.23969  -0.23611  -0.23179  -0.20117  -0.18495
  Beta  occ. eigenvalues --   -0.17845  -0.17567  -0.15798  -0.15064  -0.13939
  Beta virt. eigenvalues --    0.05913   0.06313   0.06629   0.06941   0.07257
  Beta virt. eigenvalues --    0.07550   0.08263   0.08588   0.09004   0.09219
  Beta virt. eigenvalues --    0.09658   0.10377   0.10690   0.10984   0.11498

 Mulliken charges and spin densities:
               1          2
     1  C    0.685440  -1.047214
     2  O   -0.184201   0.049860
     3  C   -1.204153   0.194124
     4  C   -0.087885   0.006548
     5  C    0.080716  -0.062564
     6  C    0.862746  -0.279489
     7  C    0.005196  -0.125638
     8  C   -0.065728   0.276870
     9  C   -0.260656  -0.453717
    10  O   -0.096193   0.009563
    11  C    0.060854  -0.271992
    12  C    0.068336  -0.415649
    13  N    0.250532   0.062396
    14  C   -0.013362  -0.412632
    15  C    0.421193  -0.196983
    16  N   -0.128768   0.012867
    17  N   -0.157587   0.090356
    18  C    0.057427  -0.778211
    19  N   -0.304456  -0.013127
    20  H   -0.341562   0.515430
    21  H   -0.129324   0.281055
    22  H   -0.456184   0.630986
    23  H    0.078327   0.113809
    24  H    0.049872   0.130517
    25  H    0.132959   0.062057
    26  H    0.184356   0.030313
    27  H    0.187125  -0.000929
    28  H    0.205311  -0.022901
    29  H    0.278247  -0.152817
    30  H   -0.444532   0.646755
    31  H   -0.396003   0.585465
    32  H    0.176239   0.039148
    33  H   -0.705753   0.905714
    34  H   -0.022207   0.208160
    35  H    0.222322  -0.085097
    36  H   -0.051186   0.288025
    37  H    0.042542   0.178943
 Sum of Mulliken charges =  -1.00000   1.00000

 Dipole moment (field-independent basis, Debye):
    X=              0.5260    Y=             -5.6969    Z=              2.8484  Tot=              6.3910
 Quadrupole moment (field-independent basis, Debye-Ang):
   XX=           -185.6426   YY=           -176.6589   ZZ=           -152.5851
   XY=             -4.1457   XZ=             -2.7518   YZ=             -1.7887

 Summary of Natural Population Analysis:

                                       Natural Population
                Natural  -----------------------------------------------
    Atom  No    Charge         Core      Valence    Rydberg      Total
 -----------------------------------------------------------------------
      C    1   -0.10140      0.99960     2.09249    0.00931     3.10140
      O    2   -0.27223      0.99986     3.26266    0.00971     4.27223
      C    3    0.16110      0.99938     1.82575    0.01377     2.83890
      C    4   -0.11848      0.99952     2.10993    0.00902     3.11848
      C    5   -0.09338      0.99952     2.08432    0.00955     3.09338
      C    6   -0.05490      0.99949     2.04671    0.00870     3.05490
      C    7   -0.08769      0.99953     2.07855    0.00961     3.08769
      C    8   -0.14192      0.99952     2.13412    0.00828     3.14192
      C    9   -0.01948      0.99953     2.00830    0.01166     3.01948
      O   10   -0.29863      0.99989     3.29033    0.00841     4.29863
      C   11   -0.01754      0.99957     2.00411    0.01387     3.01754
      C   12   -0.10227      0.99959     2.09117    0.01150     3.10227
      N   13   -0.10813      0.99966     2.59352    0.01495     3.60813
      C   14   -0.01960      0.99946     2.00717    0.01296     3.01960
      C   15    0.04133      0.99955     1.94312    0.01600     2.95867
      N   16   -0.13588      0.99972     2.62291    0.01325     3.63588
      N   17   -0.04364      0.99977     2.52872    0.01515     3.54364
      C   18   -0.10455      0.99959     2.09254    0.01242     3.10455
      N   19   -0.41375      0.99977     2.90443    0.00954     3.91375
      H   20    0.09477      0.00000     0.40400    0.00123     0.40523
      H   21    0.08346      0.00000     0.41524    0.00130     0.41654
      H   22    0.08854      0.00000     0.40922    0.00224     0.41146
      H   23    0.10588      0.00000     0.39304    0.00107     0.39412
      H   24    0.10403      0.00000     0.39452    0.00145     0.39597
      H   25    0.10973      0.00000     0.38847    0.00180     0.39027
      H   26    0.10721      0.00000     0.39095    0.00184     0.39279
      H   27    0.09279      0.00000     0.40618    0.00102     0.40721
      H   28    0.09356      0.00000     0.40499    0.00145     0.40644
      H   29    0.08727      0.00000     0.41080    0.00193     0.41273
      H   30    0.09650      0.00000     0.40187    0.00163     0.40350
      H   31    0.10863      0.00000     0.38893    0.00244     0.39137
      H   32    0.11215      0.00000     0.38642    0.00142     0.38785
      H   33    0.11374      0.00000     0.38423    0.00203     0.38626
      H   34    0.09934      0.00000     0.39909    0.00157     0.40066
      H   35    0.08616      0.00000     0.41105    0.00280     0.41384
      H   36    0.17390      0.00000     0.32413    0.00196     0.32610
      H   37    0.17339      0.00000     0.32440    0.00221     0.32661
 =======================================================================
   * Total *    0.00000     18.99252    50.75840    0.24908    70.00000

 Normal termination of Gaussian 16 at Sat Dec 12 11:50:00 2020.
