 Gaussian 16, Revision A.03,

 -----------------------------------------------------------
 # opt freq B3LYP/6-31G(d) empiricaldispersion=gd3bj scf=xqc
 -----------------------------------------------------------

 -------------------------------
 CID_130031691_JID_1177_neutraal
 -------------------------------
 Symbolic Z-matrix:
 Charge =  0 Multiplicity = 1

 SCF Done:  E(RB3LYP) =  -479.578352327     A.U. after   16 cycles
 SCF Done:  E(RB3LYP) =  -479.583125983     A.U. after   13 cycles
 SCF Done:  E(RB3LYP) =  -479.583499217     A.U. after   12 cycles
 SCF Done:  E(RB3LYP) =  -479.583510689     A.U. after   10 cycles
 SCF Done:  E(RB3LYP) =  -479.583511992     A.U. after   10 cycles
 SCF Done:  E(RB3LYP) =  -479.583520008     A.U. after    9 cycles
 Optimization completed.
    -- Stationary point found.
 Normal termination of Gaussian 16 at Tue Dec  8 19:12:40 2020.

 --------------------------------------------------------------------
 #N Geom=AllCheck Guess=TCheck SCRF=Check GenChk RB3LYP/6-31G(d) Freq
 --------------------------------------------------------------------

 Structure from the checkpoint file:  "JID_1177.chk"
 -------------------------------
 CID_130031691_JID_1177_neutraal
 -------------------------------
 Charge =  0 Multiplicity = 1

 SCF Done:  E(RB3LYP) =  -479.583520008     A.U. after    1 cycles

  Exact polarizability: 127.083   2.369 100.275   0.059  -0.001  66.841
 Approx polarizability: 201.040  13.092 154.127   0.183   0.052  97.279

                      1                      2                      3
                      A                      A                      A
 Frequencies --      9.2802                81.7553               109.5868
 Red. masses --      2.7461                 4.1994                 1.2410
 Frc consts  --      0.0001                 0.0165                 0.0088
 IR Inten    --      3.6724                 0.0045                 0.0173

                      4                      5                      6
                      A                      A                      A
 Frequencies --    129.2609               189.0205               249.3001
 Red. masses --      8.6642                 2.2809                 2.1722
 Frc consts  --      0.0853                 0.0480                 0.0795
 IR Inten    --      3.3367                 1.8202                 3.0526

                      7                      8                      9
                      A                      A                      A
 Frequencies --    278.6139               279.2347               294.8673
 Red. masses --      1.4230                 1.6200                 1.3804
 Frc consts  --      0.0651                 0.0744                 0.0707
 IR Inten    --      0.2065                 0.1989                 0.0099

                     10                     11                     12
                      A                      A                      A
 Frequencies --    321.8936               328.7075               369.8548
 Red. masses --      3.0882                 3.5140                 2.0266
 Frc consts  --      0.1885                 0.2237                 0.1633
 IR Inten    --      1.9490                 0.6246                 1.2336

                     13                     14                     15
                      A                      A                      A
 Frequencies --    447.4188               507.4512               509.1653
 Red. masses --      6.6788                 4.5415                 4.5947
 Frc consts  --      0.7877                 0.6890                 0.7018
 IR Inten    --      0.6025                 0.4772                 0.4250

                     16                     17                     18
                      A                      A                      A
 Frequencies --    556.3727               572.4264               606.5126
 Red. masses --      3.6992                 4.3696                 3.5711
 Frc consts  --      0.6747                 0.8436                 0.7740
 IR Inten    --      5.2551                 3.2588                 0.6791

                     19                     20                     21
                      A                      A                      A
 Frequencies --    646.6805               677.9499               824.1059
 Red. masses --      4.7038                 3.8453                 3.2284
 Frc consts  --      1.1590                 1.0413                 1.2918
 IR Inten    --     11.9737                 0.2218                 0.3957

                     22                     23                     24
                      A                      A                      A
 Frequencies --    914.8762               918.1927               967.4853
 Red. masses --      2.1981                 2.1295                 1.4276
 Frc consts  --      1.0840                 1.0578                 0.7873
 IR Inten    --      3.4711                 2.6842                 0.0391

                     25                     26                     27
                      A                      A                      A
 Frequencies --    980.7858              1032.2836              1032.8794
 Red. masses --      1.8942                 1.4246                 3.9911
 Frc consts  --      1.0735                 0.8944                 2.5087
 IR Inten    --      1.5737                 1.4701                12.5278

                     28                     29                     30
                      A                      A                      A
 Frequencies --   1072.4857              1085.9142              1124.8119
 Red. masses --      1.6182                 3.2041                 1.6247
 Frc consts  --      1.0966                 2.2261                 1.2111
 IR Inten    --      1.3200                24.0825                 1.4168

                     31                     32                     33
                      A                      A                      A
 Frequencies --   1150.5490              1235.1581              1266.6450
 Red. masses --      2.1267                 1.8925                 1.8746
 Frc consts  --      1.6587                 1.7011                 1.7720
 IR Inten    --     20.2922                 0.1210                 0.5975

                     34                     35                     36
                      A                      A                      A
 Frequencies --   1269.9218              1322.2590              1339.4614
 Red. masses --      3.5121                 2.3625                 3.9394
 Frc consts  --      3.3371                 2.4336                 4.1642
 IR Inten    --     47.2241                13.9032                30.1467

                     37                     38                     39
                      A                      A                      A
 Frequencies --   1425.3971              1439.6288              1448.1835
 Red. masses --      1.2102                 1.3164                 1.2030
 Frc consts  --      1.4488                 1.6074                 1.4865
 IR Inten    --      4.0868                18.5135                 0.4425

                     40                     41                     42
                      A                      A                      A
 Frequencies --   1485.4122              1503.6439              1504.6978
 Red. masses --      1.0866                 1.0829                 1.0497
 Frc consts  --      1.4125                 1.4426                 1.4003
 IR Inten    --      7.5348                14.3903                13.4483

                     43                     44                     45
                      A                      A                      A
 Frequencies --   1516.3436              1526.5257              1536.5411
 Red. masses --      1.0466                 1.0482                 1.0544
 Frc consts  --      1.4178                 1.4391                 1.4668
 IR Inten    --      0.2468                 0.0300                 4.8554

                     46                     47                     48
                      A                      A                      A
 Frequencies --   1540.3583              1678.8093              1830.8151
 Red. masses --      1.0569                 8.0196                12.9529
 Frc consts  --      1.4775                13.3169                25.5804
 IR Inten    --      6.2699                61.3094               266.0279

                     49                     50                     51
                      A                      A                      A
 Frequencies --   2353.3678              3050.6525              3050.8183
 Red. masses --     12.6739                 1.0368                 1.0350
 Frc consts  --     41.3562                 5.6849                 5.6759
 IR Inten    --     20.8743                 5.2916                15.6603

                     52                     53                     54
                      A                      A                      A
 Frequencies --   3055.5732              3076.3294              3102.1216
 Red. masses --      1.0360                 1.0609                 1.0987
 Frc consts  --      5.6988                 5.9154                 6.2295
 IR Inten    --     25.0821                 4.9156                 9.0303

                     55                     56                     57
                      A                      A                      A
 Frequencies --   3115.3410              3123.1710              3125.3551
 Red. masses --      1.1036                 1.1034                 1.1031
 Frc consts  --      6.3107                 6.3412                 6.3481
 IR Inten    --      3.5027                 4.2638                13.2797

                     58                     59                     60
                      A                      A                      A
 Frequencies --   3126.1021              3128.0975              3152.5042
 Red. masses --      1.1030                 1.1021                 1.1010
 Frc consts  --      6.3511                 6.3539                 6.4468
 IR Inten    --     27.7590                43.2592                 4.6944

 - Thermochemistry -
 -------------------
 Temperature   298.150 Kelvin.  Pressure   1.00000 Atm.
 Atom     1 has atomic number  6 and mass  12.00000

 Molecular mass:   149.08406 amu.
 Principal axes and moments of inertia in atomic units:
                           1         2         3
     Eigenvalues --  1134.129931895.065572619.32929
           X            0.99999   0.00410  -0.00003
           Y           -0.00410   0.99999   0.00011
           Z            0.00003  -0.00011   1.00000
 This molecule is an asymmetric top.
 Rotational symmetry number  1.
 Warning -- assumption of classical behavior for rotation
           may cause significant error
 Rotational temperatures (Kelvin)      0.07637     0.04570     0.03307
 Rotational constants (GHZ):           1.59130     0.95234     0.68901
 Zero-point vibrational energy     476107.5 (Joules/Mol)
                                  113.79242 (Kcal/Mol)
 Warning -- explicit consideration of  18 degrees of freedom as
           vibrations may cause significant error
 Vibrational temperatures:     13.35   117.63   157.67   185.98   271.96
          (Kelvin)            358.69   400.86   401.76   424.25   463.13
                              472.94   532.14   643.74   730.11   732.58
                              800.50   823.59   872.64   930.43   975.42
                             1185.70  1316.30  1321.07  1392.00  1411.13
                             1485.23  1486.08  1543.07  1562.39  1618.35
                             1655.38  1777.12  1822.42  1827.13  1902.44
                             1927.19  2050.83  2071.30  2083.61  2137.18
                             2163.41  2164.92  2181.68  2196.33  2210.74
                             2216.23  2415.43  2634.13  3385.97  4389.21
                             4389.45  4396.29  4426.15  4463.26  4482.28
                             4493.55  4496.69  4497.76  4500.63  4535.75

 Zero-point correction=                           0.181340 (Hartree/Particle)
 Thermal correction to Energy=                    0.192777
 Thermal correction to Enthalpy=                  0.193721
 Thermal correction to Gibbs Free Energy=         0.142879
 Sum of electronic and zero-point Energies=           -479.402180
 Sum of electronic and thermal Energies=              -479.390743
 Sum of electronic and thermal Enthalpies=            -479.389799
 Sum of electronic and thermal Free Energies=         -479.440641

                     E (Thermal)             CV                S
                      KCal/Mol        Cal/Mol-Kelvin    Cal/Mol-Kelvin
 Total                  120.969             41.941            107.007
 Electronic               0.000              0.000              0.000
 Translational            0.889              2.981             40.908
 Rotational               0.889              2.981             30.111
 Vibrational            119.192             35.979             35.988
 Vibration     1          0.593              1.987              8.159
 Vibration     2          0.600              1.962              3.848
 Vibration     3          0.606              1.942              3.276
 Vibration     4          0.612              1.924              2.957
 Vibration     5          0.633              1.855              2.237
 Vibration     6          0.662              1.764              1.736
 Vibration     7          0.679              1.713              1.542
 Vibration     8          0.680              1.712              1.538
 Vibration     9          0.689              1.683              1.446
 Vibration    10          0.707              1.632              1.300
 Vibration    11          0.712              1.618              1.266
 Vibration    12          0.742              1.534              1.080
 Vibration    13          0.807              1.367              0.804
 Vibration    14          0.863              1.233              0.640
 Vibration    15          0.864              1.230              0.636
 Vibration    16          0.912              1.126              0.531
 Vibration    17          0.929              1.091              0.500
 Vibration    18          0.965              1.018              0.439

                           ! Non-Optimized Parameters !
 Normal termination of Gaussian 16 at Tue Dec  8 19:17:22 2020.

 ----------------------------------------------------------------------
 # B3LYP/6-311++G(d,p) empiricaldispersion=gd3bj scf=xqc pop=npa geom=c
 heck
 ----------------------------------------------------------------------

 ---------------------------------------
 CID_130031691_JID_1177_Energie_neutraal
 ---------------------------------------
 Structure from the checkpoint file:  "JID_1177.chk"
 Charge =  0 Multiplicity = 1

 SCF Done:  E(RB3LYP) =  -479.716791813     A.U. after   15 cycles
 Normal termination of Gaussian 16 at Tue Dec  8 19:19:27 2020.

 ----------------------------------------------------------------------
 # B3LYP/6-311++G(d,p) empiricaldispersion=gd3bj scf=xqc pop=npa geom=c
 heck
 ----------------------------------------------------------------------

 -------------------------------------
 CID_130031691_JID_1177_Energie_kation
 -------------------------------------
 Structure from the checkpoint file:  "JID_1177.chk"
 Charge =  1 Multiplicity = 2

 SCF Done:  E(UB3LYP) =  -479.370370427     A.U. after   33 cycles
 SCF Done:  E(UB3LYP) =  -479.370370427     a.u. after    1 cycles
 Normal termination of Gaussian 16 at Tue Dec  8 19:25:48 2020.
 Gaussian 16:  ES64L-G16RevA.03 25-Dec-2016

 ----------------------------------------------------------------------
 # B3LYP/6-311++G(d,p) empiricaldispersion=gd3bj scf=xqc pop=npa geom=c
 heck
 ----------------------------------------------------------------------

 ------------------------------------
 CID_130031691_JID_1177_Energie_anion
 ------------------------------------
 Structure from the checkpoint file:  "JID_1177.chk"
 Charge = -1 Multiplicity = 2

                         Standard orientation:
 ---------------------------------------------------------------------
 Center     Atomic      Atomic             Coordinates (Angstroms)
 Number     Number       Type             X           Y           Z
 ---------------------------------------------------------------------
      1          6           0       -0.245787   -2.273558   -0.002569
      2          6           0       -0.152290   -0.785037   -0.003446
      3          6           0        0.997294   -0.068050   -0.004045
      4          6           0        0.720251    1.395477   -0.007275
      5          8           0        1.537225    2.290179    0.001186
      6          6           0       -0.800365    1.545401   -0.026400
      7          6           0       -1.388828    0.111776   -0.000318
      8          6           0       -2.217023   -0.130027    1.277822
      9          6           0       -2.257197   -0.164606   -1.243334
     10          6           0        2.313099   -0.610555   -0.000048
     11          7           0        3.383267   -1.066263    0.003059
     12          1           0       -0.787945   -2.626934   -0.888158
     13          1           0       -0.807409   -2.626262    0.870941
     14          1           0        0.742985   -2.737714    0.008015
     15          1           0       -1.114113    2.147783    0.832490
     16          1           0       -1.090101    2.100229   -0.925370
     17          1           0       -3.072705    0.553206    1.301639
     18          1           0       -2.605756   -1.152879    1.318144
     19          1           0       -1.615318    0.044802    2.176323
     20          1           0       -1.682822   -0.022989   -2.165360
     21          1           0       -2.653451   -1.185384   -1.238632
     22          1           0       -3.108956    0.523635   -1.263245
 ---------------------------------------------------------------------

 SCF Done:  E(UB3LYP) =  -479.736697449     A.U. after   27 cycles

 The electronic state is 2-A.
 Alpha  occ. eigenvalues --  -18.92616 -14.14123 -10.07731 -10.05910 -10.04612
 Alpha  occ. eigenvalues --  -10.04577 -10.04556 -10.03341 -10.03305 -10.01629
 Alpha  occ. eigenvalues --  -10.00603  -0.86804  -0.74326  -0.71895  -0.63614
 Alpha  occ. eigenvalues --   -0.60239  -0.57373  -0.55332  -0.48221  -0.42357
 Alpha  occ. eigenvalues --   -0.39517  -0.34427  -0.33112  -0.32062  -0.30029
 Alpha  occ. eigenvalues --   -0.29034  -0.28409  -0.26961  -0.26303  -0.25960
 Alpha  occ. eigenvalues --   -0.23938  -0.22816  -0.21794  -0.21745  -0.20653
 Alpha  occ. eigenvalues --   -0.19242  -0.18891  -0.17243  -0.11086  -0.08399
 Alpha  occ. eigenvalues --    0.04451
 Alpha virt. eigenvalues --    0.07801   0.09661   0.09794   0.11443   0.12430
 Alpha virt. eigenvalues --    0.12539   0.13157   0.13193   0.14681   0.14919
 Alpha virt. eigenvalues --    0.16137   0.16194   0.16780   0.17117   0.17738

  Beta  occ. eigenvalues --  -18.92268 -14.14004 -10.07532 -10.05965 -10.04564
  Beta  occ. eigenvalues --  -10.04540 -10.04527 -10.03413 -10.03323 -10.01609
  Beta  occ. eigenvalues --   -9.99686  -0.86184  -0.74105  -0.71380  -0.63131
  Beta  occ. eigenvalues --   -0.59885  -0.57265  -0.55168  -0.47569  -0.42018
  Beta  occ. eigenvalues --   -0.38845  -0.34250  -0.32734  -0.31954  -0.29423
  Beta  occ. eigenvalues --   -0.28617  -0.28199  -0.26669  -0.26146  -0.25634
  Beta  occ. eigenvalues --   -0.23548  -0.22301  -0.21566  -0.21062  -0.20503
  Beta  occ. eigenvalues --   -0.18906  -0.17817  -0.17099  -0.08538  -0.08089
  Beta virt. eigenvalues --    0.07728   0.09636   0.09680   0.11360   0.11759
  Beta virt. eigenvalues --    0.12288   0.13070   0.13222   0.13755   0.14890
  Beta virt. eigenvalues --    0.15377   0.16104   0.16424   0.17079   0.17346

 Mulliken charges and spin densities:
               1          2
     1  C   -0.554132  -0.050567
     2  C   -0.005149   0.610677
     3  C    1.564281   0.085242
     4  C   -0.391449   0.105572
     5  O   -0.393190   0.121205
     6  C   -0.315363  -0.017438
     7  C    1.023550  -0.077147
     8  C   -0.792214  -0.002361
     9  C   -0.775674  -0.008279
    10  C   -1.418715  -0.016735
    11  N   -0.315143   0.059065
    12  H    0.106165   0.043668
    13  H    0.102253   0.045189
    14  H    0.166250   0.000578
    15  H    0.140953   0.021119
    16  H    0.137969   0.026771
    17  H    0.103150   0.026925
    18  H    0.107983  -0.000069
    19  H    0.149972  -0.001656
    20  H    0.146437  -0.000671
    21  H    0.108757   0.000962
    22  H    0.103308   0.027951
 Sum of Mulliken charges =  -1.00000   1.00000

 Dipole moment (field-independent basis, Debye):
    X=             -8.5516    Y=             -1.5820    Z=             -0.0116  Tot=              8.6967
 Quadrupole moment (field-independent basis, Debye-Ang):
   XX=           -108.0455   YY=            -89.8087   ZZ=            -73.0571
   XY=             -0.7052   XZ=             -0.0400   YZ=             -0.0043

 Summary of Natural Population Analysis:

                                       Natural Population
                Natural  -----------------------------------------------
    Atom  No    Charge         Core      Valence    Rydberg      Total
 -----------------------------------------------------------------------
      C    1   -0.31400      0.99964     2.30989    0.00447     3.31400
      C    2    0.23934      0.99945     1.74997    0.01124     2.76066
      C    3   -0.17079      0.99925     2.16073    0.01081     3.17079
      C    4    0.30651      0.99963     1.67245    0.02142     2.69349
      O    5   -0.27826      0.99987     3.27056    0.00783     4.27826
      C    6   -0.22540      0.99957     2.21766    0.00817     3.22540
      C    7   -0.06502      0.99956     2.05434    0.01112     3.06502
      C    8   -0.27272      0.99963     2.26760    0.00548     3.27272
      C    9   -0.27331      0.99963     2.26819    0.00549     3.27331
      C   10    0.16994      0.99964     1.81138    0.01903     2.83006
      N   11   -0.20815      0.99979     2.69732    0.01105     3.70815
      H   12    0.10413      0.00000     0.39480    0.00108     0.39587
      H   13    0.10364      0.00000     0.39528    0.00108     0.39636
      H   14    0.10703      0.00000     0.39210    0.00086     0.39297
      H   15    0.10302      0.00000     0.39598    0.00101     0.39698
      H   16    0.10353      0.00000     0.39547    0.00099     0.39647
      H   17    0.09144      0.00000     0.40768    0.00088     0.40856
      H   18    0.09320      0.00000     0.40595    0.00085     0.40680
      H   19    0.10060      0.00000     0.39862    0.00078     0.39940
      H   20    0.10031      0.00000     0.39891    0.00078     0.39969
      H   21    0.09334      0.00000     0.40581    0.00085     0.40666
      H   22    0.09161      0.00000     0.40751    0.00088     0.40839
 =======================================================================
   * Total *   -0.00000     10.99566    28.87821    0.12613    40.00000

 Normal termination of Gaussian 16 at Tue Dec  8 19:31:06 2020.
