 Gaussian 16, Revision A.03,

 -----------------------------------------------------------
 # opt freq B3LYP/6-31G(d) empiricaldispersion=gd3bj scf=xqc
 -----------------------------------------------------------

 ------------------------------
 CID_82427155_JID_9197_neutraal
 ------------------------------
 Symbolic Z-matrix:
 Charge =  0 Multiplicity = 1

 SCF Done:  E(RB3LYP) =  -1217.33020982     A.U. after   15 cycles
 SCF Done:  E(RB3LYP) =  -1217.34096183     A.U. after   13 cycles
 SCF Done:  E(RB3LYP) =  -1217.34431768     A.U. after   13 cycles
 SCF Done:  E(RB3LYP) =  -1217.34751385     A.U. after   13 cycles
 SCF Done:  E(RB3LYP) =  -1217.34989940     A.U. after   15 cycles
 SCF Done:  E(RB3LYP) =  -1217.35092669     A.U. after   12 cycles
 SCF Done:  E(RB3LYP) =  -1217.35131752     A.U. after   11 cycles
 SCF Done:  E(RB3LYP) =  -1217.35152801     A.U. after   12 cycles
 SCF Done:  E(RB3LYP) =  -1217.35167081     A.U. after   11 cycles
 SCF Done:  E(RB3LYP) =  -1217.35181919     A.U. after   12 cycles
 SCF Done:  E(RB3LYP) =  -1217.35214221     A.U. after    9 cycles
 SCF Done:  E(RB3LYP) =  -1217.35214281     A.U. after    7 cycles
 SCF Done:  E(RB3LYP) =  -1217.35214307     A.U. after    7 cycles
 SCF Done:  E(RB3LYP) =  -1217.35214326     A.U. after    8 cycles
 SCF Done:  E(RB3LYP) =  -1217.35214329     A.U. after    7 cycles
 Optimization completed.
    -- Stationary point found.
 Normal termination of Gaussian 16 at Sun Dec 13 12:40:53 2020.

 --------------------------------------------------------------------
 #N Geom=AllCheck Guess=TCheck SCRF=Check GenChk RB3LYP/6-31G(d) Freq
 --------------------------------------------------------------------

 Structure from the checkpoint file:  "JID_9197.chk"
 ------------------------------
 CID_82427155_JID_9197_neutraal
 ------------------------------
 Charge =  0 Multiplicity = 1

 SCF Done:  E(RB3LYP) =  -1217.35214329     A.U. after    1 cycles

  Exact polarizability: 288.662   8.481 199.476  -1.638   1.653  90.389
 Approx polarizability: 393.049  15.728 366.020  -1.456  -2.518 144.463

                      1                      2                      3
                      A                      A                      A
 Frequencies --     33.1002                40.9540                57.3697
 Red. masses --      4.3763                 4.1672                 3.0052
 Frc consts  --      0.0028                 0.0041                 0.0058
 IR Inten    --      1.1894                 1.3199                 0.8983

                      4                      5                      6
                      A                      A                      A
 Frequencies --     74.3838                87.8873               100.9416
 Red. masses --      3.8491                 4.9129                 2.5497
 Frc consts  --      0.0125                 0.0224                 0.0153
 IR Inten    --      1.2427                 1.8234                 5.1251

                      7                      8                      9
                      A                      A                      A
 Frequencies --    118.7562               128.9168               145.3070
 Red. masses --      2.5135                 1.3156                 2.2681
 Frc consts  --      0.0209                 0.0129                 0.0282
 IR Inten    --      0.7195                 0.4556                 3.2354

                     10                     11                     12
                      A                      A                      A
 Frequencies --    163.3603               191.4469               214.5298
 Red. masses --      2.0975                 4.1586                 4.2037
 Frc consts  --      0.0330                 0.0898                 0.1140
 IR Inten    --      2.7024                 5.5406                 1.6289

                     13                     14                     15
                      A                      A                      A
 Frequencies --    220.7753               238.8401               256.6790
 Red. masses --      2.3080                 3.7689                 2.7371
 Frc consts  --      0.0663                 0.1267                 0.1062
 IR Inten    --      1.1891                 0.7154                 3.3347

                     16                     17                     18
                      A                      A                      A
 Frequencies --    276.7586               289.0297               296.4323
 Red. masses --      4.3659                 2.4025                 2.9273
 Frc consts  --      0.1970                 0.1182                 0.1516
 IR Inten    --      1.3031                 0.5118                 7.6238

                     19                     20                     21
                      A                      A                      A
 Frequencies --    348.8153               375.8749               383.4085
 Red. masses --      4.7059                 4.7221                 4.7646
 Frc consts  --      0.3374                 0.3931                 0.4127
 IR Inten    --      3.7935                10.0474                 3.4938

                     22                     23                     24
                      A                      A                      A
 Frequencies --    420.4890               456.0127               487.2842
 Red. masses --      4.4364                 1.2169                 4.9250
 Frc consts  --      0.4622                 0.1491                 0.6890
 IR Inten    --     11.8778                29.6554                10.2243

                     25                     26                     27
                      A                      A                      A
 Frequencies --    513.3757               536.9075               569.8108
 Red. masses --      5.8043                 5.5665                 4.4763
 Frc consts  --      0.9013                 0.9454                 0.8563
 IR Inten    --      4.5814                 9.8817                 7.9230

                     28                     29                     30
                      A                      A                      A
 Frequencies --    577.4429               580.5616               605.9558
 Red. masses --      4.0305                 6.5262                 2.6042
 Frc consts  --      0.7918                 1.2960                 0.5634
 IR Inten    --      5.7227                 4.9575                82.9403

                     31                     32                     33
                      A                      A                      A
 Frequencies --    638.3724               648.9950               668.8189
 Red. masses --      4.2739                 3.2955                 3.6640
 Frc consts  --      1.0262                 0.8178                 0.9657
 IR Inten    --     27.9788                46.9677                39.7506

                     34                     35                     36
                      A                      A                      A
 Frequencies --    678.5257               716.1015               748.2352
 Red. masses --      3.9563                 7.0872                 2.8858
 Frc consts  --      1.0732                 2.1413                 0.9519
 IR Inten    --     12.2441                 7.3210                11.4682

                     37                     38                     39
                      A                      A                      A
 Frequencies --    755.1046               795.7806               812.4620
 Red. masses --      4.3164                 1.7975                 5.4581
 Frc consts  --      1.4501                 0.6707                 2.1227
 IR Inten    --     95.2954                37.0933                 1.1201

                     40                     41                     42
                      A                      A                      A
 Frequencies --    851.3918               859.3412               892.6323
 Red. masses --      1.8077                 2.1589                 1.3739
 Frc consts  --      0.7720                 0.9393                 0.6450
 IR Inten    --     16.5053                21.7733                 0.1552

                     43                     44                     45
                      A                      A                      A
 Frequencies --    972.0479               984.5989              1033.7349
 Red. masses --      1.2535                 5.5857                 7.3173
 Frc consts  --      0.6978                 3.1904                 4.6070
 IR Inten    --      0.6014                 3.1442                50.4358

                     46                     47                     48
                      A                      A                      A
 Frequencies --   1041.8167              1048.3582              1079.9963
 Red. masses --      2.7981                 3.5184                 1.5092
 Frc consts  --      1.7893                 2.2783                 1.0371
 IR Inten    --     33.7433                33.1937                 1.2981

                     49                     50                     51
                      A                      A                      A
 Frequencies --   1094.3465              1120.9723              1138.0836
 Red. masses --      2.6906                 1.9628                 3.7711
 Frc consts  --      1.8985                 1.4531                 2.8778
 IR Inten    --     22.1984                35.5709               111.0459

                     52                     53                     54
                      A                      A                      A
 Frequencies --   1172.5977              1184.5854              1186.7191
 Red. masses --      1.5878                 1.2537                 1.2693
 Frc consts  --      1.2863                 1.0366                 1.0532
 IR Inten    --      1.8696                 4.5106                 0.9731

                     55                     56                     57
                      A                      A                      A
 Frequencies --   1205.9574              1207.9713              1218.6692
 Red. masses --      1.7436                 1.3289                 1.4380
 Frc consts  --      1.4940                 1.1425                 1.2583
 IR Inten    --    119.0131                14.1138                 6.6472

                     58                     59                     60
                      A                      A                      A
 Frequencies --   1224.6460              1268.7961              1303.0267
 Red. masses --      1.3505                 3.2747                 2.8687
 Frc consts  --      1.1934                 3.1060                 2.8697
 IR Inten    --      9.8994                42.8784                38.1014

                     61                     62                     63
                      A                      A                      A
 Frequencies --   1315.2165              1348.1307              1378.0998
 Red. masses --      3.7199                 5.4426                 6.6451
 Frc consts  --      3.7912                 5.8280                 7.4355
 IR Inten    --    219.9690                35.6047                28.8237

                     64                     65                     66
                      A                      A                      A
 Frequencies --   1437.7069              1449.0735              1469.8488
 Red. masses --      1.3233                 2.9210                 2.2174
 Frc consts  --      1.6116                 3.6138                 2.8226
 IR Inten    --     14.1022               246.6527                33.5282

                     67                     68                     69
                      A                      A                      A
 Frequencies --   1490.6089              1500.4020              1506.3866
 Red. masses --      1.5625                 1.4587                 1.3061
 Frc consts  --      2.0455                 1.9348                 1.7462
 IR Inten    --     59.0119                14.9671                 0.0222

                     70                     71                     72
                      A                      A                      A
 Frequencies --   1512.2994              1520.2923              1521.1413
 Red. masses --      1.1068                 1.0714                 1.0486
 Frc consts  --      1.4913                 1.4590                 1.4295
 IR Inten    --     25.2189                13.4132                 6.3697

                     73                     74                     75
                      A                      A                      A
 Frequencies --   1523.3680              1532.7347              1538.8273
 Red. masses --      2.1775                 1.4347                 1.0554
 Frc consts  --      2.9773                 1.9858                 1.4724
 IR Inten    --     11.9119                95.5581                 4.6876

                     76                     77                     78
                      A                      A                      A
 Frequencies --   1541.4473              1578.8888              1637.7977
 Red. masses --      1.7982                 3.9432                 5.6914
 Frc consts  --      2.5174                 5.7917                 8.9947
 IR Inten    --     30.7435                35.5918                37.3888

                     79                     80                     81
                      A                      A                      A
 Frequencies --   1644.0074              1654.4323              1706.3457
 Red. masses --      1.4493                 6.8622                 3.5163
 Frc consts  --      2.3079                11.0665                 6.0322
 IR Inten    --    118.1965                 7.4431               179.1338

                     82                     83                     84
                      A                      A                      A
 Frequencies --   3029.6876              3052.1934              3052.9127
 Red. masses --      1.0346                 1.0429                 1.0363
 Frc consts  --      5.5953                 5.7244                 5.6909
 IR Inten    --     62.2458                27.5536                39.5469

                     85                     86                     87
                      A                      A                      A
 Frequencies --   3090.3539              3108.3781              3136.9828
 Red. masses --      1.1067                 1.0964                 1.0984
 Frc consts  --      6.2272                 6.2416                 6.3683
 IR Inten    --     39.0357                14.0595                31.8013

                     88                     89                     90
                      A                      A                      A
 Frequencies --   3163.5428              3171.6137              3173.9049
 Red. masses --      1.1002                 1.1070                 1.0997
 Frc consts  --      6.4872                 6.5610                 6.5269
 IR Inten    --     22.8679                12.7795                 2.5780

                     91                     92                     93
                      A                      A                      A
 Frequencies --   3199.7853              3231.7085              3242.8177
 Red. masses --      1.0886                 1.0912                 1.0928
 Frc consts  --      6.5670                 6.7143                 6.7709
 IR Inten    --     13.6397                10.1477                 4.8206

                     94                     95                     96
                      A                      A                      A
 Frequencies --   3483.1772              3541.5244              3654.2248
 Red. masses --      1.0751                 1.0470                 1.0992
 Frc consts  --      7.6848                 7.7369                 8.6483
 IR Inten    --      3.1463                23.7992                12.4241

 - Thermochemistry -
 -------------------
 Temperature   298.150 Kelvin.  Pressure   1.00000 Atm.
 Atom     1 has atomic number  6 and mass  12.00000

 Molecular mass:   277.08850 amu.
 Principal axes and moments of inertia in atomic units:
                           1         2         3
     Eigenvalues --  2228.828919616.59646**********
           X            0.99993  -0.01126  -0.00199
           Y            0.01128   0.99990   0.00863
           Z            0.00189  -0.00865   0.99996
 This molecule is an asymmetric top.
 Rotational symmetry number  1.
 Warning -- assumption of classical behavior for rotation
           may cause significant error
 Rotational temperatures (Kelvin)      0.03886     0.00901     0.00748
 Rotational constants (GHZ):           0.80973     0.18767     0.15585
 Zero-point vibrational energy     708691.4 (Joules/Mol)
                                  169.38132 (Kcal/Mol)
 Warning -- explicit consideration of  30 degrees of freedom as
           vibrations may cause significant error
 Vibrational temperatures:     47.62    58.92    82.54   107.02   126.45
          (Kelvin)            145.23   170.86   185.48   209.06   235.04
                              275.45   308.66   317.65   343.64   369.30
                              398.19   415.85   426.50   501.87   540.80
                              551.64   604.99   656.10   701.09   738.63
                              772.49   819.83   830.81   835.30   871.84
                              918.48   933.76   962.28   976.25  1030.31
                             1076.54  1086.43  1144.95  1168.95  1224.96
                             1236.40  1284.30  1398.56  1416.62  1487.31
                             1498.94  1508.35  1553.87  1574.52  1612.83
                             1637.45  1687.11  1704.35  1707.42  1735.10
                             1738.00  1753.39  1761.99  1825.51  1874.76
                             1892.30  1939.66  1982.78  2068.54  2084.89
                             2114.78  2144.65  2158.74  2167.35  2175.86
                             2187.36  2188.58  2191.79  2205.26  2214.03
                             2217.80  2271.67  2356.43  2365.36  2380.36
                             2455.05  4359.04  4391.43  4392.46  4446.33
                             4472.26  4513.42  4551.63  4563.24  4566.54
                             4603.78  4649.71  4665.69  5011.52  5095.46
                             5257.61

 Zero-point correction=                           0.269926 (Hartree/Particle)
 Thermal correction to Energy=                    0.288727
 Thermal correction to Enthalpy=                  0.289671
 Thermal correction to Gibbs Free Energy=         0.222304
 Sum of electronic and zero-point Energies=          -1217.082217
 Sum of electronic and thermal Energies=             -1217.063417
 Sum of electronic and thermal Enthalpies=           -1217.062473
 Sum of electronic and thermal Free Energies=        -1217.129839

                     E (Thermal)             CV                S
                      KCal/Mol        Cal/Mol-Kelvin    Cal/Mol-Kelvin
 Total                  181.179             69.900            141.785
 Electronic               0.000              0.000              0.000
 Translational            0.889              2.981             42.756
 Rotational               0.889              2.981             33.873
 Vibrational            179.401             63.938             65.157
 Vibration     1          0.594              1.983              5.634
 Vibration     2          0.594              1.981              5.212
 Vibration     3          0.596              1.975              4.546
 Vibration     4          0.599              1.966              4.034
 Vibration     5          0.601              1.958              3.707
 Vibration     6          0.604              1.948              3.436
 Vibration     7          0.609              1.934              3.121
 Vibration     8          0.611              1.924              2.962
 Vibration     9          0.617              1.908              2.733
 Vibration    10          0.623              1.887              2.511
 Vibration    11          0.634              1.852              2.214
 Vibration    12          0.644              1.819              2.005
 Vibration    13          0.647              1.809              1.953
 Vibration    14          0.657              1.781              1.812
 Vibration    15          0.666              1.751              1.684
 Vibration    16          0.678              1.716              1.554
 Vibration    17          0.686              1.694              1.480
 Vibration    18          0.690              1.680              1.437
 Vibration    19          0.726              1.578              1.172
 Vibration    20          0.747              1.522              1.056
 Vibration    21          0.753              1.506              1.026
 Vibration    22          0.783              1.426              0.890
 Vibration    23          0.814              1.348              0.778
 Vibration    24          0.843              1.278              0.691
 Vibration    25          0.868              1.220              0.626
 Vibration    26          0.892              1.168              0.572
 Vibration    27          0.926              1.097              0.505
 Vibration    28          0.934              1.080              0.490
 Vibration    29          0.937              1.073              0.484
 Vibration    30          0.965              1.019              0.440

 Optimization completed.
    -- Stationary point found.
 Normal termination of Gaussian 16 at Sun Dec 13 12:56:02 2020.

 ----------------------------------------------------------------------
 # B3LYP/6-311++G(d,p) empiricaldispersion=gd3bj scf=xqc pop=npa geom=c
 heck
 ----------------------------------------------------------------------

 --------------------------------------
 CID_82427155_JID_9197_Energie_neutraal
 --------------------------------------
 Structure from the checkpoint file:  "JID_9197.chk"
 Charge =  0 Multiplicity = 1

 SCF Done:  E(RB3LYP) =  -1217.60867855     A.U. after   17 cycles
 Normal termination of Gaussian 16 at Sun Dec 13 13:03:53 2020.

 ----------------------------------------------------------------------
 # B3LYP/6-311++G(d,p) empiricaldispersion=gd3bj scf=xqc pop=npa geom=c
 heck
 ----------------------------------------------------------------------

 ------------------------------------
 CID_82427155_JID_9197_Energie_kation
 ------------------------------------
 Structure from the checkpoint file:  "JID_9197.chk"
 Charge =  1 Multiplicity = 2

 SCF Done:  E(UB3LYP) =  -1217.32824424     A.U. after   33 cycles
 SCF Done:  E(UB3LYP) =  -1217.32824424     a.u. after    2 cycles
 Normal termination of Gaussian 16 at Sun Dec 13 13:43:33 2020.
 Gaussian 16:  ES64L-G16RevA.03 25-Dec-2016

 ----------------------------------------------------------------------
 # B3LYP/6-311++G(d,p) empiricaldispersion=gd3bj scf=xqc pop=npa geom=c
 heck
 ----------------------------------------------------------------------

 -----------------------------------
 CID_82427155_JID_9197_Energie_anion
 -----------------------------------
 Structure from the checkpoint file:  "JID_9197.chk"
 Charge = -1 Multiplicity = 2

                         Standard orientation:
 ---------------------------------------------------------------------
 Center     Atomic      Atomic             Coordinates (Angstroms)
 Number     Number       Type             X           Y           Z
 ---------------------------------------------------------------------
      1          6           0       -3.697802    2.255707   -0.382588
      2          6           0       -2.635644    1.219884   -0.155929
      3          6           0       -2.810357   -0.134918    0.040091
      4         16           0       -1.256993   -0.919130    0.205651
      5          6           0       -0.480121    0.642640   -0.013557
      6          7           0       -1.325804    1.631662   -0.182643
      7          6           0        0.970695    0.853583    0.002563
      8          6           0        1.882879   -0.205993    0.102387
      9          6           0        3.271064    0.046514    0.117480
     10          6           0        3.736184    1.357156    0.014995
     11          6           0        2.821495    2.412428   -0.088259
     12          6           0        1.458380    2.172911   -0.089140
     13          8           0        4.067960   -1.054311    0.243355
     14          6           0        5.470996   -0.851966    0.295860
     15          8           0        1.407951   -1.484701    0.245513
     16          6           0        1.645340   -2.364785   -0.862867
     17          6           0       -4.042456   -0.952031    0.095653
     18          7           0       -4.182451   -2.143406   -0.367075
     19          7           0       -5.134759   -0.327584    0.687600
     20          1           0       -3.736258    2.957216    0.460322
     21          1           0       -3.452917    2.842306   -1.274227
     22          1           0       -4.681670    1.801533   -0.504528
     23          1           0        4.799107    1.566182    0.024019
     24          1           0        3.192652    3.430163   -0.162480
     25          1           0        0.739574    2.979413   -0.164903
     26          1           0        5.846381   -0.392682   -0.627894
     27          1           0        5.752148   -0.224696    1.151308
     28          1           0        5.910707   -1.843499    0.413035
     29          1           0        1.240550   -1.935067   -1.786695
     30          1           0        2.713812   -2.561713   -0.976335
     31          1           0        1.115381   -3.289145   -0.627644
     32          1           0       -3.345455   -2.427330   -0.878296
     33          1           0       -4.927031    0.254204    1.489538
     34          1           0       -5.905194   -0.970184    0.838108
 ---------------------------------------------------------------------

 SCF Done:  E(UB3LYP) =  -1217.62479237     A.U. after   25 cycles

 The electronic state is 2-A.
 Alpha  occ. eigenvalues --  -88.71836 -19.04949 -19.01908 -14.20405 -14.14964
 Alpha  occ. eigenvalues --  -14.14380 -10.13539 -10.11682 -10.10882 -10.10227
 Alpha  occ. eigenvalues --  -10.08916 -10.07149 -10.06846 -10.04664 -10.04641
 Alpha  occ. eigenvalues --  -10.04627 -10.04390 -10.04091 -10.03196  -7.80494
 Alpha  occ. eigenvalues --   -5.76795  -5.76423  -5.76100  -0.96833  -0.93144
 Alpha  occ. eigenvalues --   -0.82728  -0.80812  -0.72601  -0.72497  -0.65632
 Alpha  occ. eigenvalues --   -0.64474  -0.64271  -0.62243  -0.59675  -0.56653
 Alpha  occ. eigenvalues --   -0.55115  -0.50763  -0.47798  -0.46903  -0.44096
 Alpha  occ. eigenvalues --   -0.43044  -0.40660  -0.39410  -0.38199  -0.37757
 Alpha  occ. eigenvalues --   -0.37312  -0.34797  -0.34442  -0.33578  -0.33110
 Alpha  occ. eigenvalues --   -0.32959  -0.31385  -0.30835  -0.29494  -0.28739
 Alpha  occ. eigenvalues --   -0.27146  -0.26747  -0.25911  -0.25211  -0.24813
 Alpha  occ. eigenvalues --   -0.23982  -0.23671  -0.21669  -0.21116  -0.20514
 Alpha  occ. eigenvalues --   -0.16088  -0.15642  -0.14594  -0.13265  -0.12639
 Alpha  occ. eigenvalues --   -0.11850  -0.10348  -0.08448   0.03640
 Alpha virt. eigenvalues --    0.06451   0.08011   0.08524   0.09146   0.09888
 Alpha virt. eigenvalues --    0.10337   0.10682   0.11257   0.11446   0.11897
 Alpha virt. eigenvalues --    0.12177   0.12300   0.12886   0.13159   0.13927

  Beta  occ. eigenvalues --  -88.71766 -19.04952 -19.01891 -14.20387 -14.14815
  Beta  occ. eigenvalues --  -14.14251 -10.13537 -10.11642 -10.10936 -10.10199
  Beta  occ. eigenvalues --  -10.08708 -10.06877 -10.06803 -10.04672 -10.04662
  Beta  occ. eigenvalues --  -10.04410 -10.04307 -10.03851 -10.03092  -7.80431
  Beta  occ. eigenvalues --   -5.76763  -5.76394  -5.75867  -0.96828  -0.93058
  Beta  occ. eigenvalues --   -0.82554  -0.80471  -0.72398  -0.72275  -0.65351
  Beta  occ. eigenvalues --   -0.64196  -0.64000  -0.62096  -0.59482  -0.56516
  Beta  occ. eigenvalues --   -0.54804  -0.50291  -0.47685  -0.46768  -0.43937
  Beta  occ. eigenvalues --   -0.42951  -0.40464  -0.39282  -0.38055  -0.37726
  Beta  occ. eigenvalues --   -0.37188  -0.34667  -0.34241  -0.33505  -0.32982
  Beta  occ. eigenvalues --   -0.32862  -0.31289  -0.30597  -0.29372  -0.28569
  Beta  occ. eigenvalues --   -0.26746  -0.26483  -0.25689  -0.24830  -0.24631
  Beta  occ. eigenvalues --   -0.23753  -0.23193  -0.21535  -0.20864  -0.20106
  Beta  occ. eigenvalues --   -0.15843  -0.15197  -0.13853  -0.12460  -0.11754
  Beta  occ. eigenvalues --   -0.11542  -0.09684  -0.07096
  Beta virt. eigenvalues --    0.06415   0.07954   0.08401   0.08768   0.09165
  Beta virt. eigenvalues --    0.09862   0.10316   0.10685   0.11424   0.11816
  Beta virt. eigenvalues --    0.12001   0.12255   0.12536   0.12936   0.13159

 Mulliken charges and spin densities:
               1          2
     1  C   -0.647604  -0.004615
     2  C   -0.341585   0.002593
     3  C    0.902188   0.137538
     4  S   -0.601210   0.118529
     5  C   -0.026691   0.147981
     6  N    0.163152   0.074605
     7  C    1.151198   0.034394
     8  C   -0.413277   0.143833
     9  C   -0.424645  -0.046096
    10  C    0.167644   0.197494
    11  C   -0.618495  -0.031182
    12  C   -0.672818   0.106510
    13  O   -0.194677   0.000379
    14  C   -0.287495  -0.001944
    15  O   -0.133724  -0.007854
    16  C   -0.199608  -0.051715
    17  C   -0.386477   0.054093
    18  N   -0.397058   0.068967
    19  N   -0.318884   0.009483
    20  H    0.147641  -0.002637
    21  H    0.139685   0.001065
    22  H    0.154524   0.005237
    23  H    0.116010  -0.015725
    24  H    0.130684   0.002137
    25  H    0.166961  -0.005609
    26  H    0.145432  -0.001229
    27  H    0.131575   0.002650
    28  H    0.148529   0.002546
    29  H    0.078145   0.040276
    30  H    0.129332   0.001047
    31  H    0.120853   0.010574
    32  H    0.184163   0.005122
    33  H    0.211575  -0.001356
    34  H    0.274956   0.002905
 Sum of Mulliken charges =  -1.00000   1.00000

 Dipole moment (field-independent basis, Debye):
    X=              5.0544    Y=              0.2386    Z=              0.4885  Tot=              5.0835
 Quadrupole moment (field-independent basis, Debye-Ang):
   XX=           -157.8224   YY=           -143.6112   ZZ=           -127.5364
   XY=            -16.5932   XZ=             -9.2280   YZ=              2.6557

 Summary of Natural Population Analysis:

                                       Natural Population
                Natural  -----------------------------------------------
    Atom  No    Charge         Core      Valence    Rydberg      Total
 -----------------------------------------------------------------------
      C    1   -0.29810      0.99963     2.29347    0.00499     3.29810
      C    2    0.06469      0.99947     1.92098    0.01485     2.93531
      C    3   -0.12682      0.99938     2.11356    0.01388     3.12682
      S    4    0.22101      4.99944     2.76022    0.01933     7.77899
      C    5    0.14425      0.99957     1.84304    0.01314     2.85575
      N    6   -0.25758      0.99966     2.74037    0.01756     3.75758
      C    7   -0.06818      0.99949     2.04960    0.01909     3.06818
      C    8    0.17889      0.99932     1.80726    0.01454     2.82111
      C    9    0.12428      0.99935     1.86474    0.01163     2.87572
      C   10   -0.10733      0.99954     2.09949    0.00830     3.10733
      C   11   -0.12306      0.99960     2.11373    0.00973     3.12306
      C   12   -0.06887      0.99946     2.06020    0.00921     3.06887
      O   13   -0.27725      0.99985     3.26772    0.00967     4.27725
      C   14   -0.09981      0.99962     2.09185    0.00834     3.09981
      O   15   -0.28754      0.99986     3.27565    0.01203     4.28754
      C   16   -0.09673      0.99960     2.08873    0.00840     3.09673
      C   17    0.20690      0.99962     1.77355    0.01992     2.79310
      N   18   -0.35519      0.99971     2.84949    0.00599     3.85519
      N   19   -0.40608      0.99971     2.89718    0.00918     3.90608
      H   20    0.09677      0.00000     0.40200    0.00124     0.40323
      H   21    0.10136      0.00000     0.39741    0.00123     0.39864
      H   22    0.10676      0.00000     0.39214    0.00110     0.39324
      H   23    0.09187      0.00000     0.40700    0.00113     0.40813
      H   24    0.09151      0.00000     0.40738    0.00111     0.40849
      H   25    0.11104      0.00000     0.38796    0.00100     0.38896
      H   26    0.08026      0.00000     0.41812    0.00161     0.41974
      H   27    0.08183      0.00000     0.41654    0.00163     0.41817
      H   28    0.08720      0.00000     0.41195    0.00085     0.41280
      H   29    0.08185      0.00000     0.41568    0.00247     0.41815
      H   30    0.08453      0.00000     0.41344    0.00203     0.41547
      H   31    0.08613      0.00000     0.41242    0.00145     0.41387
      H   32    0.16406      0.00000     0.33374    0.00220     0.33594
      H   33    0.18401      0.00000     0.31446    0.00153     0.31599
      H   34    0.18452      0.00000     0.31366    0.00182     0.31548
 =======================================================================
   * Total *    0.00119     22.99189    49.75474    0.25218    72.99881

 Normal termination of Gaussian 16 at Sun Dec 13 14:00:05 2020.
