 Gaussian 16, Revision A.03,

 -----------------------------------------------------------
 # opt freq B3LYP/6-31G(d) empiricaldispersion=gd3bj scf=xqc
 -----------------------------------------------------------

 ------------------------------
 CID_61432579_JID_9170_neutraal
 ------------------------------
 Symbolic Z-matrix:
 Charge =  0 Multiplicity = 1

 SCF Done:  E(RB3LYP) =  -843.611128407     A.U. after   15 cycles
 SCF Done:  E(RB3LYP) =  -843.614740429     A.U. after   12 cycles
 SCF Done:  E(RB3LYP) =  -843.612368834     A.U. after   12 cycles
 SCF Done:  E(RB3LYP) =  -843.615779708     A.U. after   12 cycles
 SCF Done:  E(RB3LYP) =  -843.617410704     A.U. after   13 cycles
 SCF Done:  E(RB3LYP) =  -843.618274823     A.U. after   12 cycles
 SCF Done:  E(RB3LYP) =  -843.618599115     A.U. after   12 cycles
 SCF Done:  E(RB3LYP) =  -843.618798287     A.U. after   11 cycles
 SCF Done:  E(RB3LYP) =  -843.618942815     A.U. after   11 cycles
 SCF Done:  E(RB3LYP) =  -843.619060439     A.U. after   12 cycles
 SCF Done:  E(RB3LYP) =  -843.630171347     A.U. after   11 cycles
 SCF Done:  E(RB3LYP) =  -843.630201276     A.U. after   10 cycles
 SCF Done:  E(RB3LYP) =  -843.630208477     A.U. after   10 cycles
 SCF Done:  E(RB3LYP) =  -843.630209642     A.U. after    8 cycles
 SCF Done:  E(RB3LYP) =  -843.630209913     A.U. after    8 cycles
 SCF Done:  E(RB3LYP) =  -843.630209964     A.U. after    6 cycles
 Optimization completed.
    -- Stationary point found.
 Normal termination of Gaussian 16 at Sun Dec 13 16:36:08 2020.

 --------------------------------------------------------------------
 #N Geom=AllCheck Guess=TCheck SCRF=Check GenChk RB3LYP/6-31G(d) Freq
 --------------------------------------------------------------------

 Structure from the checkpoint file:  "JID_9170.chk"
 ------------------------------
 CID_61432579_JID_9170_neutraal
 ------------------------------
 Charge =  0 Multiplicity = 1

 SCF Done:  E(RB3LYP) =  -843.630209964     A.U. after    2 cycles

  Exact polarizability: 215.065 -30.883 162.159 -15.408 -10.803 132.039
 Approx polarizability: 297.528 -57.695 254.789 -29.764 -27.485 218.995

                      1                      2                      3
                      A                      A                      A
 Frequencies --     26.6006                35.8790                55.0745
 Red. masses --      6.3753                 3.7729                 3.9604
 Frc consts  --      0.0027                 0.0029                 0.0071
 IR Inten    --      0.8979                 0.3999                 0.4988

                      4                      5                      6
                      A                      A                      A
 Frequencies --     79.5080                86.0062               128.6884
 Red. masses --      4.5676                 4.2009                 4.4938
 Frc consts  --      0.0170                 0.0183                 0.0438
 IR Inten    --      0.9898                 0.9127                 1.9471

                      7                      8                      9
                      A                      A                      A
 Frequencies --    134.5725               165.3914               216.9973
 Red. masses --      8.7209                 3.1368                 1.1132
 Frc consts  --      0.0931                 0.0506                 0.0309
 IR Inten    --      5.9685                 0.9227                 0.5268

                     10                     11                     12
                      A                      A                      A
 Frequencies --    230.6277               237.2444               246.9208
 Red. masses --      5.2812                 3.4658                 1.6938
 Frc consts  --      0.1655                 0.1149                 0.0608
 IR Inten    --      0.4739                 5.4605                 1.7717

                     13                     14                     15
                      A                      A                      A
 Frequencies --    258.7451               267.9117               322.1976
 Red. masses --      1.4910                 4.7670                 2.2990
 Frc consts  --      0.0588                 0.2016                 0.1406
 IR Inten    --      0.6883                 4.1105                 1.3987

                     16                     17                     18
                      A                      A                      A
 Frequencies --    332.1068               352.1288               364.2516
 Red. masses --      2.0379                 1.4812                 2.5448
 Frc consts  --      0.1324                 0.1082                 0.1989
 IR Inten    --     29.6503               105.4662                 3.3014

                     19                     20                     21
                      A                      A                      A
 Frequencies --    371.5699               391.5121               416.0692
 Red. masses --      3.2172                 3.6170                 2.4778
 Frc consts  --      0.2617                 0.3267                 0.2527
 IR Inten    --     10.1281                 5.2968                 1.3583

                     22                     23                     24
                      A                      A                      A
 Frequencies --    417.3287               457.1020               490.0073
 Red. masses --      2.6540                 2.1886                 3.4538
 Frc consts  --      0.2723                 0.2694                 0.4886
 IR Inten    --      1.7966                 0.8754                 7.1497

                     25                     26                     27
                      A                      A                      A
 Frequencies --    492.1153               524.7415               528.3997
 Red. masses --      4.6132                 3.8156                 3.4487
 Frc consts  --      0.6582                 0.6190                 0.5673
 IR Inten    --      7.7418                 2.7658                 3.3808

                     28                     29                     30
                      A                      A                      A
 Frequencies --    550.1558               571.7223               590.5664
 Red. masses --      6.1920                 5.9315                 2.7340
 Frc consts  --      1.1042                 1.1423                 0.5618
 IR Inten    --      4.6105                 6.4707                25.7669

                     31                     32                     33
                      A                      A                      A
 Frequencies --    646.1447               659.4566               704.0054
 Red. masses --      2.4015                 6.8135                 3.6561
 Frc consts  --      0.5907                 1.7458                 1.0676
 IR Inten    --      3.5724                 0.3429                 0.3611

                     34                     35                     36
                      A                      A                      A
 Frequencies --    739.6507               747.5303               822.7498
 Red. masses --      3.8942                 4.1329                 4.1193
 Frc consts  --      1.2552                 1.3607                 1.6429
 IR Inten    --      3.3040                 1.5204                 5.3009

                     37                     38                     39
                      A                      A                      A
 Frequencies --    843.4169               849.7646               866.1974
 Red. masses --      1.8106                 2.0674                 1.3324
 Frc consts  --      0.7588                 0.8796                 0.5890
 IR Inten    --     22.7981                 5.4435                10.2385

                     40                     41                     42
                      A                      A                      A
 Frequencies --    895.8999               920.8780               929.2810
 Red. masses --      2.1730                 2.2546                 2.0018
 Frc consts  --      1.0276                 1.1265                 1.0185
 IR Inten    --      2.3163                22.6707                 8.7201

                     43                     44                     45
                      A                      A                      A
 Frequencies --    951.7491               966.4172               985.1357
 Red. masses --      1.4349                 1.3272                 1.4991
 Frc consts  --      0.7658                 0.7303                 0.8572
 IR Inten    --      0.6362                 0.1848                 2.5222

                     46                     47                     48
                      A                      A                      A
 Frequencies --    987.2936              1008.5238              1031.2397
 Red. masses --      1.6439                 2.4110                 1.7039
 Frc consts  --      0.9441                 1.4448                 1.0676
 IR Inten    --      3.8588                54.9265                11.7860

                     49                     50                     51
                      A                      A                      A
 Frequencies --   1041.4565              1043.3081              1053.0664
 Red. masses --      2.2291                 2.6492                 1.5559
 Frc consts  --      1.4245                 1.6990                 1.0166
 IR Inten    --      3.8460                14.7158                 2.7243

                     52                     53                     54
                      A                      A                      A
 Frequencies --   1089.2207              1127.6646              1132.4972
 Red. masses --      5.1063                 2.0172                 2.2885
 Frc consts  --      3.5693                 1.5114                 1.7293
 IR Inten    --     65.2084                10.6925                47.4382

                     55                     56                     57
                      A                      A                      A
 Frequencies --   1146.8259              1161.0718              1177.7027
 Red. masses --      1.4224                 3.6048                 2.9107
 Frc consts  --      1.1022                 2.8632                 2.3786
 IR Inten    --      6.8771                75.3196                38.3819

                     58                     59                     60
                      A                      A                      A
 Frequencies --   1207.7010              1225.4964              1228.2466
 Red. masses --      1.3618                 2.0170                 2.3451
 Frc consts  --      1.1703                 1.7848                 2.0844
 IR Inten    --      0.1988                16.6685                11.6120

                     61                     62                     63
                      A                      A                      A
 Frequencies --   1233.8945              1236.8737              1261.2875
 Red. masses --      3.0890                 2.3968                 1.6261
 Frc consts  --      2.7709                 2.1604                 1.5242
 IR Inten    --      0.4904                 8.5685                18.3443

                     64                     65                     66
                      A                      A                      A
 Frequencies --   1271.8353              1291.3087              1314.3848
 Red. masses --      1.5925                 1.2418                 1.7782
 Frc consts  --      1.5177                 1.2200                 1.8100
 IR Inten    --     26.8049                30.0209                 3.4312

                     67                     68                     69
                      A                      A                      A
 Frequencies --   1332.7540              1341.0504              1350.4702
 Red. masses --      1.9141                 1.8574                 1.5647
 Frc consts  --      2.0031                 1.9681                 1.6813
 IR Inten    --      6.6704                 2.1455                22.6298

                     70                     71                     72
                      A                      A                      A
 Frequencies --   1356.4625              1383.7548              1401.2717
 Red. masses --      1.2191                 1.4259                 1.3051
 Frc consts  --      1.3216                 1.6086                 1.5099
 IR Inten    --     13.4552                17.1588                 7.3364

                     73                     74                     75
                      A                      A                      A
 Frequencies --   1403.0217              1415.7312              1422.9289
 Red. masses --      1.5318                 1.5045                 1.2714
 Frc consts  --      1.7766                 1.7767                 1.5167
 IR Inten    --     37.2373                 7.2614                16.1932

                     76                     77                     78
                      A                      A                      A
 Frequencies --   1430.7431              1440.2436              1451.0775
 Red. masses --      1.3452                 1.4262                 1.2804
 Frc consts  --      1.6224                 1.7430                 1.5885
 IR Inten    --      2.8667                16.8286                14.0865

                     79                     80                     81
                      A                      A                      A
 Frequencies --   1459.0351              1506.5630              1512.8657
 Red. masses --      2.4270                 1.0782                 1.0635
 Frc consts  --      3.0441                 1.4419                 1.4342
 IR Inten    --     12.3695                 0.0815                 0.0508

                     82                     83                     84
                      A                      A                      A
 Frequencies --   1517.2418              1520.3274              1526.7597
 Red. masses --      1.0661                 1.0833                 1.0909
 Frc consts  --      1.4459                 1.4753                 1.4982
 IR Inten    --      1.1716                 5.2370                 2.7566

                     85                     86                     87
                      A                      A                      A
 Frequencies --   1532.6871              1542.2318              1546.4879
 Red. masses --      1.0667                 1.0797                 1.0658
 Frc consts  --      1.4764                 1.5131                 1.5018
 IR Inten    --      6.5632                 5.3546                 4.5473

                     88                     89                     90
                      A                      A                      A
 Frequencies --   1554.9274              1618.9493              1669.3568
 Red. masses --      2.3426                 6.3361                 5.6615
 Frc consts  --      3.3371                 9.7846                 9.2957
 IR Inten    --     10.3093                 0.9180                10.0738

                     91                     92                     93
                      A                      A                      A
 Frequencies --   2350.3168              2964.7365              2987.9946
 Red. masses --     12.6797                 1.0727                 1.0698
 Frc consts  --     41.2678                 5.5550                 5.6275
 IR Inten    --     40.3148                47.1496                29.5029

                     94                     95                     96
                      A                      A                      A
 Frequencies --   3000.4172              3011.5199              3041.7221
 Red. masses --      1.0698                 1.0831                 1.0665
 Frc consts  --      5.6743                 5.7874                 5.8134
 IR Inten    --     78.3559                30.0112                33.9716

                     97                     98                     99
                      A                      A                      A
 Frequencies --   3053.6398              3058.8349              3097.7126
 Red. masses --      1.0358                 1.0378                 1.0889
 Frc consts  --      5.6908                 5.7209                 6.1564
 IR Inten    --     23.1594                16.1155                21.9556

                    100                    101                    102
                      A                      A                      A
 Frequencies --   3107.6262              3110.1141              3116.4031
 Red. masses --      1.0977                 1.0954                 1.1017
 Frc consts  --      6.2461                 6.2428                 6.3042
 IR Inten    --      6.5132                51.7682                 8.3986

                    103                    104                    105
                      A                      A                      A
 Frequencies --   3118.3850              3124.5791              3131.0055
 Red. masses --      1.0945                 1.1009                 1.1008
 Frc consts  --      6.2711                 6.3329                 6.3583
 IR Inten    --     33.3702                69.1517                29.9467

                    106                    107                    108
                      A                      A                      A
 Frequencies --   3143.1220              3209.2527              3210.8419
 Red. masses --      1.1007                 1.0879                 1.0878
 Frc consts  --      6.4065                 6.6018                 6.6075
 IR Inten    --     18.7701                 4.1112                 1.3262

                    109                    110                    111
                      A                      A                      A
 Frequencies --   3223.6088              3225.5177              3740.6548
 Red. masses --      1.0945                 1.0953                 1.0663
 Frc consts  --      6.7012                 6.7139                 8.7907
 IR Inten    --      8.2801                 2.9936                17.7446

 - Thermochemistry -
 -------------------
 Temperature   298.150 Kelvin.  Pressure   1.00000 Atm.
 Atom     1 has atomic number  6 and mass  12.00000

 Molecular mass:   260.15248 amu.
 Principal axes and moments of inertia in atomic units:
                           1         2         3
     Eigenvalues --  2946.497047535.533359360.28131
           X            0.99998   0.00536  -0.00425
           Y           -0.00537   0.99998  -0.00167
           Z            0.00424   0.00169   0.99999
 This molecule is an asymmetric top.
 Rotational symmetry number  1.
 Warning -- assumption of classical behavior for rotation
           may cause significant error
 Rotational temperatures (Kelvin)      0.02940     0.01149     0.00925
 Rotational constants (GHZ):           0.61250     0.23950     0.19281
 Zero-point vibrational energy     875703.9 (Joules/Mol)
                                  209.29827 (Kcal/Mol)
 Warning -- explicit consideration of  30 degrees of freedom as
           vibrations may cause significant error
 Vibrational temperatures:     38.27    51.62    79.24   114.39   123.74
          (Kelvin)            185.15   193.62   237.96   312.21   331.82
                              341.34   355.26   372.28   385.47   463.57
                              477.83   506.63   524.08   534.61   563.30
                              598.63   600.44   657.67   705.01   708.04
                              754.99   760.25   791.55   822.58   849.69
                              929.66   948.81  1012.91  1064.19  1075.53
                             1183.75  1213.49  1222.62  1246.26  1289.00
                             1324.94  1337.03  1369.35  1390.46  1417.39
                             1420.50  1451.04  1483.72  1498.42  1501.09
                             1515.13  1567.15  1622.46  1629.41  1650.03
                             1670.52  1694.45  1737.61  1763.22  1767.17
                             1775.30  1779.59  1814.71  1829.89  1857.91
                             1891.11  1917.54  1929.47  1943.03  1951.65
                             1990.91  2016.12  2018.64  2036.92  2047.28
                             2058.52  2072.19  2087.78  2099.23  2167.61
                             2176.68  2182.97  2187.41  2196.67  2205.19
                             2218.93  2225.05  2237.19  2329.31  2401.83
                             3381.58  4265.59  4299.06  4316.93  4332.91
                             4376.36  4393.51  4400.98  4456.92  4471.18
                             4474.76  4483.81  4486.66  4495.57  4504.82
                             4522.25  4617.40  4619.69  4638.05  4640.80
                             5381.97

 Zero-point correction=                           0.333538 (Hartree/Particle)
 Thermal correction to Energy=                    0.351522
 Thermal correction to Enthalpy=                  0.352466
 Thermal correction to Gibbs Free Energy=         0.287332
 Sum of electronic and zero-point Energies=           -843.296672
 Sum of electronic and thermal Energies=              -843.278688
 Sum of electronic and thermal Enthalpies=            -843.277744
 Sum of electronic and thermal Free Energies=         -843.342878

                     E (Thermal)             CV                S
                      KCal/Mol        Cal/Mol-Kelvin    Cal/Mol-Kelvin
 Total                  220.583             70.401            137.086
 Electronic               0.000              0.000              0.000
 Translational            0.889              2.981             42.568
 Rotational               0.889              2.981             33.696
 Vibrational            218.806             64.440             60.822
 Vibration     1          0.593              1.984              6.068
 Vibration     2          0.594              1.982              5.475
 Vibration     3          0.596              1.976              4.626
 Vibration     4          0.600              1.963              3.903
 Vibration     5          0.601              1.959              3.749
 Vibration     6          0.611              1.925              2.966
 Vibration     7          0.613              1.919              2.880
 Vibration     8          0.624              1.885              2.487
 Vibration     9          0.646              1.815              1.984
 Vibration    10          0.652              1.794              1.874
 Vibration    11          0.656              1.784              1.823
 Vibration    12          0.661              1.768              1.752
 Vibration    13          0.668              1.748              1.670
 Vibration    14          0.673              1.732              1.610
 Vibration    15          0.707              1.631              1.299
 Vibration    16          0.714              1.611              1.250
 Vibration    17          0.729              1.571              1.157
 Vibration    18          0.738              1.546              1.104
 Vibration    19          0.743              1.531              1.073
 Vibration    20          0.759              1.488              0.994
 Vibration    21          0.779              1.435              0.905
 Vibration    22          0.780              1.433              0.901
 Vibration    23          0.815              1.345              0.775
 Vibration    24          0.846              1.272              0.684
 Vibration    25          0.848              1.268              0.678
 Vibration    26          0.880              1.195              0.599
 Vibration    27          0.883              1.187              0.591
 Vibration    28          0.905              1.139              0.544
 Vibration    29          0.928              1.092              0.501
 Vibration    30          0.948              1.052              0.466

 Optimization completed.
    -- Stationary point found.
 Normal termination of Gaussian 16 at Sun Dec 13 16:59:45 2020.

 ----------------------------------------------------------------------
 # B3LYP/6-311++G(d,p) empiricaldispersion=gd3bj scf=xqc pop=npa geom=c
 heck
 ----------------------------------------------------------------------

 --------------------------------------
 CID_61432579_JID_9170_Energie_neutraal
 --------------------------------------
 Structure from the checkpoint file:  "JID_9170.chk"
 Charge =  0 Multiplicity = 1

 SCF Done:  E(RB3LYP) =  -843.867652825     A.U. after   14 cycles
 Normal termination of Gaussian 16 at Sun Dec 13 17:09:33 2020.

 ----------------------------------------------------------------------
 # B3LYP/6-311++G(d,p) empiricaldispersion=gd3bj scf=xqc pop=npa geom=c
 heck
 ----------------------------------------------------------------------

 ------------------------------------
 CID_61432579_JID_9170_Energie_kation
 ------------------------------------
 Structure from the checkpoint file:  "JID_9170.chk"
 Charge =  1 Multiplicity = 2

 SCF Done:  E(UB3LYP) =  -843.573306004     A.U. after   26 cycles
 Normal termination of Gaussian 16 at Sun Dec 13 17:34:39 2020.
 Gaussian 16:  ES64L-G16RevA.03 25-Dec-2016

 ----------------------------------------------------------------------
 # B3LYP/6-311++G(d,p) empiricaldispersion=gd3bj scf=xqc pop=npa geom=c
 heck
 ----------------------------------------------------------------------

 -----------------------------------
 CID_61432579_JID_9170_Energie_anion
 -----------------------------------
 Structure from the checkpoint file:  "JID_9170.chk"
 Charge = -1 Multiplicity = 2

                         Standard orientation:
 ---------------------------------------------------------------------
 Center     Atomic      Atomic             Coordinates (Angstroms)
 Number     Number       Type             X           Y           Z
 ---------------------------------------------------------------------
      1          6           0       -3.908590    0.032296   -0.876182
      2          6           0       -2.861132   -0.160411    0.237746
      3          6           0       -2.899221   -1.617820    0.738918
      4          8           0       -2.486074   -2.550984   -0.242400
      5          6           0       -1.137657   -2.301883   -0.614943
      6          6           0       -0.982171   -0.899317   -1.180754
      7          7           0       -1.473336    0.089861   -0.220717
      8          6           0       -1.148483    1.456990   -0.609228
      9          6           0       -0.062865    2.062862    0.301151
     10          6           0        1.199131    1.226415    0.282194
     11          6           0        2.196373    1.471460   -0.668832
     12          6           0        3.322532    0.658473   -0.742865
     13          6           0        3.461444   -0.422698    0.141957
     14          6           0        2.466231   -0.671994    1.101922
     15          6           0        1.349743    0.152726    1.168851
     16          6           0        4.615640   -1.267475    0.068884
     17          7           0        5.552124   -1.954920    0.008790
     18          8           0        0.146523    3.386034   -0.181270
     19          6           0       -3.181161    0.739249    1.438184
     20          1           0       -3.841136    1.033654   -1.314814
     21          1           0       -4.922011   -0.089098   -0.477548
     22          1           0       -3.773824   -0.706105   -1.670862
     23          1           0       -2.256487   -1.702631    1.631112
     24          1           0       -3.922139   -1.890447    1.015015
     25          1           0       -0.872861   -3.055965   -1.361303
     26          1           0       -0.478023   -2.419150    0.260414
     27          1           0       -1.502743   -0.834631   -2.152985
     28          1           0        0.078919   -0.702590   -1.364317
     29          1           0       -0.786079    1.500706   -1.644719
     30          1           0       -2.020154    2.115951   -0.562268
     31          1           0       -0.459939    2.080795    1.327007
     32          1           0        2.075928    2.305238   -1.352804
     33          1           0        4.094755    0.848518   -1.480968
     34          1           0        2.580293   -1.506103    1.786341
     35          1           0        0.573187   -0.045744    1.899548
     36          1           0        0.825317    3.800229    0.374313
     37          1           0       -3.248287    1.794613    1.157388
     38          1           0       -4.147126    0.457272    1.871634
     39          1           0       -2.411584    0.637260    2.210660
 ---------------------------------------------------------------------

 SCF Done:  E(UB3LYP) =  -843.876669356     A.U. after   29 cycles

 The electronic state is 2-A.
 Alpha  occ. eigenvalues --  -19.03626 -19.02442 -14.20693 -14.15937 -10.12468
 Alpha  occ. eigenvalues --  -10.12115 -10.12043 -10.11366 -10.09540 -10.09041
 Alpha  occ. eigenvalues --  -10.07333 -10.06907 -10.06141 -10.05465 -10.04882
 Alpha  occ. eigenvalues --  -10.04817 -10.04566 -10.04541 -10.03613  -0.95425
 Alpha  occ. eigenvalues --   -0.92707  -0.82966  -0.76443  -0.73248  -0.71157
 Alpha  occ. eigenvalues --   -0.66904  -0.63907  -0.62348  -0.61394  -0.60394
 Alpha  occ. eigenvalues --   -0.57580  -0.53160  -0.52102  -0.48830  -0.47971
 Alpha  occ. eigenvalues --   -0.44600  -0.42023  -0.41657  -0.40638  -0.39380
 Alpha  occ. eigenvalues --   -0.38357  -0.37208  -0.36555  -0.35377  -0.33286
 Alpha  occ. eigenvalues --   -0.32934  -0.31934  -0.31717  -0.30950  -0.30058
 Alpha  occ. eigenvalues --   -0.29992  -0.29478  -0.29211  -0.28581  -0.27546
 Alpha  occ. eigenvalues --   -0.26323  -0.25608  -0.25578  -0.24459  -0.23524
 Alpha  occ. eigenvalues --   -0.22510  -0.22002  -0.21765  -0.20838  -0.19148
 Alpha  occ. eigenvalues --   -0.17954  -0.16999  -0.13910  -0.12542  -0.11750
 Alpha  occ. eigenvalues --    0.04014
 Alpha virt. eigenvalues --    0.05753   0.07527   0.07764   0.08331   0.09066
 Alpha virt. eigenvalues --    0.09680   0.09910   0.10388   0.10450   0.10622
 Alpha virt. eigenvalues --    0.11620   0.12104   0.12651   0.12886   0.13556

  Beta  occ. eigenvalues --  -19.03625 -19.02414 -14.20692 -14.15655 -10.12462
  Beta  occ. eigenvalues --  -10.12113 -10.12043 -10.11395 -10.09539 -10.09002
  Beta  occ. eigenvalues --  -10.07311 -10.06890 -10.06142 -10.05166 -10.04773
  Beta  occ. eigenvalues --  -10.04692 -10.04594 -10.04565 -10.03208  -0.95423
  Beta  occ. eigenvalues --   -0.92634  -0.82954  -0.76006  -0.72839  -0.71129
  Beta  occ. eigenvalues --   -0.66660  -0.63554  -0.62040  -0.61262  -0.60358
  Beta  occ. eigenvalues --   -0.57478  -0.53046  -0.51807  -0.48694  -0.47676
  Beta  occ. eigenvalues --   -0.44533  -0.41915  -0.41518  -0.40599  -0.39346
  Beta  occ. eigenvalues --   -0.38325  -0.37174  -0.36397  -0.35303  -0.33224
  Beta  occ. eigenvalues --   -0.32745  -0.31799  -0.31654  -0.30829  -0.29992
  Beta  occ. eigenvalues --   -0.29932  -0.29447  -0.29146  -0.28546  -0.27459
  Beta  occ. eigenvalues --   -0.25780  -0.25566  -0.24945  -0.24392  -0.23245
  Beta  occ. eigenvalues --   -0.22257  -0.21786  -0.21651  -0.19851  -0.18983
  Beta  occ. eigenvalues --   -0.17751  -0.16969  -0.13107  -0.11692  -0.10668
  Beta virt. eigenvalues --    0.06078   0.07533   0.07794   0.08292   0.09010
  Beta virt. eigenvalues --    0.09530   0.09723   0.09888   0.10380   0.10489
  Beta virt. eigenvalues --    0.10818   0.11674   0.12086   0.12649   0.12862

 Mulliken charges and spin densities:
               1          2
     1  C    0.164182  -0.590930
     2  C   -1.092672   0.693073
     3  C   -0.157189  -0.205069
     4  O   -0.076029   0.002329
     5  C   -0.515282   0.007966
     6  C    0.022520  -0.055389
     7  N    0.602208  -0.053513
     8  C   -0.280378  -0.189607
     9  C   -0.292465  -0.064047
    10  C    0.720474   0.300923
    11  C   -0.349618   0.004459
    12  C   -0.512068   0.127099
    13  C    1.648840   0.200013
    14  C   -0.469477   0.111903
    15  C   -0.149304  -0.034745
    16  C   -1.800281  -0.089559
    17  N   -0.311806   0.152580
    18  O   -0.185061  -0.002719
    19  C   -0.010339  -0.429417
    20  H    0.019863   0.130060
    21  H   -0.040119   0.190169
    22  H    0.132042   0.028068
    23  H    0.139958  -0.001602
    24  H    0.061283   0.106656
    25  H    0.160291   0.000143
    26  H    0.163036   0.000903
    27  H    0.126577   0.007974
    28  H    0.151206   0.003523
    29  H    0.179922  -0.009580
    30  H    0.128521  -0.004960
    31  H    0.133841   0.031906
    32  H    0.138829   0.002049
    33  H    0.165294  -0.007116
    34  H    0.168736  -0.000223
    35  H    0.087025   0.054083
    36  H    0.245110   0.006417
    37  H    0.001401   0.171741
    38  H   -0.181300   0.333444
    39  H    0.062230   0.070995
 Sum of Mulliken charges =  -1.00000   1.00000

 Dipole moment (field-independent basis, Debye):
    X=             -7.8307    Y=              2.6609    Z=             -0.4334  Tot=              8.2818
 Quadrupole moment (field-independent basis, Debye-Ang):
   XX=           -222.4063   YY=           -145.4889   ZZ=           -127.6350
   XY=             21.0585   XZ=              0.5177   YZ=              1.0369

 Summary of Natural Population Analysis:

                                       Natural Population
                Natural  -----------------------------------------------
    Atom  No    Charge         Core      Valence    Rydberg      Total
 -----------------------------------------------------------------------
      C    1   -0.30068      0.99961     2.29376    0.00731     3.30068
      C    2    0.05786      0.99957     1.92870    0.01387     2.94214
      C    3   -0.01122      0.99950     1.99618    0.01554     3.01122
      O    4   -0.30073      0.99989     3.29214    0.00869     4.30073
      C    5   -0.01316      0.99958     2.00331    0.01027     3.01316
      C    6   -0.09772      0.99961     2.08850    0.00960     3.09772
      N    7   -0.29626      0.99967     2.78223    0.01436     3.79626
      C    8   -0.08136      0.99959     2.06957    0.01220     3.08136
      C    9    0.05623      0.99951     1.92973    0.01453     2.94377
      C   10    0.03285      0.99948     1.95637    0.01129     2.96715
      C   11   -0.12046      0.99952     2.11271    0.00823     3.12046
      C   12   -0.05476      0.99955     2.04758    0.00763     3.05476
      C   13   -0.05555      0.99942     2.04480    0.01133     3.05555
      C   14   -0.06070      0.99954     2.05200    0.00915     3.06070
      C   15   -0.11094      0.99952     2.10164    0.00978     3.11094
      C   16    0.14906      0.99964     1.83312    0.01817     2.85094
      N   17   -0.17019      0.99979     2.65929    0.01111     3.67019
      O   18   -0.37291      0.99989     3.36731    0.00571     4.37291
      C   19   -0.29180      0.99961     2.28437    0.00782     3.29180
      H   20    0.10076      0.00000     0.39853    0.00071     0.39924
      H   21    0.09933      0.00000     0.39974    0.00093     0.40067
      H   22    0.10451      0.00000     0.39443    0.00106     0.39549
      H   23    0.08296      0.00000     0.41577    0.00127     0.41704
      H   24    0.09061      0.00000     0.40818    0.00121     0.40939
      H   25    0.08961      0.00000     0.40955    0.00084     0.41039
      H   26    0.08580      0.00000     0.41300    0.00120     0.41420
      H   27    0.07953      0.00000     0.41937    0.00110     0.42047
      H   28    0.11253      0.00000     0.38639    0.00108     0.38747
      H   29    0.09357      0.00000     0.40536    0.00107     0.40643
      H   30    0.09546      0.00000     0.40328    0.00126     0.40454
      H   31    0.07857      0.00000     0.41945    0.00197     0.42143
      H   32    0.10086      0.00000     0.39812    0.00102     0.39914
      H   33    0.09573      0.00000     0.40338    0.00089     0.40427
      H   34    0.09659      0.00000     0.40263    0.00078     0.40341
      H   35    0.09783      0.00000     0.40071    0.00146     0.40217
      H   36    0.22916      0.00000     0.26832    0.00252     0.27084
      H   37    0.10367      0.00000     0.39544    0.00089     0.39633
      H   38    0.10053      0.00000     0.39853    0.00094     0.39947
      H   39    0.10482      0.00000     0.39397    0.00122     0.39518
 =======================================================================
   * Total *   -0.00000     18.99249    50.77748    0.23003    70.00000

 Normal termination of Gaussian 16 at Sun Dec 13 18:02:05 2020.
