 Gaussian 16, Revision A.03,

 -----------------------------------------------------------
 # opt freq B3LYP/6-31G(d) empiricaldispersion=gd3bj scf=xqc
 -----------------------------------------------------------

 ------------------------------
 CID_87147099_JID_5185_neutraal
 ------------------------------
 Symbolic Z-matrix:
 Charge =  0 Multiplicity = 1

 SCF Done:  E(RB3LYP) =  -734.464062758     A.U. after   13 cycles
 SCF Done:  E(RB3LYP) =  -734.468061118     A.U. after   11 cycles
 SCF Done:  E(RB3LYP) =  -734.468111351     A.U. after   12 cycles
 SCF Done:  E(RB3LYP) =  -734.468050449     A.U. after   12 cycles
 SCF Done:  E(RB3LYP) =  -734.468474649     A.U. after   11 cycles
 SCF Done:  E(RB3LYP) =  -734.468988851     A.U. after   11 cycles
 SCF Done:  E(RB3LYP) =  -734.469277755     A.U. after   11 cycles
 SCF Done:  E(RB3LYP) =  -734.469345589     A.U. after   11 cycles
 SCF Done:  E(RB3LYP) =  -734.469376419     A.U. after   10 cycles
 SCF Done:  E(RB3LYP) =  -734.469393314     A.U. after    9 cycles
 SCF Done:  E(RB3LYP) =  -734.469397602     A.U. after    9 cycles
 SCF Done:  E(RB3LYP) =  -734.469399268     A.U. after    8 cycles
 SCF Done:  E(RB3LYP) =  -734.469399730     A.U. after    7 cycles
 SCF Done:  E(RB3LYP) =  -734.469399845     A.U. after    7 cycles
 SCF Done:  E(RB3LYP) =  -734.469399883     A.U. after    6 cycles
 Optimization completed.
    -- Stationary point found.
 Normal termination of Gaussian 16 at Thu Dec 10 14:52:24 2020.

 --------------------------------------------------------------------
 #N Geom=AllCheck Guess=TCheck SCRF=Check GenChk RB3LYP/6-31G(d) Freq
 --------------------------------------------------------------------

 Structure from the checkpoint file:  "JID_5185.chk"
 ------------------------------
 CID_87147099_JID_5185_neutraal
 ------------------------------
 Charge =  0 Multiplicity = 1

 SCF Done:  E(RB3LYP) =  -734.469399883     A.U. after    1 cycles

  Exact polarizability: 151.319   1.840 123.544  -4.588   0.207 121.781
 Approx polarizability: 181.807   2.735 170.763  -8.136   5.307 185.731

                      1                      2                      3
                      A                      A                      A
 Frequencies --     22.9287                37.9285                47.2034
 Red. masses --      4.4141                 3.8790                 3.1075
 Frc consts  --      0.0014                 0.0033                 0.0041
 IR Inten    --      0.3419                 0.9845                 1.3051

                      4                      5                      6
                      A                      A                      A
 Frequencies --     53.4575                59.7407                77.3150
 Red. masses --      3.6354                 3.4848                 2.1811
 Frc consts  --      0.0061                 0.0073                 0.0077
 IR Inten    --      0.8841                 0.5542                 0.2830

                      7                      8                      9
                      A                      A                      A
 Frequencies --     90.6936               106.3447               135.2000
 Red. masses --      4.3237                 2.5851                 3.6006
 Frc consts  --      0.0210                 0.0172                 0.0388
 IR Inten    --      1.7715                 1.1713                 0.3348

                     10                     11                     12
                      A                      A                      A
 Frequencies --    177.6675               194.4587               205.1912
 Red. masses --      3.0587                 1.7568                 2.7061
 Frc consts  --      0.0569                 0.0391                 0.0671
 IR Inten    --      0.7155                 3.1201                 0.7632

                     13                     14                     15
                      A                      A                      A
 Frequencies --    209.8361               236.5875               263.0646
 Red. masses --      2.3687                 2.0107                 2.8980
 Frc consts  --      0.0614                 0.0663                 0.1182
 IR Inten    --      0.0875                 2.4148                 3.1964

                     16                     17                     18
                      A                      A                      A
 Frequencies --    281.6991               303.9790               324.8903
 Red. masses --      1.6645                 2.8118                 2.4713
 Frc consts  --      0.0778                 0.1531                 0.1537
 IR Inten    --      2.0570                 6.4010                 2.4294

                     19                     20                     21
                      A                      A                      A
 Frequencies --    346.0081               360.5169               397.8822
 Red. masses --      2.5159                 2.8154                 1.8846
 Frc consts  --      0.1775                 0.2156                 0.1758
 IR Inten    --      5.4279                 3.1399                 0.4629

                     22                     23                     24
                      A                      A                      A
 Frequencies --    434.8318               463.1300               469.1112
 Red. masses --      2.5604                 1.3313                 1.6141
 Frc consts  --      0.2852                 0.1682                 0.2093
 IR Inten    --      0.8934                30.4420                 7.7084

                     25                     26                     27
                      A                      A                      A
 Frequencies --    504.8516               540.1290               553.9530
 Red. masses --      2.9657                 1.1257                 2.2791
 Frc consts  --      0.4454                 0.1935                 0.4121
 IR Inten    --      5.0652               185.5841                10.9396

                     28                     29                     30
                      A                      A                      A
 Frequencies --    666.3123               676.4564               722.4270
 Red. masses --      3.0444                 3.1932                 1.3142
 Frc consts  --      0.7964                 0.8609                 0.4041
 IR Inten    --      1.2199                19.4892                12.8703

                     31                     32                     33
                      A                      A                      A
 Frequencies --    766.0059               798.0918               807.6424
 Red. masses --      1.8444                 1.4930                 2.1121
 Frc consts  --      0.6376                 0.5603                 0.8117
 IR Inten    --      0.7093                 1.7584                 0.9289

                     34                     35                     36
                      A                      A                      A
 Frequencies --    833.0015               863.7346               888.1179
 Red. masses --      2.6451                 2.3697                 2.7806
 Frc consts  --      1.0814                 1.0416                 1.2922
 IR Inten    --      3.8375                 7.3149                 1.5524

                     37                     38                     39
                      A                      A                      A
 Frequencies --    892.4196               901.7628               939.7546
 Red. masses --      2.5682                 1.7268                 1.8674
 Frc consts  --      1.2051                 0.8273                 0.9717
 IR Inten    --     22.9290                 4.3734                22.4632

                     40                     41                     42
                      A                      A                      A
 Frequencies --    957.4386               981.2278               993.2238
 Red. masses --      1.6970                 2.2225                 2.3822
 Frc consts  --      0.9165                 1.2608                 1.3846
 IR Inten    --      3.4837                40.1439                 8.5274

                     43                     44                     45
                      A                      A                      A
 Frequencies --   1031.8064              1037.1105              1049.2058
 Red. masses --      2.1385                 1.7632                 1.5316
 Frc consts  --      1.3414                 1.1174                 0.9934
 IR Inten    --     39.5964                21.6053                 1.6670

                     46                     47                     48
                      A                      A                      A
 Frequencies --   1076.5061              1078.4517              1095.3945
 Red. masses --      2.1388                 2.2502                 2.1862
 Frc consts  --      1.4603                 1.5420                 1.5456
 IR Inten    --     85.2566                 0.7476                69.8730

                     49                     50                     51
                      A                      A                      A
 Frequencies --   1108.2395              1118.3230              1136.4372
 Red. masses --      2.3152                 2.5805                 2.2015
 Frc consts  --      1.6754                 1.9014                 1.6752
 IR Inten    --     30.3890                34.8625                19.0869

                     52                     53                     54
                      A                      A                      A
 Frequencies --   1151.0697              1165.8585              1166.9871
 Red. masses --      2.0778                 1.6155                 2.0681
 Frc consts  --      1.6220                 1.2938                 1.6594
 IR Inten    --      2.0254                15.6511                 0.3911

                     55                     56                     57
                      A                      A                      A
 Frequencies --   1225.9560              1226.5665              1257.8252
 Red. masses --      1.3373                 1.2797                 1.3646
 Frc consts  --      1.1842                 1.1343                 1.2720
 IR Inten    --     10.8869                 5.8542                 1.0073

                     58                     59                     60
                      A                      A                      A
 Frequencies --   1276.9282              1301.3287              1305.8312
 Red. masses --      1.4292                 1.4503                 1.2324
 Frc consts  --      1.3730                 1.4471                 1.2382
 IR Inten    --      7.5680                13.2541                 4.0324

                     61                     62                     63
                      A                      A                      A
 Frequencies --   1322.6194              1334.0379              1352.3345
 Red. masses --      1.1633                 1.1677                 1.0977
 Frc consts  --      1.1990                 1.2244                 1.1828
 IR Inten    --      8.4898                 3.4197                 1.6158

                     64                     65                     66
                      A                      A                      A
 Frequencies --   1378.9563              1386.9462              1394.9054
 Red. masses --      1.3355                 1.4233                 1.5152
 Frc consts  --      1.4962                 1.6131                 1.7371
 IR Inten    --     44.6096                 8.5436                 0.2461

                     67                     68                     69
                      A                      A                      A
 Frequencies --   1399.7380              1403.5379              1409.0279
 Red. masses --      1.3800                 1.3263                 1.3075
 Frc consts  --      1.5930                 1.5394                 1.5295
 IR Inten    --      5.8174                10.6369                26.8347

                     70                     71                     72
                      A                      A                      A
 Frequencies --   1413.8748              1424.4659              1429.7121
 Red. masses --      1.3417                 1.4245                 1.2685
 Frc consts  --      1.5802                 1.7030                 1.5277
 IR Inten    --      4.6575                 0.5002                17.6268

                     73                     74                     75
                      A                      A                      A
 Frequencies --   1434.4298              1443.5199              1445.0336
 Red. masses --      1.3578                 1.2720                 1.2696
 Frc consts  --      1.6460                 1.5617                 1.5620
 IR Inten    --      9.6022                 3.9903                23.2859

                     76                     77                     78
                      A                      A                      A
 Frequencies --   1448.5523              1493.2043              1503.8063
 Red. masses --      1.2856                 1.0881                 1.0840
 Frc consts  --      1.5893                 1.4294                 1.4443
 IR Inten    --     44.0646                 3.1801                 2.4007

                     79                     80                     81
                      A                      A                      A
 Frequencies --   1507.5063              1517.4370              1525.9897
 Red. masses --      1.0814                 1.0722                 1.0760
 Frc consts  --      1.4480                 1.4546                 1.4763
 IR Inten    --      7.0197                 4.7201                 6.6821

                     82                     83                     84
                      A                      A                      A
 Frequencies --   1526.5472              1528.3665              1530.5556
 Red. masses --      1.0549                 1.0658                 1.0653
 Frc consts  --      1.4484                 1.4669                 1.4703
 IR Inten    --      3.2664                 1.5015                 2.5020

                     85                     86                     87
                      A                      A                      A
 Frequencies --   1536.2578              1536.6498              1542.3050
 Red. masses --      1.0559                 1.0579                 1.0796
 Frc consts  --      1.4682                 1.4718                 1.5131
 IR Inten    --      6.1921                 4.3637                 4.1111

                     88                     89                     90
                      A                      A                      A
 Frequencies --   3029.4043              3032.8717              3035.8417
 Red. masses --      1.0672                 1.0658                 1.0610
 Frc consts  --      5.7707                 5.7761                 5.7613
 IR Inten    --     25.6528                 9.1068                25.4765

                     91                     92                     93
                      A                      A                      A
 Frequencies --   3039.3134              3043.8821              3047.7804
 Red. masses --      1.0767                 1.0430                 1.0587
 Frc consts  --      5.8599                 5.6938                 5.7941
 IR Inten    --      7.4761                 7.3996                38.2696

                     94                     95                     96
                      A                      A                      A
 Frequencies --   3054.2991              3054.4980              3061.6915
 Red. masses --      1.0662                 1.0670                 1.0410
 Frc consts  --      5.8604                 5.8656                 5.7491
 IR Inten    --     30.1218                25.7714                23.5269

                     97                     98                     99
                      A                      A                      A
 Frequencies --   3063.8393              3071.9172              3075.0278
 Red. masses --      1.0971                 1.0983                 1.0582
 Frc consts  --      6.0679                 6.1062                 5.8955
 IR Inten    --     45.1141                22.4545                28.1228

                    100                    101                    102
                      A                      A                      A
 Frequencies --   3087.6646              3089.7412              3098.8571
 Red. masses --      1.0947                 1.1005                 1.1054
 Frc consts  --      6.1493                 6.1897                 6.2545
 IR Inten    --     44.4752                20.9234                33.7237

                    103                    104                    105
                      A                      A                      A
 Frequencies --   3109.1913              3109.3965              3110.6445
 Red. masses --      1.1005                 1.0882                 1.0957
 Frc consts  --      6.2680                 6.1990                 6.2463
 IR Inten    --     37.4996                30.7635                79.2179

                    106                    107                    108
                      A                      A                      A
 Frequencies --   3115.6008              3120.0682              3128.2626
 Red. masses --      1.1015                 1.0981                 1.1099
 Frc consts  --      6.2996                 6.2981                 6.3993
 IR Inten    --     32.2163                42.0139                31.5030

                    109                    110                    111
                      A                      A                      A
 Frequencies --   3159.7020              3687.0334              3734.9036
 Red. masses --      1.0989                 1.0654                 1.0658
 Frc consts  --      6.4641                 8.5333                 8.7598
 IR Inten    --     28.4001                26.8119                25.4875

 - Thermochemistry -
 -------------------
 Temperature   298.150 Kelvin.  Pressure   1.00000 Atm.
 Atom     1 has atomic number  6 and mass  12.00000

 Molecular mass:   220.16746 amu.
 Principal axes and moments of inertia in atomic units:
                           1         2         3
     Eigenvalues --  1859.050506452.194327118.42863
           X            0.99995   0.00880   0.00425
           Y           -0.00876   0.99993  -0.00739
           Z           -0.00431   0.00736   0.99996
 This molecule is an asymmetric top.
 Rotational symmetry number  1.
 Warning -- assumption of classical behavior for rotation
           may cause significant error
 Rotational temperatures (Kelvin)      0.04659     0.01342     0.01217
 Rotational constants (GHZ):           0.97079     0.27971     0.25353
 Zero-point vibrational energy     925477.7 (Joules/Mol)
                                  221.19449 (Kcal/Mol)
 Warning -- explicit consideration of  27 degrees of freedom as
           vibrations may cause significant error
 Vibrational temperatures:     32.99    54.57    67.92    76.91    85.95
          (Kelvin)            111.24   130.49   153.01   194.52   255.62
                              279.78   295.22   301.91   340.40   378.49
                              405.30   437.36   467.44   497.83   518.70
                              572.46   625.63   666.34   674.95   726.37
                              777.13   797.01   958.67   973.27  1039.41
                             1102.11  1148.28  1162.02  1198.50  1242.72
                             1277.80  1283.99  1297.44  1352.10  1377.54
                             1411.77  1429.03  1484.54  1492.17  1509.57
                             1548.85  1551.65  1576.03  1594.51  1609.02
                             1635.08  1656.13  1677.41  1679.03  1763.88
                             1764.76  1809.73  1837.21  1872.32  1878.80
                             1902.95  1919.38  1945.71  1984.01  1995.51
                             2006.96  2013.91  2019.38  2027.28  2034.25
                             2049.49  2057.04  2063.82  2076.90  2079.08
                             2084.14  2148.39  2163.64  2168.97  2183.25
                             2195.56  2196.36  2198.98  2202.13  2210.33
                             2210.90  2219.03  4358.64  4363.63  4367.90
                             4372.89  4379.47  4385.08  4394.46  4394.74
                             4405.09  4408.18  4419.80  4424.28  4442.46
                             4445.45  4458.56  4473.43  4473.73  4475.52
                             4482.65  4489.08  4500.87  4546.11  5304.82
                             5373.69

 Zero-point correction=                           0.352496 (Hartree/Particle)
 Thermal correction to Energy=                    0.370994
 Thermal correction to Enthalpy=                  0.371939
 Thermal correction to Gibbs Free Energy=         0.304294
 Sum of electronic and zero-point Energies=           -734.116904
 Sum of electronic and thermal Energies=              -734.098405
 Sum of electronic and thermal Enthalpies=            -734.097461
 Sum of electronic and thermal Free Energies=         -734.165106

                     E (Thermal)             CV                S
                      KCal/Mol        Cal/Mol-Kelvin    Cal/Mol-Kelvin
 Total                  232.803             67.453            142.370
 Electronic               0.000              0.000              0.000
 Translational            0.889              2.981             42.071
 Rotational               0.889              2.981             32.812
 Vibrational            231.025             61.492             67.488
 Vibration     1          0.593              1.985              6.363
 Vibration     2          0.594              1.982              5.364
 Vibration     3          0.595              1.979              4.931
 Vibration     4          0.596              1.976              4.685
 Vibration     5          0.597              1.973              4.466
 Vibration     6          0.599              1.964              3.958
 Vibration     7          0.602              1.956              3.645
 Vibration     8          0.605              1.944              3.335
 Vibration     9          0.613              1.918              2.871
 Vibration    10          0.628              1.870              2.353
 Vibration    11          0.635              1.848              2.185
 Vibration    12          0.640              1.832              2.086
 Vibration    13          0.642              1.826              2.045
 Vibration    14          0.655              1.785              1.828
 Vibration    15          0.670              1.741              1.641
 Vibration    16          0.681              1.708              1.523
 Vibration    17          0.695              1.666              1.395
 Vibration    18          0.709              1.626              1.285
 Vibration    19          0.724              1.583              1.184
 Vibration    20          0.735              1.554              1.120
 Vibration    21          0.764              1.475              0.970
 Vibration    22          0.795              1.394              0.843
 Vibration    23          0.821              1.332              0.757
 Vibration    24          0.826              1.319              0.740
 Vibration    25          0.860              1.239              0.646
 Vibration    26          0.895              1.161              0.565
 Vibration    27          0.909              1.131              0.536

 Optimization completed.
    -- Stationary point found.
 Normal termination of Gaussian 16 at Thu Dec 10 15:04:55 2020.

 ----------------------------------------------------------------------
 # B3LYP/6-311++G(d,p) empiricaldispersion=gd3bj scf=xqc pop=npa geom=c
 heck
 ----------------------------------------------------------------------

 --------------------------------------
 CID_87147099_JID_5185_Energie_neutraal
 --------------------------------------
 Structure from the checkpoint file:  "JID_5185.chk"
 Charge =  0 Multiplicity = 1

 SCF Done:  E(RB3LYP) =  -734.701647715     A.U. after   13 cycles
 Normal termination of Gaussian 16 at Thu Dec 10 15:11:06 2020.

 ----------------------------------------------------------------------
 # B3LYP/6-311++G(d,p) empiricaldispersion=gd3bj scf=xqc pop=npa geom=c
 heck
 ----------------------------------------------------------------------

 ------------------------------------
 CID_87147099_JID_5185_Energie_kation
 ------------------------------------
 Structure from the checkpoint file:  "JID_5185.chk"
 Charge =  1 Multiplicity = 2

 SCF Done:  E(UB3LYP) =  -734.383817156     A.U. after   24 cycles
 Normal termination of Gaussian 16 at Thu Dec 10 15:27:26 2020.
 Gaussian 16:  ES64L-G16RevA.03 25-Dec-2016

 ----------------------------------------------------------------------
 # B3LYP/6-311++G(d,p) empiricaldispersion=gd3bj scf=xqc pop=npa geom=c
 heck
 ----------------------------------------------------------------------

 -----------------------------------
 CID_87147099_JID_5185_Energie_anion
 -----------------------------------
 Structure from the checkpoint file:  "JID_5185.chk"
 Charge = -1 Multiplicity = 2

                         Standard orientation:
 ---------------------------------------------------------------------
 Center     Atomic      Atomic             Coordinates (Angstroms)
 Number     Number       Type             X           Y           Z
 ---------------------------------------------------------------------
      1          6           0       -5.244651   -0.331399   -0.440955
      2          6           0       -3.954467   -1.155759   -0.479538
      3          6           0       -2.742572   -0.392388   -1.035109
      4          6           0       -2.362759    0.885343   -0.270968
      5          6           0       -2.104409    0.700459    1.231860
      6          6           0       -1.022319   -0.304549    1.622955
      7          8           0        0.303230    0.069765    1.257763
      8          8           0        0.467320   -0.350410   -0.147786
      9          6           0        1.652948    0.276751   -0.655096
     10          6           0        1.502207    1.764971   -0.984646
     11          6           0        1.325124    2.729303    0.192172
     12          6           0        2.909745   -0.073881    0.171805
     13          6           0        2.887057   -1.518098    0.670085
     14          8           0        2.734692   -2.426411   -0.424273
     15          8           0        4.056268    0.151007   -0.646262
     16          1           0       -5.160807    0.522074    0.241281
     17          1           0       -6.093550   -0.938165   -0.106771
     18          1           0       -5.486918    0.064438   -1.435007
     19          1           0       -3.731613   -1.528659    0.529625
     20          1           0       -4.115743   -2.048705   -1.097585
     21          1           0       -1.875222   -1.061779   -1.063724
     22          1           0       -2.948089   -0.117644   -2.079255
     23          1           0       -1.471085    1.315915   -0.736663
     24          1           0       -3.159272    1.631955   -0.384436
     25          1           0       -1.842060    1.670281    1.673551
     26          1           0       -3.029914    0.379725    1.730546
     27          1           0       -0.961202   -0.376329    2.715755
     28          1           0       -1.224905   -1.309289    1.232656
     29          1           0        1.754747   -0.260708   -1.607786
     30          1           0        2.404542    2.037845   -1.544840
     31          1           0        0.657157    1.868435   -1.676707
     32          1           0        2.161657    2.667877    0.896145
     33          1           0        1.281800    3.760509   -0.175746
     34          1           0        0.408416    2.521933    0.747380
     35          1           0        3.007329    0.597706    1.029054
     36          1           0        3.856319   -1.745142    1.124062
     37          1           0        2.102642   -1.655388    1.421122
     38          1           0        1.791682   -2.405713   -0.654092
     39          1           0        4.106595   -0.627292   -1.229487
 ---------------------------------------------------------------------

 SCF Done:  E(UB3LYP) =  -734.688276353     A.U. after   31 cycles

 The electronic state is 2-A.
 Alpha  occ. eigenvalues --  -19.08862 -19.08502 -19.03920 -19.03830 -10.13844
 Alpha  occ. eigenvalues --  -10.13438 -10.12639 -10.12538 -10.07881 -10.07065
 Alpha  occ. eigenvalues --  -10.06678 -10.06338 -10.06304 -10.05885 -10.05839
 Alpha  occ. eigenvalues --   -1.02620  -0.95207  -0.92864  -0.84835  -0.70886
 Alpha  occ. eigenvalues --   -0.69384  -0.66122  -0.65249  -0.60870  -0.58890
 Alpha  occ. eigenvalues --   -0.55443  -0.53585  -0.50629  -0.49235  -0.45072
 Alpha  occ. eigenvalues --   -0.43407  -0.42724  -0.41021  -0.39692  -0.38962
 Alpha  occ. eigenvalues --   -0.37417  -0.36187  -0.35721  -0.34650  -0.33595
 Alpha  occ. eigenvalues --   -0.33174  -0.32357  -0.31408  -0.30268  -0.30002
 Alpha  occ. eigenvalues --   -0.29179  -0.27678  -0.27501  -0.26860  -0.26049
 Alpha  occ. eigenvalues --   -0.25592  -0.25263  -0.25028  -0.24541  -0.23243
 Alpha  occ. eigenvalues --   -0.22313  -0.21703  -0.21625  -0.20758  -0.18421
 Alpha  occ. eigenvalues --   -0.15024   0.04282
 Alpha virt. eigenvalues --    0.06266   0.06598   0.06812   0.07951   0.08295
 Alpha virt. eigenvalues --    0.08548   0.08799   0.09229   0.09654   0.10127
 Alpha virt. eigenvalues --    0.10504   0.10932   0.11406   0.11553   0.12582

  Beta  occ. eigenvalues --  -19.08854 -19.08497 -19.03895 -19.03819 -10.13832
  Beta  occ. eigenvalues --  -10.13435 -10.12627 -10.12512 -10.07870 -10.07046
  Beta  occ. eigenvalues --  -10.06662 -10.06317 -10.06294 -10.05869 -10.05806
  Beta  occ. eigenvalues --   -1.02612  -0.95173  -0.92822  -0.84819  -0.70852
  Beta  occ. eigenvalues --   -0.69357  -0.66080  -0.65217  -0.60825  -0.58850
  Beta  occ. eigenvalues --   -0.55385  -0.53548  -0.50568  -0.49199  -0.45014
  Beta  occ. eigenvalues --   -0.43378  -0.42692  -0.40975  -0.39656  -0.38924
  Beta  occ. eigenvalues --   -0.37389  -0.36162  -0.35688  -0.34614  -0.33570
  Beta  occ. eigenvalues --   -0.33136  -0.32329  -0.31381  -0.30237  -0.29971
  Beta  occ. eigenvalues --   -0.29151  -0.27652  -0.27466  -0.26830  -0.26022
  Beta  occ. eigenvalues --   -0.25563  -0.25237  -0.24998  -0.24513  -0.23217
  Beta  occ. eigenvalues --   -0.22285  -0.21668  -0.21589  -0.20728  -0.18397
  Beta  occ. eigenvalues --   -0.15006
  Beta virt. eigenvalues --    0.06284   0.06965   0.07095   0.07339   0.08228
  Beta virt. eigenvalues --    0.08702   0.08881   0.08924   0.09593   0.10014
  Beta virt. eigenvalues --    0.10357   0.10815   0.11229   0.11671   0.11898

 Mulliken charges and spin densities:
               1          2
     1  C    0.920712  -1.538614
     2  C   -0.630746   0.391014
     3  C    0.427050  -0.667476
     4  C   -0.273429   0.223734
     5  C    0.152358  -0.464344
     6  C    0.405698  -0.838731
     7  O   -0.108879   0.057793
     8  O    0.061963   0.037717
     9  C   -0.256277  -0.269245
    10  C   -0.182096   0.016838
    11  C    0.096584  -0.651956
    12  C   -0.282008   0.155446
    13  C    0.305385  -0.787328
    14  O   -0.264899   0.021170
    15  O   -0.198959   0.010137
    16  H   -0.149697   0.284647
    17  H   -0.301817   0.437483
    18  H   -0.077268   0.210731
    19  H   -0.074966   0.207510
    20  H   -0.322352   0.474112
    21  H   -0.115512   0.295182
    22  H   -0.130915   0.274589
    23  H    0.424616  -0.300402
    24  H   -0.187259   0.363271
    25  H    0.006959   0.166709
    26  H   -0.162080   0.314693
    27  H   -0.381164   0.572084
    28  H    0.041498   0.139985
    29  H   -0.163480   0.388776
    30  H    0.063199   0.106972
    31  H   -0.227690   0.400118
    32  H   -0.068291   0.205199
    33  H   -0.113203   0.241155
    34  H    0.218741  -0.053857
    35  H    0.268165  -0.061535
    36  H    0.052483   0.147260
    37  H   -0.003814   0.178253
    38  H    0.069473   0.209936
    39  H    0.161917   0.100974
 Sum of Mulliken charges =  -1.00000   1.00000

 Dipole moment (field-independent basis, Debye):
    X=              4.9777    Y=              1.7215    Z=              0.5011  Tot=              5.2907
 Quadrupole moment (field-independent basis, Debye-Ang):
   XX=           -188.3904   YY=           -141.6189   ZZ=           -133.8519
   XY=             -5.0538   XZ=              3.0024   YZ=             -1.7371

 Summary of Natural Population Analysis:

                                       Natural Population
                Natural  -----------------------------------------------
    Atom  No    Charge         Core      Valence    Rydberg      Total
 -----------------------------------------------------------------------
      C    1   -0.28535      0.99967     2.28111    0.00458     3.28535
      C    2   -0.19179      0.99964     2.18434    0.00781     3.19179
      C    3   -0.19223      0.99962     2.18349    0.00912     3.19223
      C    4   -0.19223      0.99962     2.18441    0.00820     3.19223
      C    5   -0.20553      0.99962     2.19659    0.00932     3.20553
      C    6   -0.01531      0.99958     2.00129    0.01443     3.01531
      O    7   -0.17021      0.99990     3.16183    0.00848     4.17021
      O    8   -0.17395      0.99989     3.16443    0.00964     4.17395
      C    9    0.05211      0.99952     1.92983    0.01853     2.94789
      C   10   -0.20353      0.99961     2.19554    0.00838     3.20353
      C   11   -0.28616      0.99965     2.28195    0.00456     3.28616
      C   12    0.04063      0.99953     1.94707    0.01277     2.95937
      C   13   -0.02434      0.99957     2.01245    0.01232     3.02434
      O   14   -0.37899      0.99990     3.37196    0.00712     4.37899
      O   15   -0.37265      0.99990     3.36617    0.00658     4.37265
      H   16    0.09541      0.00000     0.40337    0.00122     0.40459
      H   17    0.09852      0.00000     0.40023    0.00125     0.40148
      H   18    0.09454      0.00000     0.40418    0.00128     0.40546
      H   19    0.09208      0.00000     0.40639    0.00153     0.40792
      H   20    0.09621      0.00000     0.40253    0.00126     0.40379
      H   21    0.10132      0.00000     0.39656    0.00212     0.39868
      H   22    0.09472      0.00000     0.40409    0.00119     0.40528
      H   23    0.09989      0.00000     0.39773    0.00237     0.40011
      H   24    0.09500      0.00000     0.40373    0.00127     0.40500
      H   25    0.09894      0.00000     0.39982    0.00124     0.40106
      H   26    0.10111      0.00000     0.39749    0.00140     0.39889
      H   27    0.09647      0.00000     0.40202    0.00151     0.40353
      H   28    0.09050      0.00000     0.40760    0.00190     0.40950
      H   29    0.10122      0.00000     0.39704    0.00174     0.39878
      H   30    0.10588      0.00000     0.39292    0.00120     0.39412
      H   31    0.09984      0.00000     0.39883    0.00133     0.40016
      H   32    0.09472      0.00000     0.40421    0.00108     0.40528
      H   33    0.09663      0.00000     0.40238    0.00098     0.40337
      H   34    0.10441      0.00000     0.39412    0.00147     0.39559
      H   35    0.09422      0.00000     0.40412    0.00166     0.40578
      H   36    0.08683      0.00000     0.41194    0.00123     0.41317
      H   37    0.09396      0.00000     0.40458    0.00146     0.40604
      H   38    0.23563      0.00000     0.26057    0.00380     0.26437
      H   39    0.23148      0.00000     0.26545    0.00307     0.26852
 =======================================================================
   * Total *   -0.00000     14.99522    45.82437    0.18041    61.00000

 Normal termination of Gaussian 16 at Thu Dec 10 15:47:58 2020.
