 Gaussian 16, Revision A.03,

 -----------------------------------------------------------
 # opt freq B3LYP/6-31G(d) empiricaldispersion=gd3bj scf=xqc
 -----------------------------------------------------------

 ------------------------------
 CID_42604079_JID_9411_neutraal
 ------------------------------
 Symbolic Z-matrix:
 Charge =  0 Multiplicity = 1

 SCF Done:  E(RB3LYP) =  -958.589077078     A.U. after   14 cycles
 SCF Done:  E(RB3LYP) =  -958.597832675     A.U. after   13 cycles
 SCF Done:  E(RB3LYP) =  -958.594442562     A.U. after   14 cycles
 SCF Done:  E(RB3LYP) =  -958.597957990     A.U. after   12 cycles
 SCF Done:  E(RB3LYP) =  -958.598614752     A.U. after   13 cycles
 SCF Done:  E(RB3LYP) =  -958.599917918     A.U. after   13 cycles
 SCF Done:  E(RB3LYP) =  -958.600185377     A.U. after   12 cycles
 SCF Done:  E(RB3LYP) =  -958.600494944     A.U. after   12 cycles
 SCF Done:  E(RB3LYP) =  -958.601196672     A.U. after   13 cycles
 SCF Done:  E(RB3LYP) =  -958.550284621     A.U. after   15 cycles
 SCF Done:  E(RB3LYP) =  -958.611455080     A.U. after   10 cycles
 SCF Done:  E(RB3LYP) =  -958.611456450     A.U. after    9 cycles
 SCF Done:  E(RB3LYP) =  -958.611456684     A.U. after    8 cycles
 SCF Done:  E(RB3LYP) =  -958.611456715     A.U. after    6 cycles
 SCF Done:  E(RB3LYP) =  -958.611456669     A.U. after    7 cycles
 Optimization completed.
    -- Stationary point found.
 Normal termination of Gaussian 16 at Sun Dec 13 21:02:09 2020.

 --------------------------------------------------------------------
 #N Geom=AllCheck Guess=TCheck SCRF=Check GenChk RB3LYP/6-31G(d) Freq
 --------------------------------------------------------------------

 Structure from the checkpoint file:  "JID_9411.chk"
 ------------------------------
 CID_42604079_JID_9411_neutraal
 ------------------------------
 Charge =  0 Multiplicity = 1

 SCF Done:  E(RB3LYP) =  -958.611456669     A.U. after    1 cycles

  Exact polarizability: 177.670 -19.284 164.277  16.403   8.050 129.137
 Approx polarizability: 245.798 -30.542 248.617  42.097  18.978 209.987

                      1                      2                      3
                      A                      A                      A
 Frequencies --     15.2212                37.1321                48.2628
 Red. masses --      5.3972                 4.4749                 4.6211
 Frc consts  --      0.0007                 0.0036                 0.0063
 IR Inten    --      0.9385                 0.3886                 0.8358

                      4                      5                      6
                      A                      A                      A
 Frequencies --     51.7612                85.0895               108.4217
 Red. masses --      4.4548                 4.5945                 4.7199
 Frc consts  --      0.0070                 0.0196                 0.0327
 IR Inten    --      0.6477                 2.4264                 1.9777

                      7                      8                      9
                      A                      A                      A
 Frequencies --    113.3032               144.1346               145.9599
 Red. masses --      3.9903                 5.1640                 5.0654
 Frc consts  --      0.0302                 0.0632                 0.0636
 IR Inten    --      6.2690                 4.1558                 0.8685

                     10                     11                     12
                      A                      A                      A
 Frequencies --    153.0527               188.2021               199.1842
 Red. masses --      4.7113                 3.4624                 2.5955
 Frc consts  --      0.0650                 0.0723                 0.0607
 IR Inten    --      5.2251                 1.2410                 4.7390

                     13                     14                     15
                      A                      A                      A
 Frequencies --    226.8147               237.6991               243.8751
 Red. masses --      1.2967                 2.3197                 2.1144
 Frc consts  --      0.0393                 0.0772                 0.0741
 IR Inten    --      7.9195                 4.5826                 1.9996

                     16                     17                     18
                      A                      A                      A
 Frequencies --    258.3213               265.4337               273.3004
 Red. masses --      2.5911                 1.2293                 1.5433
 Frc consts  --      0.1019                 0.0510                 0.0679
 IR Inten    --      6.4798                42.7026                59.0508

                     19                     20                     21
                      A                      A                      A
 Frequencies --    327.7457               336.5813               343.7198
 Red. masses --      1.3326                 3.1611                 2.6912
 Frc consts  --      0.0843                 0.2110                 0.1873
 IR Inten    --     61.9188                 0.4112                18.8890

                     22                     23                     24
                      A                      A                      A
 Frequencies --    356.0810               374.8899               400.1618
 Red. masses --      2.9150                 2.4901                 3.3052
 Frc consts  --      0.2178                 0.2062                 0.3118
 IR Inten    --     13.5647                 1.0452                26.5806

                     25                     26                     27
                      A                      A                      A
 Frequencies --    401.0700               430.5843               464.1210
 Red. masses --      4.5450                 3.1734                 2.3390
 Frc consts  --      0.4307                 0.3466                 0.2969
 IR Inten    --      0.5828                 0.3013                 6.3633

                     28                     29                     30
                      A                      A                      A
 Frequencies --    481.6346               487.3429               527.4652
 Red. masses --      4.4933                 3.4154                 2.8920
 Frc consts  --      0.6141                 0.4779                 0.4741
 IR Inten    --      7.5151                 0.4380                12.4636

                     31                     32                     33
                      A                      A                      A
 Frequencies --    556.8758               570.9427               600.1998
 Red. masses --      3.2238                 4.5215                 3.7676
 Frc consts  --      0.5890                 0.8684                 0.7997
 IR Inten    --      0.7138                 2.7366                20.6057

                     34                     35                     36
                      A                      A                      A
 Frequencies --    654.2668               715.3508               737.4485
 Red. masses --      6.8245                 3.8403                 3.7007
 Frc consts  --      1.7212                 1.1579                 1.1857
 IR Inten    --      1.5843                 1.2147                 7.4738

                     37                     38                     39
                      A                      A                      A
 Frequencies --    766.0109               792.6643               818.4983
 Red. masses --      3.9974                 2.6540                 1.4044
 Frc consts  --      1.3820                 0.9825                 0.5543
 IR Inten    --      8.3210                 0.6352                32.3016

                     40                     41                     42
                      A                      A                      A
 Frequencies --    844.0146               859.6751               871.2085
 Red. masses --      1.7723                 3.1160                 2.1535
 Frc consts  --      0.7438                 1.3568                 0.9630
 IR Inten    --     15.5939                23.8748                15.5044

                     43                     44                     45
                      A                      A                      A
 Frequencies --    889.8920               927.4355               933.0899
 Red. masses --      2.2346                 1.3588                 2.8596
 Frc consts  --      1.0426                 0.6886                 1.4669
 IR Inten    --      4.7121                 4.6726                23.5997

                     46                     47                     48
                      A                      A                      A
 Frequencies --    943.8987               954.8903               961.2384
 Red. masses --      4.7309                12.0879                 2.2745
 Frc consts  --      2.4834                 6.4939                 1.2382
 IR Inten    --      6.3034                 9.4038                 9.8910

                     49                     50                     51
                      A                      A                      A
 Frequencies --    973.7675              1004.6488              1021.1297
 Red. masses --      1.2996                 2.5127                 1.8549
 Frc consts  --      0.7261                 1.4942                 1.1396
 IR Inten    --      0.4733                 4.9786                 4.8714

                     52                     53                     54
                      A                      A                      A
 Frequencies --   1036.2204              1074.9430              1082.5766
 Red. masses --      2.4959                 1.6210                 6.2634
 Frc consts  --      1.5790                 1.1036                 4.3249
 IR Inten    --      0.0673                 4.0733                56.5764

                     55                     56                     57
                      A                      A                      A
 Frequencies --   1098.9296              1119.8803              1146.2690
 Red. masses --      2.5055                 3.6097                 1.3081
 Frc consts  --      1.7827                 2.6673                 1.0127
 IR Inten    --     27.2703               177.8860                11.5956

                     58                     59                     60
                      A                      A                      A
 Frequencies --   1154.3537              1185.8597              1186.5640
 Red. masses --      2.2164                 1.2769                 2.1275
 Frc consts  --      1.7401                 1.0580                 1.7648
 IR Inten    --     22.8062                 1.4544                31.8647

                     61                     62                     63
                      A                      A                      A
 Frequencies --   1211.2861              1218.9801              1238.5373
 Red. masses --      1.1714                 1.3856                 3.1074
 Frc consts  --      1.0126                 1.2131                 2.8085
 IR Inten    --     20.3797                 6.9461                17.9684

                     64                     65                     66
                      A                      A                      A
 Frequencies --   1240.4010              1276.3906              1284.2876
 Red. masses --      2.1814                 1.5560                 1.4962
 Frc consts  --      1.9774                 1.4936                 1.4540
 IR Inten    --     23.4547                12.4003                71.5926

                     67                     68                     69
                      A                      A                      A
 Frequencies --   1301.2919              1321.3421              1348.5909
 Red. masses --      3.0115                 1.5409                 1.3870
 Frc consts  --      3.0046                 1.5851                 1.4863
 IR Inten    --    205.9774                23.4577                16.7699

                     70                     71                     72
                      A                      A                      A
 Frequencies --   1364.3709              1372.6895              1388.7859
 Red. masses --      1.2142                 3.4076                 1.2822
 Frc consts  --      1.3317                 3.7830                 1.4570
 IR Inten    --     18.7341                11.7423                37.8541

                     73                     74                     75
                      A                      A                      A
 Frequencies --   1392.8296              1410.7359              1419.3431
 Red. masses --      1.2150                 1.3788                 1.3686
 Frc consts  --      1.3888                 1.6167                 1.6245
 IR Inten    --     34.9009                 4.4989                31.9577

                     76                     77                     78
                      A                      A                      A
 Frequencies --   1431.5195              1440.1731              1445.3905
 Red. masses --      1.3341                 1.2779                 1.2038
 Frc consts  --      1.6108                 1.5617                 1.4818
 IR Inten    --     32.5652                30.3963                26.4658

                     79                     80                     81
                      A                      A                      A
 Frequencies --   1471.5152              1500.5637              1500.6703
 Red. masses --      2.5702                 1.0919                 1.1893
 Frc consts  --      3.2790                 1.4485                 1.5780
 IR Inten    --      2.2849                 2.1992                18.1845

                     82                     83                     84
                      A                      A                      A
 Frequencies --   1512.8787              1517.5831              1520.9450
 Red. masses --      1.0559                 1.0767                 1.0477
 Frc consts  --      1.4239                 1.4610                 1.4279
 IR Inten    --      2.5325                 2.8335                 5.4092

                     85                     86                     87
                      A                      A                      A
 Frequencies --   1530.2556              1530.4713              1533.6928
 Red. masses --      1.0697                 1.0756                 1.0644
 Frc consts  --      1.4758                 1.4844                 1.4751
 IR Inten    --      5.2847                 0.8234                41.0829

                     88                     89                     90
                      A                      A                      A
 Frequencies --   1544.1496              1568.3133              1636.3815
 Red. masses --      1.0988                 2.3832                 6.3718
 Frc consts  --      1.5436                 3.4536                10.0527
 IR Inten    --      5.3500                87.9588                22.1104

                     91                     92                     93
                      A                      A                      A
 Frequencies --   1677.4235              3018.7481              3022.7791
 Red. masses --      5.7664                 1.0659                 1.0362
 Frc consts  --      9.5595                 5.7230                 5.5784
 IR Inten    --     64.8450                57.5096                50.3973

                     94                     95                     96
                      A                      A                      A
 Frequencies --   3038.5978              3066.4955              3069.6391
 Red. masses --      1.0621                 1.0921                 1.0788
 Frc consts  --      5.7776                 6.0503                 5.9894
 IR Inten    --     18.7864                35.0025                45.9249

                     97                     98                     99
                      A                      A                      A
 Frequencies --   3074.4808              3081.3518              3082.8951
 Red. masses --      1.0696                 1.1056                 1.0502
 Frc consts  --      5.9566                 6.1851                 5.8806
 IR Inten    --     22.5585                48.2048                14.0645

                    100                    101                    102
                      A                      A                      A
 Frequencies --   3083.3204              3134.5299              3148.6042
 Red. masses --      1.0774                 1.0950                 1.0968
 Frc consts  --      6.0349                 6.3387                 6.4063
 IR Inten    --     32.1559                25.8337                16.9765

                    103                    104                    105
                      A                      A                      A
 Frequencies --   3157.1404              3162.9165              3179.8892
 Red. masses --      1.0994                 1.0993                 1.1037
 Frc consts  --      6.4563                 6.4794                 6.5752
 IR Inten    --     11.8326                26.9441                 5.0519

                    106                    107                    108
                      A                      A                      A
 Frequencies --   3194.3321              3197.8323              3218.5696
 Red. masses --      1.0883                 1.0880                 1.0936
 Frc consts  --      6.5430                 6.5551                 6.6746
 IR Inten    --      6.9415                12.1056                 8.2233

                    109                    110                    111
                      A                      A                      A
 Frequencies --   3220.5727              3632.7375              3695.7199
 Red. masses --      1.0918                 1.0682                 1.0689
 Frc consts  --      6.6723                 8.3057                 8.6020
 IR Inten    --      7.0761               128.4287                16.3496

 - Thermochemistry -
 -------------------
 Temperature   298.150 Kelvin.  Pressure   1.00000 Atm.
 Atom     1 has atomic number  6 and mass  12.00000

 Molecular mass:   272.12599 amu.
 Principal axes and moments of inertia in atomic units:
                           1         2         3
     Eigenvalues --  3738.795166109.924008202.61586
           X            0.99957  -0.02859  -0.00708
           Y            0.02860   0.99959   0.00149
           Z            0.00704  -0.00169   0.99997
 This molecule is an asymmetric top.
 Rotational symmetry number  1.
 Warning -- assumption of classical behavior for rotation
           may cause significant error
 Rotational temperatures (Kelvin)      0.02317     0.01418     0.01056
 Rotational constants (GHZ):           0.48271     0.29538     0.22002
 Zero-point vibrational energy     854386.4 (Joules/Mol)
                                  204.20325 (Kcal/Mol)
 Warning -- explicit consideration of  33 degrees of freedom as
           vibrations may cause significant error
 Vibrational temperatures:     21.90    53.42    69.44    74.47   122.42
          (Kelvin)            155.99   163.02   207.38   210.00   220.21
                              270.78   286.58   326.34   342.00   350.88
                              371.67   381.90   393.22   471.55   484.27
                              494.54   512.32   539.38   575.74   577.05
                              619.51   667.77   692.96   701.18   758.90
                              801.22   821.46   863.55   941.34  1029.23
                             1061.02  1102.12  1140.47  1177.64  1214.35
                             1236.88  1253.47  1280.36  1334.37  1342.51
                             1358.06  1373.87  1383.01  1401.03  1445.47
                             1469.18  1490.89  1546.60  1557.59  1581.11
                             1611.26  1649.23  1660.86  1706.19  1707.20
                             1742.77  1753.84  1781.98  1784.66  1836.44
                             1847.80  1872.27  1901.12  1940.32  1963.03
                             1974.99  1998.15  2003.97  2029.73  2042.12
                             2059.64  2072.09  2079.59  2117.18  2158.98
                             2159.13  2176.70  2183.46  2188.30  2201.70
                             2202.01  2206.64  2221.69  2256.45  2354.39
                             2413.44  4343.31  4349.10  4371.86  4412.00
                             4416.53  4423.49  4433.38  4435.60  4436.21
                             4509.89  4530.14  4542.42  4550.73  4575.15
                             4595.93  4600.97  4630.80  4633.69  5226.70
                             5317.32

 Zero-point correction=                           0.325419 (Hartree/Particle)
 Thermal correction to Energy=                    0.345662
 Thermal correction to Enthalpy=                  0.346606
 Thermal correction to Gibbs Free Energy=         0.275944
 Sum of electronic and zero-point Energies=           -958.286038
 Sum of electronic and thermal Energies=              -958.265795
 Sum of electronic and thermal Enthalpies=            -958.264851
 Sum of electronic and thermal Free Energies=         -958.335512

                     E (Thermal)             CV                S
                      KCal/Mol        Cal/Mol-Kelvin    Cal/Mol-Kelvin
 Total                  216.906             75.944            148.720
 Electronic               0.000              0.000              0.000
 Translational            0.889              2.981             42.702
 Rotational               0.889              2.981             33.593
 Vibrational            215.129             69.983             72.424
 Vibration     1          0.593              1.986              7.176
 Vibration     2          0.594              1.982              5.407
 Vibration     3          0.595              1.978              4.887
 Vibration     4          0.596              1.977              4.749
 Vibration     5          0.601              1.960              3.770
 Vibration     6          0.606              1.942              3.297
 Vibration     7          0.607              1.938              3.212
 Vibration     8          0.616              1.909              2.748
 Vibration     9          0.617              1.907              2.724
 Vibration    10          0.619              1.899              2.634
 Vibration    11          0.633              1.856              2.245
 Vibration    12          0.637              1.841              2.141
 Vibration    13          0.650              1.800              1.904
 Vibration    14          0.656              1.783              1.820
 Vibration    15          0.659              1.773              1.774
 Vibration    16          0.667              1.749              1.673
 Vibration    17          0.671              1.736              1.626
 Vibration    18          0.676              1.723              1.575
 Vibration    19          0.711              1.620              1.271
 Vibration    20          0.717              1.602              1.228
 Vibration    21          0.722              1.588              1.195
 Vibration    22          0.732              1.563              1.139
 Vibration    23          0.746              1.524              1.060
 Vibration    24          0.766              1.470              0.962
 Vibration    25          0.767              1.468              0.959
 Vibration    26          0.792              1.404              0.857
 Vibration    27          0.822              1.330              0.754
 Vibration    28          0.838              1.291              0.706
 Vibration    29          0.843              1.278              0.691
 Vibration    30          0.882              1.189              0.593
 Vibration    31          0.912              1.125              0.530
 Vibration    32          0.927              1.094              0.502
 Vibration    33          0.958              1.031              0.449

 Optimization completed.
    -- Stationary point found.
 Normal termination of Gaussian 16 at Sun Dec 13 21:22:59 2020.

 ----------------------------------------------------------------------
 # B3LYP/6-311++G(d,p) empiricaldispersion=gd3bj scf=xqc pop=npa geom=c
 heck
 ----------------------------------------------------------------------

 --------------------------------------
 CID_42604079_JID_9411_Energie_neutraal
 --------------------------------------
 Structure from the checkpoint file:  "JID_9411.chk"
 Charge =  0 Multiplicity = 1

 SCF Done:  E(RB3LYP) =  -958.901174744     A.U. after   16 cycles
 Normal termination of Gaussian 16 at Sun Dec 13 21:31:44 2020.

 ----------------------------------------------------------------------
 # B3LYP/6-311++G(d,p) empiricaldispersion=gd3bj scf=xqc pop=npa geom=c
 heck
 ----------------------------------------------------------------------

 ------------------------------------
 CID_42604079_JID_9411_Energie_kation
 ------------------------------------
 Structure from the checkpoint file:  "JID_9411.chk"
 Charge =  1 Multiplicity = 2

 SCF Done:  E(UB3LYP) =  -958.607051388     A.U. after   25 cycles
 Normal termination of Gaussian 16 at Sun Dec 13 21:50:04 2020.
 Gaussian 16:  ES64L-G16RevA.03 25-Dec-2016

 ----------------------------------------------------------------------
 # B3LYP/6-311++G(d,p) empiricaldispersion=gd3bj scf=xqc pop=npa geom=c
 heck
 ----------------------------------------------------------------------

 -----------------------------------
 CID_42604079_JID_9411_Energie_anion
 -----------------------------------
 Structure from the checkpoint file:  "JID_9411.chk"
 Charge = -1 Multiplicity = 2

                         Standard orientation:
 ---------------------------------------------------------------------
 Center     Atomic      Atomic             Coordinates (Angstroms)
 Number     Number       Type             X           Y           Z
 ---------------------------------------------------------------------
      1          6           0       -2.820675   -1.950063    1.200069
      2          6           0       -1.974294   -1.102944    0.265006
      3          6           0       -2.668686    0.163686   -0.272411
      4          6           0       -2.788130    1.368278    0.678364
      5          6           0       -1.521125    2.190219    0.961694
      6          8           0       -1.096862    3.045706   -0.101251
      7          6           0       -0.333308    2.487417   -1.167434
      8          6           0        0.831124    1.618063   -0.749447
      9          6           0        1.744840    2.061591    0.219303
     10          6           0        2.803331    1.264215    0.625960
     11          6           0        2.986173   -0.006580    0.057868
     12          6           0        2.089265   -0.464938   -0.914474
     13          6           0        1.020062    0.353601   -1.299675
     14          8           0        4.058319   -0.712049    0.517571
     15          6           0        4.273280   -2.010522   -0.008487
     16          8           0       -0.795184   -0.639097    0.876496
     17          8           0        0.007341   -1.747956    1.362987
     18          8           0       -1.488733   -1.887688   -0.857818
     19          8           0       -2.633522   -2.439537   -1.561068
     20          1           0       -3.174275   -1.336006    2.033845
     21          1           0       -2.217126   -2.769768    1.593002
     22          1           0       -3.679623   -2.358839    0.665047
     23          1           0       -2.136868    0.456811   -1.180274
     24          1           0       -3.673095   -0.146686   -0.580740
     25          1           0       -3.540443    2.051752    0.265494
     26          1           0       -3.181014    1.027259    1.645918
     27          1           0       -1.751452    2.884377    1.777234
     28          1           0       -0.704885    1.544705    1.290065
     29          1           0       -0.970062    1.925711   -1.866080
     30          1           0        0.028592    3.367580   -1.712475
     31          1           0        1.603024    3.039909    0.670531
     32          1           0        3.507663    1.597989    1.380879
     33          1           0        2.216063   -1.432633   -1.387017
     34          1           0        0.310232   -0.029432   -2.026698
     35          1           0        3.425452   -2.676339    0.203677
     36          1           0        4.444742   -1.983621   -1.092466
     37          1           0        5.164797   -2.393478    0.490291
     38          1           0        0.721364   -1.702070    0.695937
     39          1           0       -2.655101   -1.854384   -2.339520
 ---------------------------------------------------------------------

 SCF Done:  E(UB3LYP) =  -958.891380270     A.U. after   33 cycles
 SCF Done:  E(UB3LYP) =  -958.891380270     a.u. after    1 cycles

 The electronic state is 2-A.
 Alpha  occ. eigenvalues --  -19.08012 -19.07330 -19.07073 -19.06039 -19.05817
 Alpha  occ. eigenvalues --  -19.01795 -10.17477 -10.15152 -10.14324 -10.11462
 Alpha  occ. eigenvalues --  -10.10444 -10.07905 -10.07747 -10.07697 -10.07561
 Alpha  occ. eigenvalues --  -10.07406 -10.06742 -10.06442 -10.05684  -1.03447
 Alpha  occ. eigenvalues --   -0.99743  -0.98996  -0.92466  -0.83935  -0.77318
 Alpha  occ. eigenvalues --   -0.76203  -0.68861  -0.67792  -0.65694  -0.64070
 Alpha  occ. eigenvalues --   -0.62720  -0.59703  -0.55523  -0.52224  -0.51030
 Alpha  occ. eigenvalues --   -0.48411  -0.46579  -0.45030  -0.42959  -0.41428
 Alpha  occ. eigenvalues --   -0.40793  -0.39572  -0.39276  -0.38733  -0.37994
 Alpha  occ. eigenvalues --   -0.37875  -0.35970  -0.35429  -0.33807  -0.33527
 Alpha  occ. eigenvalues --   -0.32620  -0.31640  -0.31027  -0.30855  -0.29601
 Alpha  occ. eigenvalues --   -0.29382  -0.28998  -0.28621  -0.27656  -0.27395
 Alpha  occ. eigenvalues --   -0.26068  -0.24659  -0.24221  -0.23855  -0.23123
 Alpha  occ. eigenvalues --   -0.21082  -0.20156  -0.19469  -0.17621  -0.16383
 Alpha  occ. eigenvalues --   -0.15794  -0.15449  -0.13117   0.04783
 Alpha virt. eigenvalues --    0.05799   0.06892   0.07613   0.07949   0.08417
 Alpha virt. eigenvalues --    0.08592   0.08914   0.09478   0.09948   0.10155
 Alpha virt. eigenvalues --    0.10359   0.11109   0.12182   0.12316   0.12421

  Beta  occ. eigenvalues --  -19.07977 -19.07318 -19.06998 -19.05944 -19.05694
  Beta  occ. eigenvalues --  -19.01794 -10.17478 -10.15149 -10.14292 -10.11444
  Beta  occ. eigenvalues --  -10.10445 -10.07873 -10.07725 -10.07688 -10.07479
  Beta  occ. eigenvalues --  -10.07399 -10.06728 -10.06399 -10.05674  -1.03286
  Beta  occ. eigenvalues --   -0.99465  -0.98968  -0.92460  -0.83785  -0.77111
  Beta  occ. eigenvalues --   -0.76120  -0.68814  -0.67735  -0.65595  -0.64026
  Beta  occ. eigenvalues --   -0.62688  -0.59660  -0.55459  -0.52121  -0.50975
  Beta  occ. eigenvalues --   -0.48336  -0.46500  -0.44992  -0.42851  -0.41344
  Beta  occ. eigenvalues --   -0.40746  -0.39526  -0.39237  -0.38674  -0.37949
  Beta  occ. eigenvalues --   -0.37819  -0.35920  -0.35373  -0.33748  -0.33487
  Beta  occ. eigenvalues --   -0.32584  -0.31556  -0.30951  -0.30797  -0.29469
  Beta  occ. eigenvalues --   -0.29298  -0.28931  -0.28572  -0.27628  -0.27321
  Beta  occ. eigenvalues --   -0.26023  -0.24599  -0.24186  -0.23793  -0.22999
  Beta  occ. eigenvalues --   -0.21003  -0.20088  -0.19391  -0.17509  -0.16111
  Beta  occ. eigenvalues --   -0.15667  -0.15412  -0.12927
  Beta virt. eigenvalues --    0.05736   0.07299   0.07590   0.08047   0.08171
  Beta virt. eigenvalues --    0.08642   0.08954   0.09115   0.09676   0.10074
  Beta virt. eigenvalues --    0.10354   0.10880   0.11321   0.12361   0.12495

 Mulliken charges and spin densities:
               1          2
     1  C    0.275857  -0.738467
     2  C    0.464556  -0.984093
     3  C   -1.192816   1.319893
     4  C    0.617262  -1.340919
     5  C   -0.297659  -0.004638
     6  O   -0.101764   0.034952
     7  C    0.865027  -1.393524
     8  C   -0.443806   0.858025
     9  C   -0.157313   0.245097
    10  C   -0.319214   0.132317
    11  C   -0.728517  -0.017018
    12  C    0.200472  -0.196733
    13  C    0.152470  -0.395737
    14  O   -0.137756   0.004110
    15  C   -0.323398  -0.001583
    16  O    0.303500   0.000950
    17  O   -0.257171   0.002881
    18  O   -0.086581   0.044539
    19  O   -0.112009  -0.039526
    20  H    0.083890   0.035543
    21  H    0.173041  -0.000203
    22  H    0.123193   0.077916
    23  H    0.142197   0.072589
    24  H   -0.836843   1.061504
    25  H   -0.151730   0.349755
    26  H    0.053207   0.065390
    27  H    0.127705   0.027501
    28  H    0.205544  -0.022850
    29  H   -0.309304   0.466997
    30  H    0.022048   0.162396
    31  H    0.102355   0.066642
    32  H    0.169117   0.004064
    33  H    0.172239   0.020524
    34  H   -0.093789   0.343063
    35  H    0.138798   0.008628
    36  H    0.146266  -0.000388
    37  H    0.142037   0.018966
    38  H    0.265541   0.040499
    39  H   -0.396648   0.670938
 Sum of Mulliken charges =  -1.00000   1.00000

 Dipole moment (field-independent basis, Debye):
    X=              9.0715    Y=             -0.3853    Z=              5.5599  Tot=             10.6467
 Quadrupole moment (field-independent basis, Debye-Ang):
   XX=           -172.1094   YY=           -154.1340   ZZ=           -152.2121
   XY=            -12.0941   XZ=            -21.3575   YZ=             -2.1883

 Summary of Natural Population Analysis:

                                       Natural Population
                Natural  -----------------------------------------------
    Atom  No    Charge         Core      Valence    Rydberg      Total
 -----------------------------------------------------------------------
      C    1   -0.31128      0.99958     2.30569    0.00600     3.31128
      C    2    0.29440      0.99955     1.68492    0.02113     2.70560
      C    3   -0.21656      0.99953     2.20291    0.01412     3.21656
      C    4   -0.20251      0.99961     2.19351    0.00939     3.20251
      C    5   -0.01404      0.99955     2.00228    0.01222     3.01404
      O    6   -0.30368      0.99989     3.29511    0.00869     4.30368
      C    7   -0.01142      0.99952     1.99847    0.01343     3.01142
      C    8   -0.04834      0.99948     2.03938    0.00947     3.04834
      C    9   -0.07132      0.99952     2.06230    0.00950     3.07132
      C   10   -0.12244      0.99953     2.11349    0.00942     3.12244
      C   11    0.16157      0.99938     1.82573    0.01331     2.83843
      C   12   -0.16380      0.99952     2.15429    0.00999     3.16380
      C   13   -0.07616      0.99951     2.06580    0.01084     3.07616
      O   14   -0.27271      0.99985     3.26421    0.00865     4.27271
      C   15   -0.10056      0.99961     2.09307    0.00788     3.10056
      O   16   -0.16914      0.99984     3.15915    0.01015     4.16914
      O   17   -0.22351      0.99991     3.21746    0.00614     4.22351
      O   18   -0.17723      0.99987     3.16652    0.01085     4.17723
      O   19   -0.22325      0.99991     3.21686    0.00648     4.22325
      H   20    0.09989      0.00000     0.39937    0.00074     0.40011
      H   21    0.11097      0.00000     0.38821    0.00082     0.38903
      H   22    0.11372      0.00000     0.38543    0.00085     0.38628
      H   23    0.10743      0.00000     0.38963    0.00294     0.39257
      H   24    0.11429      0.00000     0.38239    0.00333     0.38571
      H   25    0.10289      0.00000     0.39580    0.00131     0.39711
      H   26    0.09663      0.00000     0.40237    0.00100     0.40337
      H   27    0.08379      0.00000     0.41524    0.00097     0.41621
      H   28    0.09664      0.00000     0.40192    0.00144     0.40336
      H   29    0.08416      0.00000     0.41409    0.00175     0.41584
      H   30    0.09235      0.00000     0.40639    0.00126     0.40765
      H   31    0.10202      0.00000     0.39697    0.00101     0.39798
      H   32    0.10173      0.00000     0.39713    0.00115     0.39827
      H   33    0.10570      0.00000     0.39340    0.00090     0.39430
      H   34    0.10839      0.00000     0.38968    0.00193     0.39161
      H   35    0.08413      0.00000     0.41455    0.00132     0.41587
      H   36    0.08324      0.00000     0.41557    0.00119     0.41676
      H   37    0.09027      0.00000     0.40903    0.00069     0.40973
      H   38    0.23592      0.00000     0.26159    0.00249     0.26408
      H   39    0.23784      0.00000     0.24200    0.02016     0.26216
 =======================================================================
   * Total *   -0.00000     18.99317    53.76190    0.24494    73.00000

 Normal termination of Gaussian 16 at Sun Dec 13 22:13:54 2020.
