 Gaussian 16, Revision A.03,

 -----------------------------------------------------------
 # opt freq B3LYP/6-31G(d) empiricaldispersion=gd3bj scf=xqc
 -----------------------------------------------------------

 -------------------------------
 CID_136269212_JID_5082_neutraal
 -------------------------------
 Symbolic Z-matrix:
 Charge =  0 Multiplicity = 1

 SCF Done:  E(RB3LYP) =  -684.987941320     A.U. after   15 cycles
 SCF Done:  E(RB3LYP) =  -684.996713669     A.U. after   13 cycles
 SCF Done:  E(RB3LYP) =  -684.995755797     A.U. after   13 cycles
 SCF Done:  E(RB3LYP) =  -684.998336971     A.U. after   11 cycles
 SCF Done:  E(RB3LYP) =  -684.998495097     A.U. after   12 cycles
 SCF Done:  E(RB3LYP) =  -684.998487293     A.U. after   11 cycles
 SCF Done:  E(RB3LYP) =  -684.998603982     A.U. after   11 cycles
 SCF Done:  E(RB3LYP) =  -684.998676482     A.U. after   11 cycles
 SCF Done:  E(RB3LYP) =  -684.998805407     A.U. after   12 cycles
 SCF Done:  E(RB3LYP) =  -684.998863954     A.U. after   10 cycles
 SCF Done:  E(RB3LYP) =  -685.010777811     A.U. after    8 cycles
 SCF Done:  E(RB3LYP) =  -685.010778799     A.U. after    8 cycles
 SCF Done:  E(RB3LYP) =  -685.010779744     A.U. after    8 cycles
 SCF Done:  E(RB3LYP) =  -685.010780339     A.U. after    8 cycles
 SCF Done:  E(RB3LYP) =  -685.010780503     A.U. after    7 cycles
 Optimization completed.
    -- Stationary point found.
 Normal termination of Gaussian 16 at Thu Dec 10 15:35:48 2020.

 --------------------------------------------------------------------
 #N Geom=AllCheck Guess=TCheck SCRF=Check GenChk RB3LYP/6-31G(d) Freq
 --------------------------------------------------------------------

 Structure from the checkpoint file:  "JID_5082.chk"
 -------------------------------
 CID_136269212_JID_5082_neutraal
 -------------------------------
 Charge =  0 Multiplicity = 1

 SCF Done:  E(RB3LYP) =  -685.010780503     A.U. after    1 cycles

  Exact polarizability: 170.464   1.600 137.699  11.020   1.160  92.603
 Approx polarizability: 219.508  13.303 234.199  19.514   5.035 134.425

                      1                      2                      3
                      A                      A                      A
 Frequencies --     31.3728                43.9430                87.2542
 Red. masses --      3.9737                 4.4628                 4.0055
 Frc consts  --      0.0023                 0.0051                 0.0180
 IR Inten    --      0.5892                 0.9956                 0.4854

                      4                      5                      6
                      A                      A                      A
 Frequencies --    119.4011               144.9524               173.1359
 Red. masses --      1.1255                 5.2027                 4.6634
 Frc consts  --      0.0095                 0.0644                 0.0824
 IR Inten    --      0.0964                 0.3594                 0.6014

                      7                      8                      9
                      A                      A                      A
 Frequencies --    187.0626               195.6913               229.9701
 Red. masses --      3.3763                 4.0965                 2.8737
 Frc consts  --      0.0696                 0.0924                 0.0895
 IR Inten    --      3.3592                 2.3595                 0.5678

                     10                     11                     12
                      A                      A                      A
 Frequencies --    270.9563               319.0815               360.6446
 Red. masses --      3.0117                 2.5259                 3.3379
 Frc consts  --      0.1303                 0.1515                 0.2558
 IR Inten    --      3.9059                 3.6214                 4.3043

                     13                     14                     15
                      A                      A                      A
 Frequencies --    390.5328               437.2236               479.9482
 Red. masses --      1.9885                 2.6489                 3.8008
 Frc consts  --      0.1787                 0.2983                 0.5158
 IR Inten    --      1.1626                 1.7369                 6.3152

                     16                     17                     18
                      A                      A                      A
 Frequencies --    507.9188               518.5030               520.4052
 Red. masses --      3.6354                 1.5688                 2.5800
 Frc consts  --      0.5526                 0.2485                 0.4117
 IR Inten    --      6.2926                91.5214                15.0807

                     19                     20                     21
                      A                      A                      A
 Frequencies --    548.3913               578.4713               582.9041
 Red. masses --      3.2650                 2.3238                 3.8379
 Frc consts  --      0.5785                 0.4582                 0.7683
 IR Inten    --      3.5136                11.1073                 1.7134

                     22                     23                     24
                      A                      A                      A
 Frequencies --    630.6509               655.3334               715.4584
 Red. masses --      1.8024                 2.1091                 3.6449
 Frc consts  --      0.4223                 0.5337                 1.0993
 IR Inten    --     81.2715                34.2881                 0.8776

                     25                     26                     27
                      A                      A                      A
 Frequencies --    723.9567               763.5729               801.3249
 Red. masses --      3.0056                 5.6288                 1.6736
 Frc consts  --      0.9281                 1.9336                 0.6331
 IR Inten    --      8.1600                20.3726                76.3605

                     28                     29                     30
                      A                      A                      A
 Frequencies --    821.3304               836.2790               837.1039
 Red. masses --      1.7592                 1.5816                 2.7076
 Frc consts  --      0.6992                 0.6517                 1.1179
 IR Inten    --      7.7392                26.5788                 4.6425

                     31                     32                     33
                      A                      A                      A
 Frequencies --    892.8746               922.2086               965.5209
 Red. masses --      2.3519                 2.0419                 4.3344
 Frc consts  --      1.1047                 1.0232                 2.3807
 IR Inten    --      0.4527                 0.9937                13.5532

                     34                     35                     36
                      A                      A                      A
 Frequencies --    974.3897              1002.3416              1030.1426
 Red. masses --      3.4922                 2.1567                 1.5238
 Frc consts  --      1.9535                 1.2767                 0.9527
 IR Inten    --     12.7116                 6.8097                 2.4079

                     37                     38                     39
                      A                      A                      A
 Frequencies --   1044.6600              1065.9567              1073.6617
 Red. masses --      1.9741                 2.0489                 1.8844
 Frc consts  --      1.2693                 1.3717                 1.2798
 IR Inten    --      6.9565                10.3982                14.2096

                     40                     41                     42
                      A                      A                      A
 Frequencies --   1076.0067              1094.7747              1116.1951
 Red. masses --      1.5956                 2.0514                 1.8426
 Frc consts  --      1.0885                 1.4486                 1.3526
 IR Inten    --      5.0403                 3.4740                 8.7462

                     43                     44                     45
                      A                      A                      A
 Frequencies --   1154.7771              1174.6798              1202.9735
 Red. masses --      3.2034                 2.8921                 1.2419
 Frc consts  --      2.5168                 2.3513                 1.0588
 IR Inten    --     12.7060                69.3439                 4.8727

                     46                     47                     48
                      A                      A                      A
 Frequencies --   1218.9226              1225.0771              1235.6984
 Red. masses --      1.3566                 2.5975                 1.7261
 Frc consts  --      1.1876                 2.2968                 1.5529
 IR Inten    --      4.9303                 4.1200                13.6631

                     49                     50                     51
                      A                      A                      A
 Frequencies --   1292.5504              1329.3516              1334.0148
 Red. masses --      1.2997                 1.3998                 1.3368
 Frc consts  --      1.2793                 1.4574                 1.4017
 IR Inten    --      8.2249                11.7907                41.5039

                     52                     53                     54
                      A                      A                      A
 Frequencies --   1356.6777              1368.9305              1370.1899
 Red. masses --      1.5587                 1.5555                 1.3303
 Frc consts  --      1.6904                 1.7174                 1.4715
 IR Inten    --     33.7334                14.9100                26.4420

                     55                     56                     57
                      A                      A                      A
 Frequencies --   1393.9184              1410.8040              1418.3324
 Red. masses --      1.3465                 1.4440                 1.6230
 Frc consts  --      1.5415                 1.6934                 1.9237
 IR Inten    --      7.3918                 3.2945                78.2828

                     58                     59                     60
                      A                      A                      A
 Frequencies --   1441.5238              1455.8393              1494.6543
 Red. masses --      1.4950                 1.4997                 1.2178
 Frc consts  --      1.8304                 1.8728                 1.6029
 IR Inten    --     45.0090                 8.1225                 4.5448

                     61                     62                     63
                      A                      A                      A
 Frequencies --   1499.8533              1502.8030              1506.4219
 Red. masses --      1.6133                 1.0457                 1.2417
 Frc consts  --      2.1382                 1.3914                 1.6603
 IR Inten    --     55.3141                 6.5405                 1.0564

                     64                     65                     66
                      A                      A                      A
 Frequencies --   1510.5801              1512.5924              1531.5225
 Red. masses --      1.7011                 1.0973                 1.3186
 Frc consts  --      2.2870                 1.4792                 1.8223
 IR Inten    --     30.5675                 8.4998                 3.3826

                     67                     68                     69
                      A                      A                      A
 Frequencies --   1538.4487              1545.7076              1633.5953
 Red. masses --      1.5316                 1.2885                 5.2123
 Frc consts  --      2.1358                 1.8139                 8.1954
 IR Inten    --      0.8162                13.9215               584.3149

                     70                     71                     72
                      A                      A                      A
 Frequencies --   1654.2591              1804.4662              2900.1370
 Red. masses --      4.4964                 9.0085                 1.0741
 Frc consts  --      7.2497                17.2822                 5.3228
 IR Inten    --    624.3210               603.1776                88.3076

                     73                     74                     75
                      A                      A                      A
 Frequencies --   2937.1124              3030.8946              3055.9273
 Red. masses --      1.0734                 1.0836                 1.0367
 Frc consts  --      5.4559                 5.8651                 5.7041
 IR Inten    --     79.5856                24.7844                14.9775

                     76                     77                     78
                      A                      A                      A
 Frequencies --   3062.6340              3070.9761              3091.1663
 Red. masses --      1.0609                 1.0631                 1.0857
 Frc consts  --      5.8631                 5.9070                 6.1121
 IR Inten    --     16.3020                27.4954                53.6811

                     79                     80                     81
                      A                      A                      A
 Frequencies --   3096.0446              3107.9022              3112.4056
 Red. masses --      1.0881                 1.1049                 1.1002
 Frc consts  --      6.1451                 6.2878                 6.2795
 IR Inten    --     31.6654                27.0305                13.3698

                     82                     83                     84
                      A                      A                      A
 Frequencies --   3117.3843              3148.4532              3242.5483
 Red. masses --      1.1054                 1.1026                 1.0921
 Frc consts  --      6.3291                 6.4396                 6.7656
 IR Inten    --     28.7004                19.3112                 2.6425

                     85                     86                     87
                      A                      A                      A
 Frequencies --   3509.1772              3604.0104              3613.5090
 Red. masses --      1.0747                 1.0770                 1.0756
 Frc consts  --      7.7976                 8.2420                 8.2746
 IR Inten    --      0.7145                22.0310                38.7841

 - Thermochemistry -
 -------------------
 Temperature   298.150 Kelvin.  Pressure   1.00000 Atm.
 Atom     1 has atomic number  6 and mass  12.00000

 Molecular mass:   208.13241 amu.
 Principal axes and moments of inertia in atomic units:
                           1         2         3
     Eigenvalues --  1561.198815543.577156272.58904
           X            0.99983  -0.01811   0.00355
           Y            0.01814   0.99979  -0.00972
           Z           -0.00337   0.00978   0.99995
 This molecule is an asymmetric top.
 Rotational symmetry number  1.
 Warning -- assumption of classical behavior for rotation
           may cause significant error
 Rotational temperatures (Kelvin)      0.05548     0.01562     0.01381
 Rotational constants (GHZ):           1.15600     0.32556     0.28772
 Zero-point vibrational energy     703350.1 (Joules/Mol)
                                  168.10471 (Kcal/Mol)
 Warning -- explicit consideration of  21 degrees of freedom as
           vibrations may cause significant error
 Vibrational temperatures:     45.14    63.22   125.54   171.79   208.55
          (Kelvin)            249.10   269.14   281.56   330.88   389.85
                              459.09   518.89   561.89   629.07   690.54
                              730.78   746.01   748.75   789.01   832.29
                              838.67   907.37   942.88  1029.39  1041.61
                             1098.61  1152.93  1181.71  1203.22  1204.41
                             1284.65  1326.85  1389.17  1401.93  1442.15
                             1482.15  1503.03  1533.67  1544.76  1548.13
                             1575.14  1605.96  1661.47  1690.10  1730.81
                             1753.76  1762.61  1777.89  1859.69  1912.64
                             1919.35  1951.96  1969.59  1971.40  2005.54
                             2029.83  2040.66  2074.03  2094.63  2150.47
                             2157.95  2162.20  2167.41  2173.39  2176.28
                             2203.52  2213.48  2223.93  2350.38  2380.11
                             2596.22  4172.65  4225.85  4360.78  4396.80
                             4406.45  4418.45  4447.50  4454.52  4471.58
                             4478.06  4485.22  4529.92  4665.30  5048.92
                             5185.37  5199.03

 Zero-point correction=                           0.267892 (Hartree/Particle)
 Thermal correction to Energy=                    0.281555
 Thermal correction to Enthalpy=                  0.282499
 Thermal correction to Gibbs Free Energy=         0.226777
 Sum of electronic and zero-point Energies=           -684.742889
 Sum of electronic and thermal Energies=              -684.729225
 Sum of electronic and thermal Enthalpies=            -684.728281
 Sum of electronic and thermal Free Energies=         -684.784004

                     E (Thermal)             CV                S
                      KCal/Mol        Cal/Mol-Kelvin    Cal/Mol-Kelvin
 Total                  176.679             53.321            117.279
 Electronic               0.000              0.000              0.000
 Translational            0.889              2.981             41.903
 Rotational               0.889              2.981             32.362
 Vibrational            174.901             47.359             43.013
 Vibration     1          0.594              1.983              5.741
 Vibration     2          0.595              1.980              5.073
 Vibration     3          0.601              1.958              3.721
 Vibration     4          0.609              1.933              3.110
 Vibration     5          0.616              1.908              2.737
 Vibration     6          0.627              1.876              2.401
 Vibration     7          0.632              1.858              2.257
 Vibration     8          0.636              1.846              2.173
 Vibration     9          0.652              1.795              1.879
 Vibration    10          0.675              1.727              1.590
 Vibration    11          0.705              1.637              1.315
 Vibration    12          0.735              1.553              1.119
 Vibration    13          0.758              1.490              0.998
 Vibration    14          0.798              1.389              0.835
 Vibration    15          0.836              1.295              0.710
 Vibration    16          0.863              1.232              0.639
 Vibration    17          0.874              1.209              0.613
 Vibration    18          0.875              1.205              0.609
 Vibration    19          0.904              1.143              0.548
 Vibration    20          0.935              1.078              0.488
 Vibration    21          0.940              1.068              0.480

                           ! Non-Optimized Parameters !
 Normal termination of Gaussian 16 at Thu Dec 10 15:45:29 2020.

 ----------------------------------------------------------------------
 # B3LYP/6-311++G(d,p) empiricaldispersion=gd3bj scf=xqc pop=npa geom=c
 heck
 ----------------------------------------------------------------------

 ---------------------------------------
 CID_136269212_JID_5082_Energie_neutraal
 ---------------------------------------
 Structure from the checkpoint file:  "JID_5082.chk"
 Charge =  0 Multiplicity = 1

 SCF Done:  E(RB3LYP) =  -685.209986347     A.U. after   15 cycles
 Normal termination of Gaussian 16 at Thu Dec 10 15:49:25 2020.

 ----------------------------------------------------------------------
 # B3LYP/6-311++G(d,p) empiricaldispersion=gd3bj scf=xqc pop=npa geom=c
 heck
 ----------------------------------------------------------------------

 -------------------------------------
 CID_136269212_JID_5082_Energie_kation
 -------------------------------------
 Structure from the checkpoint file:  "JID_5082.chk"
 Charge =  1 Multiplicity = 2

 SCF Done:  E(UB3LYP) =  -684.923216059     A.U. after   23 cycles
 Normal termination of Gaussian 16 at Thu Dec 10 16:00:34 2020.
 Gaussian 16:  ES64L-G16RevA.03 25-Dec-2016

 ----------------------------------------------------------------------
 # B3LYP/6-311++G(d,p) empiricaldispersion=gd3bj scf=xqc pop=npa geom=c
 heck
 ----------------------------------------------------------------------

 ------------------------------------
 CID_136269212_JID_5082_Energie_anion
 ------------------------------------
 Structure from the checkpoint file:  "JID_5082.chk"
 Charge = -1 Multiplicity = 2

                         Standard orientation:
 ---------------------------------------------------------------------
 Center     Atomic      Atomic             Coordinates (Angstroms)
 Number     Number       Type             X           Y           Z
 ---------------------------------------------------------------------
      1          6           0        3.547641   -2.356260    0.270918
      2          6           0        2.764524   -1.086577    0.084195
      3          6           0        3.349214    0.146961    0.224398
      4          6           0        2.577891    1.346325    0.037714
      5          8           0        2.936129    2.514540    0.119961
      6          7           0        1.219210    1.064538   -0.284416
      7          6           0        0.714233   -0.196183   -0.407395
      8          7           0        1.443311   -1.276616   -0.224938
      9          7           0       -0.592735   -0.346400   -0.765658
     10          6           0       -1.629746    0.680453   -0.660730
     11          6           0       -1.925138    1.086152    0.799414
     12          6           0       -2.628893   -0.044569    1.551753
     13          7           0       -3.862635   -0.400182    0.848828
     14          6           0       -3.595882   -0.921342   -0.488806
     15          6           0       -2.913153    0.162673   -1.330075
     16          1           0        3.509746   -2.957300   -0.644820
     17          1           0        4.592035   -2.155893    0.522635
     18          1           0        3.097648   -2.960546    1.066904
     19          1           0        4.396312    0.259531    0.475328
     20          1           0        0.648102    1.884394   -0.447533
     21          1           0       -0.879705   -1.315554   -0.729534
     22          1           0       -1.285939    1.558009   -1.224063
     23          1           0       -0.997737    1.359949    1.314205
     24          1           0       -2.577292    1.967380    0.791115
     25          1           0       -1.933172   -0.900174    1.654237
     26          1           0       -2.885593    0.286087    2.563251
     27          1           0       -4.383507   -1.086423    1.389393
     28          1           0       -4.545744   -1.202070   -0.955862
     29          1           0       -2.969831   -1.838164   -0.473620
     30          1           0       -3.606334    1.003684   -1.433899
     31          1           0       -2.682225   -0.214408   -2.332451
 ---------------------------------------------------------------------

 SCF Done:  E(UB3LYP) =  -685.202182326     A.U. after   33 cycles
 SCF Done:  E(UB3LYP) =  -685.202182326     a.u. after    1 cycles

 The electronic state is 2-A.
 Alpha  occ. eigenvalues --  -18.98997 -14.26977 -14.24758 -14.20251 -14.19864
 Alpha  occ. eigenvalues --  -10.19985 -10.17916 -10.12901 -10.12837 -10.09634
 Alpha  occ. eigenvalues --  -10.09574 -10.08286 -10.07788 -10.07747 -10.06831
 Alpha  occ. eigenvalues --   -0.95074  -0.91194  -0.83720  -0.81073  -0.80786
 Alpha  occ. eigenvalues --   -0.70993  -0.67405  -0.66367  -0.63355  -0.56987
 Alpha  occ. eigenvalues --   -0.55526  -0.53379  -0.52288  -0.48690  -0.45296
 Alpha  occ. eigenvalues --   -0.44351  -0.42225  -0.42039  -0.38445  -0.37015
 Alpha  occ. eigenvalues --   -0.35951  -0.35733  -0.35048  -0.33459  -0.32859
 Alpha  occ. eigenvalues --   -0.32821  -0.31405  -0.30651  -0.29854  -0.29524
 Alpha  occ. eigenvalues --   -0.28452  -0.27205  -0.26102  -0.23744  -0.23060
 Alpha  occ. eigenvalues --   -0.21299  -0.18860  -0.18082  -0.16876  -0.13334
 Alpha  occ. eigenvalues --   -0.12587   0.04079
 Alpha virt. eigenvalues --    0.05860   0.06521   0.06644   0.07423   0.08644
 Alpha virt. eigenvalues --    0.09175   0.09427   0.09701   0.10187   0.10430
 Alpha virt. eigenvalues --    0.10842   0.11101   0.12260   0.12869   0.13412

  Beta  occ. eigenvalues --  -18.98971 -14.26939 -14.24745 -14.20263 -14.19828
  Beta  occ. eigenvalues --  -10.19956 -10.17891 -10.12886 -10.12743 -10.09599
  Beta  occ. eigenvalues --  -10.09551 -10.08287 -10.07779 -10.07724 -10.06829
  Beta  occ. eigenvalues --   -0.95019  -0.91145  -0.83677  -0.81021  -0.80720
  Beta  occ. eigenvalues --   -0.70920  -0.67352  -0.66314  -0.63301  -0.56933
  Beta  occ. eigenvalues --   -0.55475  -0.53316  -0.52194  -0.48637  -0.45222
  Beta  occ. eigenvalues --   -0.44302  -0.42158  -0.41946  -0.38358  -0.36964
  Beta  occ. eigenvalues --   -0.35848  -0.35683  -0.35010  -0.33382  -0.32798
  Beta  occ. eigenvalues --   -0.32759  -0.31352  -0.30627  -0.29806  -0.29468
  Beta  occ. eigenvalues --   -0.28333  -0.27168  -0.26054  -0.23674  -0.22998
  Beta  occ. eigenvalues --   -0.21099  -0.18852  -0.17967  -0.16842  -0.13259
  Beta  occ. eigenvalues --   -0.12505
  Beta virt. eigenvalues --    0.06262   0.06519   0.06830   0.07652   0.08223
  Beta virt. eigenvalues --    0.09030   0.09169   0.09815   0.10267   0.10525
  Beta virt. eigenvalues --    0.10642   0.11179   0.11259   0.12529   0.13355

 Mulliken charges and spin densities:
               1          2
     1  C    0.128889  -0.638308
     2  C    0.481368  -0.163069
     3  C   -0.575735   0.400641
     4  C    0.230871  -0.239851
     5  O   -0.378087   0.006584
     6  N   -0.223395  -0.003561
     7  C   -0.454215   0.168002
     8  N   -0.129101   0.018516
     9  N   -0.149703   0.116661
    10  C    0.609700  -0.556547
    11  C   -0.626113   0.466677
    12  C    0.871584  -1.410661
    13  N   -0.430573   0.290903
    14  C    1.302306  -1.600252
    15  C   -0.428953  -0.144591
    16  H    0.112565   0.043278
    17  H    0.098320   0.045338
    18  H    0.018354   0.144994
    19  H    0.079840   0.093421
    20  H    0.297329   0.079094
    21  H    0.367479  -0.051330
    22  H   -0.335716   0.528785
    23  H    0.159111  -0.041457
    24  H   -0.047812   0.215918
    25  H   -0.178691   0.333428
    26  H   -0.258595   0.451885
    27  H   -0.296406   0.555114
    28  H   -0.639770   0.843303
    29  H   -0.295389   0.388442
    30  H   -0.002500   0.168901
    31  H   -0.306963   0.489742
 Sum of Mulliken charges =  -1.00000   1.00000

 Dipole moment (field-independent basis, Debye):
    X=              6.1499    Y=             -0.0614    Z=             -0.4649  Tot=              6.1678
 Quadrupole moment (field-independent basis, Debye-Ang):
   XX=           -179.9796   YY=           -133.5195   ZZ=           -125.7048
   XY=            -21.6322   XZ=              1.1674   YZ=              1.4103

 Summary of Natural Population Analysis:

                                       Natural Population
                Natural  -----------------------------------------------
    Atom  No    Charge         Core      Valence    Rydberg      Total
 -----------------------------------------------------------------------
      C    1   -0.29836      0.99963     2.29314    0.00559     3.29836
      C    2    0.14183      0.99954     1.84685    0.01178     2.85817
      C    3   -0.20278      0.99945     2.19461    0.00871     3.20278
      C    4    0.32338      0.99963     1.65524    0.02174     2.67662
      O    5   -0.32591      0.99988     3.32019    0.00583     4.32591
      N    6   -0.30736      0.99964     2.80065    0.00708     3.80736
      C    7    0.33577      0.99960     1.64984    0.01479     2.66423
      N    8   -0.30482      0.99964     2.79478    0.01039     3.80482
      N    9   -0.31092      0.99965     2.80056    0.01070     3.81092
      C   10   -0.01078      0.99958     1.99829    0.01291     3.01078
      C   11   -0.19940      0.99960     2.19232    0.00748     3.19940
      C   12   -0.08976      0.99962     2.07823    0.01190     3.08976
      N   13   -0.34154      0.99974     2.82869    0.01312     3.84154
      C   14   -0.08776      0.99962     2.07621    0.01192     3.08776
      C   15   -0.19533      0.99960     2.18560    0.01013     3.19533
      H   16    0.10709      0.00000     0.39163    0.00128     0.39291
      H   17    0.09811      0.00000     0.40111    0.00079     0.40189
      H   18    0.10937      0.00000     0.38904    0.00160     0.39063
      H   19    0.10646      0.00000     0.39257    0.00096     0.39354
      H   20    0.20515      0.00000     0.29194    0.00291     0.29485
      H   21    0.20029      0.00000     0.29550    0.00421     0.29971
      H   22    0.09631      0.00000     0.40143    0.00227     0.40369
      H   23    0.10073      0.00000     0.39804    0.00122     0.39927
      H   24    0.10287      0.00000     0.39578    0.00135     0.39713
      H   25    0.07950      0.00000     0.41859    0.00191     0.42050
      H   26    0.09931      0.00000     0.39943    0.00126     0.40069
      H   27    0.18147      0.00000     0.31259    0.00595     0.31853
      H   28    0.10294      0.00000     0.39456    0.00250     0.39706
      H   29    0.07310      0.00000     0.42450    0.00240     0.42690
      H   30    0.10518      0.00000     0.39333    0.00149     0.39482
      H   31    0.10585      0.00000     0.39257    0.00159     0.39415
 =======================================================================
   * Total *   -0.00000     14.99442    40.80782    0.19775    56.00000

 Normal termination of Gaussian 16 at Thu Dec 10 16:18:18 2020.
