 Gaussian 16, Revision A.03,

 -----------------------------------------------------------
 # opt freq B3LYP/6-31G(d) empiricaldispersion=gd3bj scf=xqc
 -----------------------------------------------------------

 -----------------------------
 CID_62071719_JID_683_neutraal
 -----------------------------
 Symbolic Z-matrix:
 Charge =  0 Multiplicity = 1

 SCF Done:  E(RB3LYP) =  -425.181695103     A.U. after   12 cycles
 SCF Done:  E(RB3LYP) =  -425.185844343     A.U. after   11 cycles
 SCF Done:  E(RB3LYP) =  -425.186131031     A.U. after   10 cycles
 SCF Done:  E(RB3LYP) =  -425.186168884     A.U. after   10 cycles
 SCF Done:  E(RB3LYP) =  -425.186409335     A.U. after   10 cycles
 SCF Done:  E(RB3LYP) =  -425.186440036     A.U. after    9 cycles
 SCF Done:  E(RB3LYP) =  -425.186453718     A.U. after    8 cycles
 SCF Done:  E(RB3LYP) =  -425.186455441     A.U. after    7 cycles
 SCF Done:  E(RB3LYP) =  -425.186455933     A.U. after    7 cycles
 SCF Done:  E(RB3LYP) =  -425.186456006     A.U. after    6 cycles
 Optimization completed.
    -- Stationary point found.

 1\1\GINC-NODE223\FOpt\RB3LYP\6-31G(d)\C8H18N2\VSC10255\08-Dec-2020\0\\
 # opt freq B3LYP/6-31G(d) empiricaldispersion=gd3bj scf=xqc\\CID_62071
 719_JID_683_neutraal\\0,1\C,1.1580278425,0.1005093846,0.0713604614\C,1
 .2094758228,-1.1384130127,0.9745713413\C,1.2718915984,-0.9040918535,2.
 5044833438\C,0.3806956759,0.2746247367,2.9315267943\C,0.7699785992,-2.
 1832376271,3.2310023665\N,1.4948328401,-3.4178407322,2.9484942384\N,2.
 6785307452,-0.7570764698,2.9471848213\C,3.5394785303,0.1940714963,2.29
 57985645\C,3.5093511633,1.6920514814,2.5517633859\C,4.6421096992,0.837

 Normal termination of Gaussian 16 at Tue Dec  8 12:25:30 2020.

 --------------------------------------------------------------------
 #N Geom=AllCheck Guess=TCheck SCRF=Check GenChk RB3LYP/6-31G(d) Freq
 --------------------------------------------------------------------

 Structure from the checkpoint file:  "JID_683.chk"
 -----------------------------
 CID_62071719_JID_683_neutraal
 -----------------------------
 Charge =  0 Multiplicity = 1

 SCF Done:  E(RB3LYP) =  -425.186456006     A.U. after    1 cycles

  Exact polarizability: 104.675  -2.065  94.339  -0.961  -0.654  88.482
 Approx polarizability: 134.946  -2.607 131.553  -0.015   0.018 128.497

                      1                      2                      3
                      A                      A                      A
 Frequencies --     69.7744               104.3578               138.8688
 Red. masses --      2.7098                 2.7897                 2.4212
 Frc consts  --      0.0078                 0.0179                 0.0275
 IR Inten    --      0.3612                 0.5053                 0.0465

                      4                      5                      6
                      A                      A                      A
 Frequencies --    159.1933               162.1254               214.9562
 Red. masses --      2.1704                 2.6582                 1.6286
 Frc consts  --      0.0324                 0.0412                 0.0443
 IR Inten    --      0.3198                 0.7024                 1.4107

                      7                      8                      9
                      A                      A                      A
 Frequencies --    226.5530               265.1188               301.5323
 Red. masses --      1.8469                 1.6997                 1.3858
 Frc consts  --      0.0559                 0.0704                 0.0742
 IR Inten    --      2.3219                 2.5980                 1.4914

                     10                     11                     12
                      A                      A                      A
 Frequencies --    326.3240               336.4170               349.6032
 Red. masses --      1.9362                 2.2807                 1.3615
 Frc consts  --      0.1215                 0.1521                 0.0980
 IR Inten    --      0.7370                 1.5325                37.4737

                     13                     14                     15
                      A                      A                      A
 Frequencies --    371.4360               444.8598               460.3563
 Red. masses --      2.3857                 1.9710                 1.9982
 Frc consts  --      0.1939                 0.2298                 0.2495
 IR Inten    --      1.4594                 7.5483                 6.0650

                     16                     17                     18
                      A                      A                      A
 Frequencies --    494.2350               576.7158               695.0360
 Red. masses --      2.5766                 2.6954                 2.4657
 Frc consts  --      0.3708                 0.5282                 0.7018
 IR Inten    --      2.9600                25.2213                42.8270

                     19                     20                     21
                      A                      A                      A
 Frequencies --    744.0006               774.3297               793.8337
 Red. masses --      1.9171                 1.1893                 1.2614
 Frc consts  --      0.6252                 0.4202                 0.4683
 IR Inten    --     13.6736                 7.8904                 7.1016

                     22                     23                     24
                      A                      A                      A
 Frequencies --    817.0770               862.9723               888.9395
 Red. masses --      1.5695                 1.5297                 1.5562
 Frc consts  --      0.6174                 0.6712                 0.7245
 IR Inten    --     12.6604                14.9298                 0.4801

                     25                     26                     27
                      A                      A                      A
 Frequencies --    907.1094               941.1828               962.7762
 Red. masses --      1.9481                 1.8559                 2.0440
 Frc consts  --      0.9445                 0.9686                 1.1163
 IR Inten    --     30.0718                 4.6839               145.1961

                     28                     29                     30
                      A                      A                      A
 Frequencies --    979.5282              1006.3566              1028.0194
 Red. masses --      1.5672                 1.7773                 1.6768
 Frc consts  --      0.8860                 1.0605                 1.0441
 IR Inten    --    124.4874                16.5203                10.9343

                     31                     32                     33
                      A                      A                      A
 Frequencies --   1045.6554              1060.8358              1079.7637
 Red. masses --      1.7180                 1.8401                 1.5081
 Frc consts  --      1.1067                 1.2201                 1.0360
 IR Inten    --      4.5916                 8.7489                 5.5191

                     34                     35                     36
                      A                      A                      A
 Frequencies --   1081.8839              1129.5165              1149.3488
 Red. masses --      1.5766                 2.2742                 1.1391
 Frc consts  --      1.0873                 1.7095                 0.8866
 IR Inten    --      7.0227                 3.6728                 7.2214

                     37                     38                     39
                      A                      A                      A
 Frequencies --   1162.5455              1183.0932              1202.1804
 Red. masses --      1.3970                 2.3999                 2.5989
 Frc consts  --      1.1124                 1.9792                 2.2130
 IR Inten    --      5.1581                16.0272                14.5356

                     40                     41                     42
                      A                      A                      A
 Frequencies --   1208.1985              1240.5047              1268.0393
 Red. masses --      1.3847                 2.3591                 2.1024
 Frc consts  --      1.1909                 2.1389                 1.9918
 IR Inten    --      2.1313                 5.9539                34.2064

                     43                     44                     45
                      A                      A                      A
 Frequencies --   1293.1908              1344.2120              1381.9718
 Red. masses --      1.9800                 1.3276                 1.3478
 Frc consts  --      1.9509                 1.4133                 1.5166
 IR Inten    --      1.6771                 7.7237                 6.0786

                     46                     47                     48
                      A                      A                      A
 Frequencies --   1393.3412              1408.9923              1417.3390
 Red. masses --      1.3384                 1.4203                 1.2189
 Frc consts  --      1.5309                 1.6613                 1.4426
 IR Inten    --      9.8558                 4.7892                 5.6548

                     49                     50                     51
                      A                      A                      A
 Frequencies --   1431.8720              1444.9564              1488.4678
 Red. masses --      1.2527                 1.2220                 1.0967
 Frc consts  --      1.5132                 1.5032                 1.4316
 IR Inten    --      8.6049                 4.9378                 1.9224

                     52                     53                     54
                      A                      A                      A
 Frequencies --   1504.9725              1514.8838              1517.2549
 Red. masses --      1.1183                 1.0642                 1.0799
 Frc consts  --      1.4924                 1.4390                 1.4647
 IR Inten    --     10.1160                 0.9384                 4.1140

                     55                     56                     57
                      A                      A                      A
 Frequencies --   1528.4916              1530.9275              1534.1430
 Red. masses --      1.1894                 1.0575                 1.0885
 Frc consts  --      1.6373                 1.4603                 1.5095
 IR Inten    --      3.5512                 7.0178                 6.1659

                     58                     59                     60
                      A                      A                      A
 Frequencies --   1545.2323              1553.1965              1708.2876
 Red. masses --      1.1631                 1.1589                 1.0849
 Frc consts  --      1.6363                 1.6473                 1.8653
 IR Inten    --     10.6594                 8.4363                16.2113

                     61                     62                     63
                      A                      A                      A
 Frequencies --   3016.2924              3031.9386              3041.7476
 Red. masses --      1.0666                 1.0643                 1.0416
 Frc consts  --      5.7173                 5.7642                 5.6778
 IR Inten    --     42.5360                30.5038                29.8905

                     64                     65                     66
                      A                      A                      A
 Frequencies --   3059.9568              3075.4773              3080.5165
 Red. masses --      1.0390                 1.0968                 1.0978
 Frc consts  --      5.7317                 6.1121                 6.1379
 IR Inten    --     28.2919                 2.8037                36.7799

                     67                     68                     69
                      A                      A                      A
 Frequencies --   3098.0244              3117.4215              3138.3196
 Red. masses --      1.1012                 1.1008                 1.0536
 Frc consts  --      6.2273                 6.3028                 6.1138
 IR Inten    --     52.8395                37.7197                22.6508

                     70                     71                     72
                      A                      A                      A
 Frequencies --   3143.3206              3147.1742              3147.9932
 Red. masses --      1.0670                 1.0984                 1.0877
 Frc consts  --      6.2113                 6.4097                 6.3505
 IR Inten    --      5.0256                34.9745                20.9455

                     73                     74                     75
                      A                      A                      A
 Frequencies --   3165.0127              3215.6063              3231.7947
 Red. masses --      1.0895                 1.1179                 1.1150
 Frc consts  --      6.4301                 6.8102                 6.8616
 IR Inten    --     14.0333                 2.1816                26.0308

                     76                     77                     78
                      A                      A                      A
 Frequencies --   3451.8176              3482.0121              3538.3836
 Red. masses --      1.0494                 1.0733                 1.0910
 Frc consts  --      7.3670                 7.6674                 8.0478
 IR Inten    --      4.1195                 1.0836                 1.7005

 - Thermochemistry -
 -------------------
 Temperature   298.150 Kelvin.  Pressure   1.00000 Atm.
 Atom     1 has atomic number  6 and mass  12.00000

 Molecular mass:   142.14700 amu.
 Principal axes and moments of inertia in atomic units:
                           1         2         3
     Eigenvalues --  1085.542441908.891382298.36663
           X            0.99992  -0.01268  -0.00105
           Y            0.01266   0.99979  -0.01634
           Z            0.00125   0.01633   0.99987
 This molecule is an asymmetric top.
 Rotational symmetry number  1.
 Warning -- assumption of classical behavior for rotation
           may cause significant error
 Rotational temperatures (Kelvin)      0.07979     0.04537     0.03768
 Rotational constants (GHZ):           1.66252     0.94544     0.78523
 Zero-point vibrational energy     681510.7 (Joules/Mol)
                                  162.88497 (Kcal/Mol)
 Warning -- explicit consideration of  17 degrees of freedom as
           vibrations may cause significant error
 Vibrational temperatures:    100.39   150.15   199.80   229.04   233.26
          (Kelvin)            309.27   325.96   381.45   433.84   469.51
                              484.03   503.00   534.41   640.05   662.35
                              711.09   829.77  1000.00  1070.45  1114.09
                             1142.15  1175.59  1241.62  1278.99  1305.13
                             1354.15  1385.22  1409.32  1447.92  1479.09
                             1504.46  1526.31  1553.54  1556.59  1625.12
                             1653.66  1672.64  1702.21  1729.67  1738.33
                             1784.81  1824.43  1860.61  1934.02  1988.35
                             2004.71  2027.23  2039.23  2060.14  2078.97
                             2141.57  2165.32  2179.58  2182.99  2199.16
                             2202.66  2207.29  2223.24  2234.70  2457.84
                             4339.77  4362.28  4376.40  4402.60  4424.93
                             4432.18  4457.37  4485.27  4515.34  4522.54
                             4528.08  4529.26  4553.75  4626.54  4649.83
                             4966.40  5009.84  5090.94

 Zero-point correction=                           0.259574 (Hartree/Particle)
 Thermal correction to Energy=                    0.271350
 Thermal correction to Enthalpy=                  0.272294
 Thermal correction to Gibbs Free Energy=         0.223062
 Sum of electronic and zero-point Energies=           -424.926882
 Sum of electronic and thermal Energies=              -424.915106
 Sum of electronic and thermal Enthalpies=            -424.914162
 Sum of electronic and thermal Free Energies=         -424.963394

                     E (Thermal)             CV                S
                      KCal/Mol        Cal/Mol-Kelvin    Cal/Mol-Kelvin
 Total                  170.274             45.567            103.617
 Electronic               0.000              0.000              0.000
 Translational            0.889              2.981             40.766
 Rotational               0.889              2.981             29.944
 Vibrational            168.497             39.605             32.906
 Vibration     1          0.598              1.969              4.160
 Vibration     2          0.605              1.946              3.371
 Vibration     3          0.614              1.914              2.819
 Vibration     4          0.621              1.892              2.559
 Vibration     5          0.622              1.889              2.525
 Vibration     6          0.645              1.818              2.001
 Vibration     7          0.650              1.801              1.906
 Vibration     8          0.671              1.737              1.628
 Vibration     9          0.694              1.671              1.408
 Vibration    10          0.710              1.623              1.278
 Vibration    11          0.717              1.603              1.229
 Vibration    12          0.727              1.576              1.168
 Vibration    13          0.743              1.531              1.074
 Vibration    14          0.804              1.372              0.811
 Vibration    15          0.818              1.338              0.765
 Vibration    16          0.850              1.263              0.673
 Vibration    17          0.933              1.082              0.491

 Optimization completed.
    -- Stationary point found.

 1\1\GINC-NODE223\Freq\RB3LYP\6-31G(d)\C8H18N2\VSC10255\08-Dec-2020\0\\
 #N Geom=AllCheck Guess=TCheck SCRF=Check GenChk RB3LYP/6-31G(d) Freq\\
 CID_62071719_JID_683_neutraal\\0,1\C,1.1580278425,0.1005093846,0.07136
 04614\C,1.2094758228,-1.1384130127,0.9745713413\C,1.2718915984,-0.9040
 918535,2.5044833438\C,0.3806956759,0.2746247367,2.9315267943\C,0.76997
 85992,-2.1832376271,3.2310023665\N,1.4948328401,-3.4178407322,2.948494
 2384\N,2.6785307452,-0.7570764698,2.9471848213\C,3.5394785303,0.194071
 4963,2.2957985645\C,3.5093511633,1.6920514814,2.5517633859\C,4.6421096

 Normal termination of Gaussian 16 at Tue Dec  8 12:32:31 2020.

 ----------------------------------------------------------------------
 # B3LYP/6-311++G(d,p) empiricaldispersion=gd3bj scf=xqc pop=npa geom=c
 heck
 ----------------------------------------------------------------------

 -------------------------------------
 CID_62071719_JID_683_Energie_neutraal
 -------------------------------------
 Structure from the checkpoint file:  "JID_683.chk"
 Charge =  0 Multiplicity = 1

 SCF Done:  E(RB3LYP) =  -425.317355482     A.U. after   13 cycles
 Normal termination of Gaussian 16 at Tue Dec  8 12:39:39 2020.

 ----------------------------------------------------------------------
 # B3LYP/6-311++G(d,p) empiricaldispersion=gd3bj scf=xqc pop=npa geom=c
 heck
 ----------------------------------------------------------------------

 -----------------------------------
 CID_62071719_JID_683_Energie_kation
 -----------------------------------
 Structure from the checkpoint file:  "JID_683.chk"
 Charge =  1 Multiplicity = 2

 SCF Done:  E(UB3LYP) =  -425.022017116     A.U. after   25 cycles
 Normal termination of Gaussian 16 at Tue Dec  8 12:49:35 2020.
 Gaussian 16:  ES64L-G16RevA.03 25-Dec-2016

 ----------------------------------
 CID_62071719_JID_683_Energie_anion
 ----------------------------------
 Structure from the checkpoint file:  "JID_683.chk"
 Charge = -1 Multiplicity = 2

                         Standard orientation:
 ---------------------------------------------------------------------
 Center     Atomic      Atomic             Coordinates (Angstroms)
 Number     Number       Type             X           Y           Z
 ---------------------------------------------------------------------
      1          6           0       -0.187666    2.396831   -0.691825
      2          6           0       -1.040217    1.122090   -0.731292
      3          6           0       -0.777275    0.053684    0.359031
      4          6           0       -0.492906    0.700177    1.725468
      5          6           0       -2.037547   -0.845452    0.497694
      6          7           0       -2.470662   -1.547513   -0.706046
      7          7           0        0.292027   -0.875557   -0.076098
      8          6           0        1.553976   -0.354291   -0.529953
      9          6           0        2.648501    0.160937    0.390332
     10          6           0        2.796508   -1.167931   -0.321415
     11          1           0       -0.389962    2.984719    0.209415
     12          1           0       -0.421657    3.030556   -1.554788
     13          1           0        0.884048    2.184578   -0.711562
     14          1           0       -2.093618    1.423640   -0.650098
     15          1           0       -0.938668    0.636977   -1.709193
     16          1           0       -1.314351    1.361124    2.028738
     17          1           0       -0.388693   -0.073559    2.496696
     18          1           0        0.426222    1.289995    1.712194
     19          1           0       -1.830219   -1.599229    1.272080
     20          1           0       -2.870941   -0.238806    0.872447
     21          1           0       -2.827723   -0.873796   -1.381998
     22          1           0       -1.635783   -1.952399   -1.131992
     23          1           0        0.450715   -1.556907    0.664593
     24          1           0        1.476102    0.141295   -1.494282
     25          1           0        3.260197    0.998139    0.063065
     26          1           0        2.465344    0.132080    1.460344
     27          1           0        2.711921   -2.071164    0.279509
     28          1           0        3.507271   -1.252022   -1.138401
 ---------------------------------------------------------------------

 SCF Done:  E(UB3LYP) =  -425.300077347     A.U. after   29 cycles

 The electronic state is 2-A.
 Alpha  occ. eigenvalues --  -14.19626 -14.18302 -10.09934 -10.09850 -10.08234
 Alpha  occ. eigenvalues --  -10.06896 -10.06409 -10.05908 -10.05023 -10.04859
 Alpha  occ. eigenvalues --   -0.82166  -0.77492  -0.72981  -0.66856  -0.62064
 Alpha  occ. eigenvalues --   -0.56009  -0.52492  -0.50155  -0.49499  -0.44761
 Alpha  occ. eigenvalues --   -0.39541  -0.39360  -0.37720  -0.35524  -0.34521
 Alpha  occ. eigenvalues --   -0.32687  -0.31473  -0.29652  -0.28567  -0.27716
 Alpha  occ. eigenvalues --   -0.27288  -0.26322  -0.25267  -0.24371  -0.23493
 Alpha  occ. eigenvalues --   -0.22272  -0.20914  -0.19197  -0.13609  -0.11593
 Alpha  occ. eigenvalues --    0.04799
 Alpha virt. eigenvalues --    0.07059   0.07291   0.07951   0.09188   0.09641
 Alpha virt. eigenvalues --    0.09925   0.10396   0.10819   0.12093   0.12273
 Alpha virt. eigenvalues --    0.13218   0.13314   0.13686   0.14537   0.15051

  Beta  occ. eigenvalues --  -14.19611 -14.18290 -10.09933 -10.09840 -10.08218
  Beta  occ. eigenvalues --  -10.06871 -10.06384 -10.05882 -10.04991 -10.04826
  Beta  occ. eigenvalues --   -0.82141  -0.77467  -0.72955  -0.66818  -0.62021
  Beta  occ. eigenvalues --   -0.55951  -0.52415  -0.50077  -0.49446  -0.44707
  Beta  occ. eigenvalues --   -0.39509  -0.39296  -0.37686  -0.35494  -0.34487
  Beta  occ. eigenvalues --   -0.32635  -0.31442  -0.29609  -0.28528  -0.27677
  Beta  occ. eigenvalues --   -0.27248  -0.26286  -0.25239  -0.24322  -0.23451
  Beta  occ. eigenvalues --   -0.22240  -0.20882  -0.19166  -0.13592  -0.11571
  Beta virt. eigenvalues --    0.07120   0.08039   0.08169   0.08454   0.09921
  Beta virt. eigenvalues --    0.10203   0.10324   0.10825   0.11304   0.12603
  Beta virt. eigenvalues --    0.12783   0.13560   0.13733   0.14130   0.14852

 Mulliken charges and spin densities:
               1          2
     1  C    0.559766  -1.167983
     2  C   -0.213051  -0.110938
     3  C   -1.592051   1.894564
     4  C    1.860330  -2.646347
     5  C    0.575229  -1.089702
     6  N   -0.369047   0.105825
     7  N    0.233990  -0.164717
     8  C   -1.691783   1.479451
     9  C    0.716758  -1.068592
    10  C    1.176538  -1.521396
    11  H   -0.085986   0.236231
    12  H   -0.559718   0.703161
    13  H   -0.263539   0.423862
    14  H   -0.400245   0.575758
    15  H    0.107045   0.068720
    16  H   -0.185353   0.330861
    17  H   -0.244590   0.392843
    18  H   -0.076456   0.223672
    19  H   -0.087189   0.229573
    20  H   -0.161288   0.329804
    21  H    0.069601   0.154611
    22  H    0.113878   0.140249
    23  H    0.425653  -0.204354
    24  H   -0.218361   0.439960
    25  H   -0.207077   0.346273
    26  H   -0.013057   0.161958
    27  H   -0.388866   0.514357
    28  H   -0.081133   0.222294
 Sum of Mulliken charges =  -1.00000   1.00000

 Dipole moment (field-independent basis, Debye):
    X=              0.2124    Y=             -2.1918    Z=              0.1946  Tot=              2.2106
 Quadrupole moment (field-independent basis, Debye-Ang):
   XX=           -122.4778   YY=           -111.6550   ZZ=           -103.4173
   XY=              0.5910   XZ=              0.8788   YZ=              3.3685

 Summary of Natural Population Analysis:

                                       Natural Population
                Natural  -----------------------------------------------
    Atom  No    Charge         Core      Valence    Rydberg      Total
 -----------------------------------------------------------------------
      C    1   -0.28718      0.99966     2.28164    0.00588     3.28718
      C    2   -0.19981      0.99958     2.18809    0.01213     3.19981
      C    3    0.05573      0.99955     1.92908    0.01564     2.94427
      C    4   -0.29885      0.99961     2.29130    0.00793     3.29885
      C    5   -0.08451      0.99958     2.07255    0.01238     3.08451
      N    6   -0.42111      0.99978     2.91224    0.00910     3.92111
      N    7   -0.34814      0.99971     2.83556    0.01287     3.84814
      C    8   -0.01751      0.99957     2.00415    0.01379     3.01751
      C    9   -0.21237      0.99962     2.20336    0.00938     3.21237
      C   10   -0.19964      0.99962     2.19089    0.00913     3.19964
      H   11    0.09747      0.00000     0.40131    0.00122     0.40253
      H   12    0.10019      0.00000     0.39863    0.00117     0.39981
      H   13    0.09944      0.00000     0.39891    0.00165     0.40056
      H   14    0.09910      0.00000     0.39923    0.00167     0.40090
      H   15    0.10056      0.00000     0.39783    0.00162     0.39944
      H   16    0.10233      0.00000     0.39645    0.00122     0.39767
      H   17    0.09908      0.00000     0.39942    0.00150     0.40092
      H   18    0.10482      0.00000     0.39372    0.00145     0.39518
      H   19    0.08636      0.00000     0.41233    0.00131     0.41364
      H   20    0.09305      0.00000     0.40574    0.00121     0.40695
      H   21    0.17014      0.00000     0.32752    0.00234     0.32986
      H   22    0.17905      0.00000     0.31840    0.00254     0.32095
      H   23    0.17370      0.00000     0.32298    0.00332     0.32630
      H   24    0.09940      0.00000     0.39895    0.00165     0.40060
      H   25    0.10270      0.00000     0.39588    0.00142     0.39730
      H   26    0.10282      0.00000     0.39584    0.00133     0.39718
      H   27    0.09996      0.00000     0.39892    0.00112     0.40004
      H   28    0.10320      0.00000     0.39572    0.00108     0.39680
 =======================================================================
   * Total *   -0.00000      9.99628    29.86666    0.13706    40.00000

 Normal termination of Gaussian 16 at Tue Dec  8 13:04:55 2020.
