 Gaussian 16, Revision A.03,

 -----------------------------------------------------------
 # opt freq B3LYP/6-31G(d) empiricaldispersion=gd3bj scf=xqc
 -----------------------------------------------------------

 ------------------------------
 CID_65414643_JID_5868_neutraal
 ------------------------------
 Symbolic Z-matrix:
 Charge =  0 Multiplicity = 1

 SCF Done:  E(RB3LYP) =  -633.038275921     A.U. after   13 cycles
 SCF Done:  E(RB3LYP) =  -633.042139563     A.U. after   12 cycles
 SCF Done:  E(RB3LYP) =  -633.042576965     A.U. after   11 cycles
 SCF Done:  E(RB3LYP) =  -633.042977376     A.U. after   12 cycles
 SCF Done:  E(RB3LYP) =  -633.043218607     A.U. after   12 cycles
 SCF Done:  E(RB3LYP) =  -633.043517807     A.U. after   12 cycles
 SCF Done:  E(RB3LYP) =  -633.043662602     A.U. after   11 cycles
 SCF Done:  E(RB3LYP) =  -633.043983799     A.U. after   12 cycles
 SCF Done:  E(RB3LYP) =  -633.043867815     A.U. after   11 cycles
 SCF Done:  E(RB3LYP) =  -633.044029534     A.U. after   12 cycles
 SCF Done:  E(RB3LYP) =  -633.044415833     A.U. after    9 cycles
 SCF Done:  E(RB3LYP) =  -633.044416048     A.U. after    8 cycles
 SCF Done:  E(RB3LYP) =  -633.044416082     A.U. after    7 cycles
 SCF Done:  E(RB3LYP) =  -633.044416160     A.U. after    8 cycles
 SCF Done:  E(RB3LYP) =  -633.044416194     A.U. after    7 cycles
 Optimization completed.
    -- Stationary point found.
 Normal termination of Gaussian 16 at Thu Dec 10 17:38:38 2020.

 --------------------------------------------------------------------
 #N Geom=AllCheck Guess=TCheck SCRF=Check GenChk RB3LYP/6-31G(d) Freq
 --------------------------------------------------------------------

 Structure from the checkpoint file:  "JID_5868.chk"
 ------------------------------
 CID_65414643_JID_5868_neutraal
 ------------------------------
 Charge =  0 Multiplicity = 1

 SCF Done:  E(RB3LYP) =  -633.044416194     A.U. after    1 cycles

  Exact polarizability: 175.888  -3.260 148.399  -2.079  -3.792 101.978
 Approx polarizability: 229.856  -2.928 225.638  -6.171 -12.284 154.027

                      1                      2                      3
                      A                      A                      A
 Frequencies --     24.9798                29.0599                33.4254
 Red. masses --      3.4405                 2.8633                 2.8990
 Frc consts  --      0.0013                 0.0014                 0.0019
 IR Inten    --      1.0701                 0.8523                 0.8666

                      4                      5                      6
                      A                      A                      A
 Frequencies --     62.3992                78.1376               123.6615
 Red. masses --      1.0324                 3.7722                 4.0163
 Frc consts  --      0.0024                 0.0136                 0.0362
 IR Inten    --      0.4105                 1.4092                 0.1107

                      7                      8                      9
                      A                      A                      A
 Frequencies --    163.8436               179.4752               201.2075
 Red. masses --      2.8388                 2.3077                 2.8227
 Frc consts  --      0.0449                 0.0438                 0.0673
 IR Inten    --      4.4241                 1.5825                 5.8527

                     10                     11                     12
                      A                      A                      A
 Frequencies --    220.9665               227.9705               248.9559
 Red. masses --      1.4189                 1.0937                 3.1821
 Frc consts  --      0.0408                 0.0335                 0.1162
 IR Inten    --     28.0898                 1.4358                 3.8018

                     13                     14                     15
                      A                      A                      A
 Frequencies --    285.2344               317.7969               341.7373
 Red. masses --      2.5973                 2.8700                 3.9153
 Frc consts  --      0.1245                 0.1708                 0.2694
 IR Inten    --     13.5933                 2.5573                 5.6462

                     16                     17                     18
                      A                      A                      A
 Frequencies --    369.1626               395.6813               452.1158
 Red. masses --      2.1325                 1.9367                 3.1456
 Frc consts  --      0.1712                 0.1786                 0.3788
 IR Inten    --      0.5885                 0.9376                 1.7330

                     19                     20                     21
                      A                      A                      A
 Frequencies --    540.6913               560.0296               613.0152
 Red. masses --      5.2042                 4.3750                 3.2022
 Frc consts  --      0.8964                 0.8085                 0.7090
 IR Inten    --     10.1388                 4.1467                 6.2689

                     22                     23                     24
                      A                      A                      A
 Frequencies --    617.9443               647.6799               710.8590
 Red. masses --      2.7857                 2.5021                 4.0817
 Frc consts  --      0.6267                 0.6184                 1.2152
 IR Inten    --      2.2379                 0.1502                10.6046

                     25                     26                     27
                      A                      A                      A
 Frequencies --    727.4491               805.7710               825.4834
 Red. masses --      3.4657                 2.1791                 3.8625
 Frc consts  --      1.0806                 0.8336                 1.5507
 IR Inten    --      8.1462                 4.1653                13.0433

                     28                     29                     30
                      A                      A                      A
 Frequencies --    847.9724               858.8658               876.9819
 Red. masses --      2.7759                 1.2720                 2.4451
 Frc consts  --      1.1760                 0.5528                 1.1080
 IR Inten    --      7.4313               105.7422                 1.7656

                     31                     32                     33
                      A                      A                      A
 Frequencies --    884.9294               925.1583               941.6348
 Red. masses --      1.4247                 2.2595                 2.1325
 Frc consts  --      0.6574                 1.1395                 1.1140
 IR Inten    --      2.8290                 0.1759                 4.8715

                     34                     35                     36
                      A                      A                      A
 Frequencies --    956.5697               971.0418               986.6226
 Red. masses --      2.8115                 2.1901                 1.6678
 Frc consts  --      1.5157                 1.2167                 0.9565
 IR Inten    --      2.5137                13.6734                 7.1688

                     37                     38                     39
                      A                      A                      A
 Frequencies --   1011.3093              1017.8485              1020.2987
 Red. masses --      3.6762                 2.4217                 2.1451
 Frc consts  --      2.2152                 1.4782                 1.3157
 IR Inten    --      0.5911                 8.6869                 1.0177

                     40                     41                     42
                      A                      A                      A
 Frequencies --   1038.3768              1050.1300              1071.0905
 Red. masses --      2.0127                 1.9574                 1.7139
 Frc consts  --      1.2786                 1.2718                 1.1585
 IR Inten    --      6.2633                 0.5878                 2.4397

                     43                     44                     45
                      A                      A                      A
 Frequencies --   1073.8203              1096.5298              1104.4724
 Red. masses --      1.6194                 2.0008                 1.9640
 Frc consts  --      1.1002                 1.4174                 1.4115
 IR Inten    --      6.0680                 1.8688                 0.5947

                     46                     47                     48
                      A                      A                      A
 Frequencies --   1134.0766              1159.7850              1195.2541
 Red. masses --      1.4243                 1.2946                 1.3679
 Frc consts  --      1.0793                 1.0260                 1.1514
 IR Inten    --      4.2648                 6.5527                 4.3583

                     49                     50                     51
                      A                      A                      A
 Frequencies --   1211.5047              1229.5612              1255.5003
 Red. masses --      1.5612                 1.6204                 1.4353
 Frc consts  --      1.3501                 1.4434                 1.3330
 IR Inten    --      1.5100                 8.8293                 1.0667

                     52                     53                     54
                      A                      A                      A
 Frequencies --   1272.8330              1304.7566              1319.4288
 Red. masses --      2.7260                 1.4799                 1.3521
 Frc consts  --      2.6021                 1.4843                 1.3868
 IR Inten    --      5.0799                 2.8069                 2.2115

                     55                     56                     57
                      A                      A                      A
 Frequencies --   1325.3092              1332.6804              1336.8762
 Red. masses --      1.3197                 1.5428                 1.2061
 Frc consts  --      1.3657                 1.6144                 1.2701
 IR Inten    --      2.0476                26.6021                 9.7320

                     58                     59                     60
                      A                      A                      A
 Frequencies --   1361.6389              1372.5929              1385.5721
 Red. masses --      1.4039                 1.6209                 2.3800
 Frc consts  --      1.5336                 1.7992                 2.6920
 IR Inten    --      2.3269                 4.0824                17.0732

                     61                     62                     63
                      A                      A                      A
 Frequencies --   1398.4121              1430.7353              1433.2952
 Red. masses --      1.4147                 3.9598                 1.3126
 Frc consts  --      1.6299                 4.7758                 1.5888
 IR Inten    --      4.8907                85.1609                 1.4793

                     64                     65                     66
                      A                      A                      A
 Frequencies --   1441.9899              1453.9552              1480.4156
 Red. masses --      1.2742                 1.9370                 2.7437
 Frc consts  --      1.5610                 2.4126                 3.5429
 IR Inten    --      5.8139                29.0891                 2.4801

                     67                     68                     69
                      A                      A                      A
 Frequencies --   1504.3827              1511.4935              1515.6130
 Red. masses --      1.0453                 1.0874                 1.0792
 Frc consts  --      1.3938                 1.4637                 1.4606
 IR Inten    --      5.8768                 1.9291                 2.3398

                     70                     71                     72
                      A                      A                      A
 Frequencies --   1517.3221              1528.5342              1530.9229
 Red. masses --      1.1786                 1.0687                 1.0947
 Frc consts  --      1.5988                 1.4712                 1.5117
 IR Inten    --     31.9489                 4.1860                 1.6892

                     73                     74                     75
                      A                      A                      A
 Frequencies --   1534.4426              1539.1628              1612.4731
 Red. masses --      1.0574                 1.0959                 7.7317
 Frc consts  --      1.4669                 1.5296                11.8443
 IR Inten    --      2.0365                 4.4582               202.0596

                     76                     77                     78
                      A                      A                      A
 Frequencies --   1638.5454              1693.2089              2960.4016
 Red. masses --      5.8155                 1.0975                 1.0729
 Frc consts  --      9.1993                 1.8539                 5.5400
 IR Inten    --    168.8333                32.4954                81.4114

                     79                     80                     81
                      A                      A                      A
 Frequencies --   3042.3745              3043.1081              3056.3233
 Red. masses --      1.0433                 1.0709                 1.0600
 Frc consts  --      5.6898                 5.8429                 5.8339
 IR Inten    --     26.8162                15.4081                46.3738

                     82                     83                     84
                      A                      A                      A
 Frequencies --   3058.9357              3065.3385              3070.3545
 Red. masses --      1.0358                 1.0641                 1.0706
 Frc consts  --      5.7102                 5.8909                 5.9463
 IR Inten    --     13.2747                46.1372                 5.2070

                     85                     86                     87
                      A                      A                      A
 Frequencies --   3096.6850              3097.8568              3108.0323
 Red. masses --      1.1004                 1.0964                 1.1017
 Frc consts  --      6.2174                 6.1991                 6.2703
 IR Inten    --     26.5985                 4.3965                40.2086

                     88                     89                     90
                      A                      A                      A
 Frequencies --   3109.5046              3114.3619              3114.6673
 Red. masses --      1.1015                 1.0958                 1.0900
 Frc consts  --      6.2750                 6.2623                 6.2304
 IR Inten    --     59.3661                19.1859                22.6137

                     91                     92                     93
                      A                      A                      A
 Frequencies --   3120.4136              3129.0190              3141.4913
 Red. masses --      1.1005                 1.1014                 1.1036
 Frc consts  --      6.3137                 6.3535                 6.4171
 IR Inten    --      9.6397                39.4739                17.6294

                     94                     95                     96
                      A                      A                      A
 Frequencies --   3197.3696              3460.8389              3549.9563
 Red. masses --      1.0917                 1.0495                 1.0927
 Frc consts  --      6.5756                 7.4063                 8.1131
 IR Inten    --     13.6285                 2.0717                 0.7641

 - Thermochemistry -
 -------------------
 Temperature   298.150 Kelvin.  Pressure   1.00000 Atm.
 Atom     1 has atomic number  6 and mass  12.00000

 Molecular mass:   205.15790 amu.
 Principal axes and moments of inertia in atomic units:
                           1         2         3
     Eigenvalues --  1936.218585019.160586362.54179
           X            1.00000   0.00084  -0.00078
           Y           -0.00084   0.99999  -0.00323
           Z            0.00078   0.00323   0.99999
 This molecule is an asymmetric top.
 Rotational symmetry number  1.
 Warning -- assumption of classical behavior for rotation
           may cause significant error
 Rotational temperatures (Kelvin)      0.04473     0.01726     0.01361
 Rotational constants (GHZ):           0.93210     0.35957     0.28365
 Zero-point vibrational energy     789760.8 (Joules/Mol)
                                  188.75736 (Kcal/Mol)
 Warning -- explicit consideration of  22 degrees of freedom as
           vibrations may cause significant error
 Vibrational temperatures:     35.94    41.81    48.09    89.78   112.42
          (Kelvin)            177.92   235.73   258.22   289.49   317.92
                              328.00   358.19   410.39   457.24   491.68
                              531.14   569.30   650.49   777.93   805.76
                              881.99   889.08   931.87  1022.77  1046.64
                             1159.32  1187.69  1220.04  1235.72  1261.78
                             1273.22  1331.10  1354.80  1376.29  1397.11
                             1419.53  1455.05  1464.46  1467.98  1493.99
                             1510.90  1541.06  1544.99  1577.66  1589.09
                             1631.68  1668.67  1719.70  1743.09  1769.06
                             1806.38  1831.32  1877.25  1898.36  1906.82
                             1917.43  1923.47  1959.09  1974.86  1993.53
                             2012.00  2058.51  2062.19  2074.70  2091.92
                             2129.99  2164.47  2174.70  2180.63  2183.09
                             2199.22  2202.66  2207.72  2214.51  2319.99
                             2357.50  2436.15  4259.36  4377.30  4378.35
                             4397.37  4401.13  4410.34  4417.56  4455.44
                             4457.12  4471.77  4473.88  4480.87  4481.31
                             4489.58  4501.96  4519.91  4600.30  4979.38
                             5107.60

 Zero-point correction=                           0.300804 (Hartree/Particle)
 Thermal correction to Energy=                    0.316166
 Thermal correction to Enthalpy=                  0.317110
 Thermal correction to Gibbs Free Energy=         0.255985
 Sum of electronic and zero-point Energies=           -632.743612
 Sum of electronic and thermal Energies=              -632.728250
 Sum of electronic and thermal Enthalpies=            -632.727306
 Sum of electronic and thermal Free Energies=         -632.788431

                     E (Thermal)             CV                S
                      KCal/Mol        Cal/Mol-Kelvin    Cal/Mol-Kelvin
 Total                  198.397             57.018            128.649
 Electronic               0.000              0.000              0.000
 Translational            0.889              2.981             41.860
 Rotational               0.889              2.981             32.492
 Vibrational            196.620             51.056             54.297
 Vibration     1          0.593              1.985              6.193
 Vibration     2          0.593              1.984              5.893
 Vibration     3          0.594              1.983              5.615
 Vibration     4          0.597              1.972              4.380
 Vibration     5          0.599              1.964              3.937
 Vibration     6          0.610              1.929              3.042
 Vibration     7          0.623              1.887              2.505
 Vibration     8          0.629              1.868              2.334
 Vibration     9          0.638              1.838              2.122
 Vibration    10          0.648              1.809              1.951
 Vibration    11          0.651              1.798              1.895
 Vibration    12          0.662              1.764              1.738
 Vibration    13          0.683              1.701              1.502
 Vibration    14          0.704              1.640              1.321
 Vibration    15          0.721              1.592              1.204
 Vibration    16          0.741              1.536              1.083
 Vibration    17          0.762              1.479              0.979
 Vibration    18          0.811              1.356              0.789
 Vibration    19          0.896              1.160              0.564
 Vibration    20          0.916              1.118              0.524
 Vibration    21          0.972              1.004              0.428
 Vibration    22          0.978              0.994              0.420

                           ! Non-Optimized Parameters !
 Normal termination of Gaussian 16 at Thu Dec 10 17:49:05 2020.

 ----------------------------------------------------------------------
 # B3LYP/6-311++G(d,p) empiricaldispersion=gd3bj scf=xqc pop=npa geom=c
 heck
 ----------------------------------------------------------------------

 --------------------------------------
 CID_65414643_JID_5868_Energie_neutraal
 --------------------------------------
 Structure from the checkpoint file:  "JID_5868.chk"
 Charge =  0 Multiplicity = 1

 SCF Done:  E(RB3LYP) =  -633.219429794     A.U. after   14 cycles
 Normal termination of Gaussian 16 at Thu Dec 10 17:53:11 2020.

 ----------------------------------------------------------------------
 # B3LYP/6-311++G(d,p) empiricaldispersion=gd3bj scf=xqc pop=npa geom=c
 heck
 ----------------------------------------------------------------------

 ------------------------------------
 CID_65414643_JID_5868_Energie_kation
 ------------------------------------
 Structure from the checkpoint file:  "JID_5868.chk"
 Charge =  1 Multiplicity = 2

 SCF Done:  E(UB3LYP) =  -632.905171936     A.U. after   28 cycles
 Normal termination of Gaussian 16 at Thu Dec 10 18:03:43 2020.
 Gaussian 16:  ES64L-G16RevA.03 25-Dec-2016

 ----------------------------------------------------------------------
 # B3LYP/6-311++G(d,p) empiricaldispersion=gd3bj scf=xqc pop=npa geom=c
 heck
 ----------------------------------------------------------------------

 -----------------------------------
 CID_65414643_JID_5868_Energie_anion
 -----------------------------------
 Structure from the checkpoint file:  "JID_5868.chk"
 Charge = -1 Multiplicity = 2

                         Standard orientation:
 ---------------------------------------------------------------------
 Center     Atomic      Atomic             Coordinates (Angstroms)
 Number     Number       Type             X           Y           Z
 ---------------------------------------------------------------------
      1          6           0        4.506699    0.581864    0.160958
      2          6           0        3.423963   -0.406780    0.609403
      3          6           0        2.914139   -1.286639   -0.547292
      4          6           0        1.910924   -0.394889   -1.308415
      5          6           0        1.371351    0.633506   -0.260814
      6          6           0        2.131509    0.300378    1.055682
      7          6           0       -0.122087    0.563891   -0.080063
      8          7           0       -0.821857    1.696948   -0.224639
      9          6           0       -2.152377    1.623696   -0.046591
     10          6           0       -2.769240    0.414008    0.270042
     11          6           0       -1.957229   -0.716814    0.390176
     12          7           0       -0.634010   -0.641461    0.222125
     13          6           0       -2.547829   -2.078401    0.674800
     14          7           0       -2.924171   -2.723295   -0.592644
     15          6           0       -2.924220    2.904819   -0.205090
     16          1           0        5.397135    0.053560   -0.199584
     17          1           0        4.152974    1.226315   -0.652559
     18          1           0        4.812658    1.233186    0.988085
     19          1           0        3.828820   -1.021803    1.423295
     20          1           0        3.720929   -1.660551   -1.188081
     21          1           0        2.387520   -2.155364   -0.135432
     22          1           0        1.100478   -0.984634   -1.743652
     23          1           0        2.402634    0.140521   -2.127277
     24          1           0        1.602088    1.653141   -0.577186
     25          1           0        1.524150   -0.393619    1.647106
     26          1           0        2.311865    1.193362    1.664289
     27          1           0       -3.842835    0.353634    0.422412
     28          1           0       -1.774242   -2.689791    1.147332
     29          1           0       -3.380981   -1.965901    1.391574
     30          1           0       -3.280624   -3.658226   -0.400813
     31          1           0       -3.691501   -2.206684   -1.020817
     32          1           0       -2.551066    3.658368    0.496944
     33          1           0       -2.778940    3.308468   -1.213161
     34          1           0       -3.994403    2.758844   -0.033143
 ---------------------------------------------------------------------

 SCF Done:  E(UB3LYP) =  -633.213303146     A.U. after   33 cycles
 SCF Done:  E(UB3LYP) =  -633.213303146     a.u. after    1 cycles

 The electronic state is 2-A.
 Alpha  occ. eigenvalues --  -14.17100 -14.16950 -14.16830 -10.10975 -10.08740
 Alpha  occ. eigenvalues --  -10.07748 -10.07643 -10.07124 -10.06913 -10.06286
 Alpha  occ. eigenvalues --  -10.06257 -10.05977 -10.05858 -10.05821 -10.04908
 Alpha  occ. eigenvalues --   -0.85125  -0.76787  -0.74866  -0.74010  -0.67978
 Alpha  occ. eigenvalues --   -0.63965  -0.61140  -0.60419  -0.57234  -0.55917
 Alpha  occ. eigenvalues --   -0.51219  -0.46860  -0.45256  -0.44414  -0.40286
 Alpha  occ. eigenvalues --   -0.38953  -0.36783  -0.36496  -0.34652  -0.34005
 Alpha  occ. eigenvalues --   -0.33068  -0.31947  -0.31606  -0.30650  -0.29677
 Alpha  occ. eigenvalues --   -0.28750  -0.28432  -0.27696  -0.26854  -0.23896
 Alpha  occ. eigenvalues --   -0.23748  -0.23137  -0.22857  -0.22663  -0.22579
 Alpha  occ. eigenvalues --   -0.21228  -0.17412  -0.16887  -0.14261  -0.12513
 Alpha  occ. eigenvalues --   -0.11590   0.04636
 Alpha virt. eigenvalues --    0.06144   0.07591   0.08065   0.08475   0.08689
 Alpha virt. eigenvalues --    0.09406   0.09618   0.10050   0.10572   0.11133
 Alpha virt. eigenvalues --    0.11452   0.11877   0.12022   0.12253   0.12922

  Beta  occ. eigenvalues --  -14.16917 -14.16857 -14.16667 -10.11009 -10.08548
  Beta  occ. eigenvalues --  -10.07642 -10.07507 -10.07117 -10.06916 -10.06284
  Beta  occ. eigenvalues --  -10.06256 -10.05973 -10.05858 -10.05831 -10.04961
  Beta  occ. eigenvalues --   -0.84832  -0.76490  -0.74674  -0.73875  -0.67794
  Beta  occ. eigenvalues --   -0.63907  -0.61069  -0.60285  -0.57217  -0.55749
  Beta  occ. eigenvalues --   -0.51177  -0.46599  -0.45244  -0.44360  -0.40134
  Beta  occ. eigenvalues --   -0.38910  -0.36758  -0.36354  -0.34513  -0.33976
  Beta  occ. eigenvalues --   -0.32791  -0.31710  -0.31473  -0.30628  -0.29630
  Beta  occ. eigenvalues --   -0.28694  -0.28286  -0.27438  -0.26758  -0.23789
  Beta  occ. eigenvalues --   -0.23701  -0.22995  -0.22844  -0.22579  -0.22549
  Beta  occ. eigenvalues --   -0.21208  -0.16662  -0.16171  -0.13783  -0.12360
  Beta  occ. eigenvalues --   -0.11413
  Beta virt. eigenvalues --    0.06146   0.07492   0.08153   0.08437   0.08722
  Beta virt. eigenvalues --    0.09426   0.09472   0.10138   0.10690   0.10763
  Beta virt. eigenvalues --    0.11140   0.11464   0.11853   0.12028   0.12398

 Mulliken charges and spin densities:
               1          2
     1  C   -0.399471  -0.264503
     2  C    0.072311   0.330357
     3  C   -0.393484  -0.210358
     4  C   -0.513975   0.028534
     5  C    0.602947  -0.227974
     6  C   -0.485439  -0.228180
     7  C   -0.865292   0.203405
     8  N   -0.001194   0.119909
     9  C    0.222565   0.301373
    10  C   -0.730795   0.348167
    11  C    0.785814  -0.415132
    12  N    0.071767   0.131758
    13  C    0.594478  -1.319784
    14  N   -0.340946   0.017250
    15  C   -0.089997  -0.432094
    16  H    0.021604   0.105466
    17  H    0.128221   0.024734
    18  H    0.076166   0.043941
    19  H    0.073840   0.121469
    20  H    0.072950   0.059891
    21  H    0.145280   0.002362
    22  H    0.204035  -0.015516
    23  H    0.082253   0.052565
    24  H    0.239852   0.017736
    25  H    0.179536  -0.011661
    26  H    0.118348   0.012262
    27  H   -0.375039   0.562532
    28  H   -0.084184   0.250947
    29  H   -0.200558   0.302437
    30  H   -0.314875   0.556281
    31  H   -0.020896   0.223029
    32  H    0.158301  -0.012446
    33  H    0.000257   0.153611
    34  H   -0.034379   0.167633
 Sum of Mulliken charges =  -1.00000   1.00000

 Dipole moment (field-independent basis, Debye):
    X=              7.2958    Y=              4.4864    Z=              0.7996  Tot=              8.6021
 Quadrupole moment (field-independent basis, Debye-Ang):
   XX=           -156.4978   YY=           -140.0347   ZZ=           -111.6067
   XY=            -17.8509   XZ=             -0.6312   YZ=             -0.2585

 Summary of Natural Population Analysis:

                                       Natural Population
                Natural  -----------------------------------------------
    Atom  No    Charge         Core      Valence    Rydberg      Total
 -----------------------------------------------------------------------
      C    1   -0.28598      0.99965     2.28109    0.00524     3.28598
      C    2   -0.11428      0.99961     2.10460    0.01007     3.11428
      C    3   -0.19142      0.99962     2.18403    0.00777     3.19142
      C    4   -0.18840      0.99963     2.18133    0.00743     3.18840
      C    5   -0.12883      0.99956     2.11823    0.01104     3.12883
      C    6   -0.18455      0.99961     2.17748    0.00746     3.18455
      C    7    0.22123      0.99958     1.76099    0.01821     2.77877
      N    8   -0.24637      0.99965     2.73686    0.00987     3.74637
      C    9    0.15027      0.99956     1.83687    0.01331     2.84973
      C   10   -0.16351      0.99945     2.15548    0.00858     3.16351
      C   11    0.16731      0.99954     1.81865    0.01450     2.83269
      N   12   -0.24679      0.99964     2.73723    0.00992     3.74679
      C   13   -0.10470      0.99959     2.09190    0.01320     3.10470
      N   14   -0.41381      0.99977     2.90304    0.01101     3.91381
      C   15   -0.29871      0.99963     2.29384    0.00524     3.29871
      H   16    0.09507      0.00000     0.40383    0.00110     0.40493
      H   17    0.09692      0.00000     0.40211    0.00097     0.40308
      H   18    0.09583      0.00000     0.40309    0.00108     0.40417
      H   19    0.09463      0.00000     0.40443    0.00094     0.40537
      H   20    0.09343      0.00000     0.40545    0.00112     0.40657
      H   21    0.10296      0.00000     0.39576    0.00128     0.39704
      H   22    0.11130      0.00000     0.38753    0.00117     0.38870
      H   23    0.09190      0.00000     0.40705    0.00105     0.40810
      H   24    0.10423      0.00000     0.39414    0.00163     0.39577
      H   25    0.10801      0.00000     0.39071    0.00128     0.39199
      H   26    0.09657      0.00000     0.40242    0.00101     0.40343
      H   27    0.10234      0.00000     0.39648    0.00118     0.39766
      H   28    0.09779      0.00000     0.40057    0.00163     0.40221
      H   29    0.08073      0.00000     0.41678    0.00249     0.41927
      H   30    0.17661      0.00000     0.31736    0.00604     0.32339
      H   31    0.17178      0.00000     0.32580    0.00241     0.32822
      H   32    0.10437      0.00000     0.39458    0.00105     0.39563
      H   33    0.10681      0.00000     0.39176    0.00143     0.39319
      H   34    0.09729      0.00000     0.40192    0.00079     0.40271
 =======================================================================
   * Total *    0.00000     14.99410    40.82338    0.18252    56.00000

 Normal termination of Gaussian 16 at Thu Dec 10 18:16:08 2020.
