 Gaussian 16, Revision A.03,

 -----------------------------------------------------------
 # opt freq B3LYP/6-31G(d) empiricaldispersion=gd3bj scf=xqc
 -----------------------------------------------------------

 ------------------------------
 CID_55266006_JID_2718_neutraal
 ------------------------------
 Symbolic Z-matrix:
 Charge =  0 Multiplicity = 1

 SCF Done:  E(RB3LYP) =  -529.929396913     A.U. after   15 cycles
 SCF Done:  E(RB3LYP) =  -529.934494802     A.U. after   13 cycles
 SCF Done:  E(RB3LYP) =  -529.936787308     A.U. after   12 cycles
 SCF Done:  E(RB3LYP) =  -529.937488668     A.U. after   12 cycles
 SCF Done:  E(RB3LYP) =  -529.937740380     A.U. after   12 cycles
 SCF Done:  E(RB3LYP) =  -529.937874781     A.U. after   11 cycles
 SCF Done:  E(RB3LYP) =  -529.937916151     A.U. after   11 cycles
 SCF Done:  E(RB3LYP) =  -529.937933844     A.U. after   10 cycles
 SCF Done:  E(RB3LYP) =  -529.937940653     A.U. after    9 cycles
 SCF Done:  E(RB3LYP) =  -529.937946265     A.U. after    9 cycles
 SCF Done:  E(RB3LYP) =  -529.938018501     A.U. after   10 cycles
 SCF Done:  E(RB3LYP) =  -529.938018812     A.U. after   10 cycles
 SCF Done:  E(RB3LYP) =  -529.938019271     A.U. after    8 cycles
 SCF Done:  E(RB3LYP) =  -529.938019934     A.U. after    9 cycles
 SCF Done:  E(RB3LYP) =  -529.938020072     A.U. after    9 cycles
 SCF Done:  E(RB3LYP) =  -529.938020055     A.U. after    7 cycles
 Optimization completed.
    -- Stationary point found.

 1\1\GINC-NODE127\FOpt\RB3LYP\6-31G(d)\C8H10N4\VSC10255\09-Dec-2020\0\\
 # opt freq B3LYP/6-31G(d) empiricaldispersion=gd3bj scf=xqc\\CID_55266
 006_JID_2718_neutraal\\0,1\C,0.8920763785,0.0032294299,-0.0819510972\C
 ,0.1036560097,-0.3314424475,-1.3609569009\C,0.6539191604,-1.5626545965
 ,-2.0280562022\C,1.7111403732,-1.4845774017,-2.9497803201\C,2.19212525
 41,-2.7092040906,-3.4879353794\N,1.6529901784,-3.8840586675,-3.1204759
 622\C,0.6555958774,-3.8433134344,-2.234143407\N,0.1299382748,-2.739649
 275,-1.6708680767\C,0.0491086997,-5.1542546856,-1.8220785561\N,3.20023

 Normal termination of Gaussian 16 at Wed Dec  9 18:16:37 2020.

 --------------------------------------------------------------------
 #N Geom=AllCheck Guess=TCheck SCRF=Check GenChk RB3LYP/6-31G(d) Freq
 --------------------------------------------------------------------

 Structure from the checkpoint file:  "JID_2718.chk"
 ------------------------------
 CID_55266006_JID_2718_neutraal
 ------------------------------
 Charge =  0 Multiplicity = 1

 SCF Done:  E(RB3LYP) =  -529.938020055     A.U. after    1 cycles

  Exact polarizability: 139.692 -10.316 123.100   3.021   5.016  58.175
 Approx polarizability: 219.765 -29.149 197.345   6.813  12.763  86.991

                      1                      2                      3
                      A                      A                      A
 Frequencies --     28.4701                33.9208                53.4840
 Red. masses --      2.6397                 1.0388                 3.5059
 Frc consts  --      0.0013                 0.0007                 0.0059
 IR Inten    --      0.3252                 1.1827                70.9018

                      4                      5                      6
                      A                      A                      A
 Frequencies --     89.7823               124.6447               136.2365
 Red. masses --      1.5079                 3.7342                 5.7551
 Frc consts  --      0.0072                 0.0342                 0.0629
 IR Inten    --    135.0541                18.2072                 7.9733

                      7                      8                      9
                      A                      A                      A
 Frequencies --    210.7290               218.1752               233.7195
 Red. masses --      5.1672                 1.1630                 4.9790
 Frc consts  --      0.1352                 0.0326                 0.1602
 IR Inten    --      4.3046                 0.5316                25.7861

                     10                     11                     12
                      A                      A                      A
 Frequencies --    291.2583               306.6809               321.2111
 Red. masses --      3.3827                 2.3600                 2.5564
 Frc consts  --      0.1691                 0.1308                 0.1554
 IR Inten    --      2.1382                 1.5823                 5.5610

                     13                     14                     15
                      A                      A                      A
 Frequencies --    449.2201               464.7574               516.6261
 Red. masses --      6.2562                 4.1100                 2.3264
 Frc consts  --      0.7438                 0.5230                 0.3658
 IR Inten    --      0.2494                 0.5941                 2.6586

                     16                     17                     18
                      A                      A                      A
 Frequencies --    545.4875               581.3180               610.2089
 Red. masses --      3.8423                 1.6707                 4.3043
 Frc consts  --      0.6736                 0.3326                 0.9443
 IR Inten    --      4.7834                 0.3370                 0.1557

                     19                     20                     21
                      A                      A                      A
 Frequencies --    620.6242               650.8121               700.7236
 Red. masses --      5.5335                 3.8935                 6.1564
 Frc consts  --      1.2558                 0.9716                 1.7810
 IR Inten    --      0.9336                 0.9125                 2.3405

                     22                     23                     24
                      A                      A                      A
 Frequencies --    724.1269               812.8588               816.7114
 Red. masses --      4.6217                 2.5429                 1.8329
 Frc consts  --      1.4278                 0.9899                 0.7203
 IR Inten    --      5.4663                 7.7684                 5.0800

                     25                     26                     27
                      A                      A                      A
 Frequencies --    932.3427               997.4284              1008.2847
 Red. masses --      2.8269                 2.6209                 1.8879
 Frc consts  --      1.4478                 1.5362                 1.1308
 IR Inten    --      8.5267                 6.8008                14.8287

                     28                     29                     30
                      A                      A                      A
 Frequencies --   1068.6846              1075.6036              1103.9350
 Red. masses --      2.1601                 1.7168                 1.7991
 Frc consts  --      1.4535                 1.1703                 1.2918
 IR Inten    --     14.6032                 5.4561                 9.9238

                     31                     32                     33
                      A                      A                      A
 Frequencies --   1118.2059              1138.9255              1219.7834
 Red. masses --      2.0808                 2.1933                 6.1282
 Frc consts  --      1.5329                 1.6763                 5.3722
 IR Inten    --      9.0172                 3.9534                 3.5471

                     34                     35                     36
                      A                      A                      A
 Frequencies --   1278.5218              1322.6066              1359.1095
 Red. masses --      1.9431                 2.1493                 1.4815
 Frc consts  --      1.8714                 2.2152                 1.6123
 IR Inten    --     20.7916                22.9758                 2.6475

                     37                     38                     39
                      A                      A                      A
 Frequencies --   1403.2608              1426.0868              1444.7890
 Red. masses --      1.9780                 1.4517                 1.8984
 Frc consts  --      2.2949                 1.7394                 2.3348
 IR Inten    --     17.4145                 2.4959                13.7269

                     40                     41                     42
                      A                      A                      A
 Frequencies --   1462.2402              1485.7677              1505.3974
 Red. masses --      3.1865                 1.9489                 1.0469
 Frc consts  --      4.0142                 2.5348                 1.3978
 IR Inten    --     95.7846                 1.4407                 7.2591

                     43                     44                     45
                      A                      A                      A
 Frequencies --   1512.9163              1520.1573              1527.8549
 Red. masses --      1.1016                 1.6208                 1.0425
 Frc consts  --      1.4856                 2.2067                 1.4338
 IR Inten    --      1.4825                39.3127                11.9491

                     46                     47                     48
                      A                      A                      A
 Frequencies --   1537.8641              1594.0389              1617.4107
 Red. masses --      1.1034                 4.6541                 6.2927
 Frc consts  --      1.5376                 6.9676                 9.6990
 IR Inten    --      1.3083               250.2002               296.6674

                     49                     50                     51
                      A                      A                      A
 Frequencies --   1675.2387              2327.2597              3058.2880
 Red. masses --      1.6733                12.6623                 1.0343
 Frc consts  --      2.7668                40.4067                 5.6996
 IR Inten    --    443.3045                62.1136                22.3890

                     52                     53                     54
                      A                      A                      A
 Frequencies --   3064.9071              3072.6554              3117.4386
 Red. masses --      1.0378                 1.0606                 1.1033
 Frc consts  --      5.7440                 5.8999                 6.3173
 IR Inten    --      5.7304                12.4521                 0.4095

                     55                     56                     57
                      A                      A                      A
 Frequencies --   3121.5875              3133.0262              3139.7617
 Red. masses --      1.0997                 1.1027                 1.1049
 Frc consts  --      6.3137                 6.3770                 6.4175
 IR Inten    --      8.3219                30.5376                25.5104

                     58                     59                     60
                      A                      A                      A
 Frequencies --   3173.0592              3607.5595              3732.6672
 Red. masses --      1.1025                 1.0445                 1.1063
 Frc consts  --      6.5400                 8.0093                 9.0819
 IR Inten    --     10.5243                98.6441                55.3600

 - Thermochemistry -
 -------------------
 Temperature   298.150 Kelvin.  Pressure   1.00000 Atm.
 Atom     1 has atomic number  6 and mass  12.00000

 Molecular mass:   162.09055 amu.
 Principal axes and moments of inertia in atomic units:
                           1         2         3
     Eigenvalues --  1502.347982026.695603351.19578
           X            0.99687   0.07891  -0.00513
           Y           -0.07893   0.99687  -0.00426
           Z            0.00478   0.00465   0.99998
 This molecule is an asymmetric top.
 Rotational symmetry number  1.
 Warning -- assumption of classical behavior for rotation
           may cause significant error
 Rotational temperatures (Kelvin)      0.05765     0.04274     0.02585
 Rotational constants (GHZ):           1.20128     0.89048     0.53854
 Zero-point vibrational energy     463113.0 (Joules/Mol)
                                  110.68667 (Kcal/Mol)
 Warning -- explicit consideration of  19 degrees of freedom as
           vibrations may cause significant error
 Vibrational temperatures:     40.96    48.80    76.95   129.18   179.34
          (Kelvin)            196.01   303.19   313.91   336.27   419.06
                              441.25   462.15   646.33   668.68   743.31
                              784.83   836.39   877.95   892.94   936.37
                             1008.18  1041.86  1169.52  1175.07  1341.43
                             1435.08  1450.70  1537.60  1547.55  1588.32
                             1608.85  1638.66  1755.00  1839.51  1902.94
                             1955.46  2018.98  2051.82  2078.73  2103.84
                             2137.69  2165.93  2176.75  2187.17  2198.24
                             2212.64  2293.47  2327.09  2410.29  3348.41
                             4400.19  4409.72  4420.87  4485.30  4491.27
                             4507.73  4517.42  4565.32  5190.47  5370.48

 Zero-point correction=                           0.176390 (Hartree/Particle)
 Thermal correction to Energy=                    0.188982
 Thermal correction to Enthalpy=                  0.189927
 Thermal correction to Gibbs Free Energy=         0.135807
 Sum of electronic and zero-point Energies=           -529.761630
 Sum of electronic and thermal Energies=              -529.749038
 Sum of electronic and thermal Enthalpies=            -529.748093
 Sum of electronic and thermal Free Energies=         -529.802213

                     E (Thermal)             CV                S
                      KCal/Mol        Cal/Mol-Kelvin    Cal/Mol-Kelvin
 Total                  118.588             44.200            113.905
 Electronic               0.000              0.000              0.000
 Translational            0.889              2.981             41.158
 Rotational               0.889              2.981             30.701
 Vibrational            116.811             38.238             42.046
 Vibration     1          0.593              1.984              5.933
 Vibration     2          0.594              1.983              5.586
 Vibration     3          0.596              1.976              4.684
 Vibration     4          0.602              1.956              3.665
 Vibration     5          0.610              1.928              3.027
 Vibration     6          0.614              1.917              2.856
 Vibration     7          0.643              1.824              2.037
 Vibration     8          0.646              1.813              1.974
 Vibration     9          0.654              1.789              1.850
 Vibration    10          0.687              1.690              1.467
 Vibration    11          0.697              1.661              1.380
 Vibration    12          0.707              1.633              1.304
 Vibration    13          0.808              1.363              0.798
 Vibration    14          0.822              1.328              0.752
 Vibration    15          0.872              1.213              0.618
 Vibration    16          0.901              1.150              0.554
 Vibration    17          0.938              1.072              0.483
 Vibration    18          0.969              1.010              0.432
 Vibration    19          0.981              0.988              0.416

 Optimization completed.
    -- Stationary point found.

 1\1\GINC-NODE127\Freq\RB3LYP\6-31G(d)\C8H10N4\VSC10255\09-Dec-2020\0\\
 #N Geom=AllCheck Guess=TCheck SCRF=Check GenChk RB3LYP/6-31G(d) Freq\\
 CID_55266006_JID_2718_neutraal\\0,1\C,0.8920763785,0.0032294299,-0.081
 9510972\C,0.1036560097,-0.3314424475,-1.3609569009\C,0.6539191604,-1.5
 626545965,-2.0280562022\C,1.7111403732,-1.4845774017,-2.9497803201\C,2
 .1921252541,-2.7092040906,-3.4879353794\N,1.6529901784,-3.8840586675,-
 3.1204759622\C,0.6555958774,-3.8433134344,-2.234143407\N,0.1299382748,
 -2.739649275,-1.6708680767\C,0.0491086997,-5.1542546856,-1.8220785561\

 Normal termination of Gaussian 16 at Wed Dec  9 18:21:25 2020.

 ----------------------------------------------------------------------
 # B3LYP/6-311++G(d,p) empiricaldispersion=gd3bj scf=xqc pop=npa geom=c
 heck
 ----------------------------------------------------------------------

 --------------------------------------
 CID_55266006_JID_2718_Energie_neutraal
 --------------------------------------
 Structure from the checkpoint file:  "JID_2718.chk"
 Charge =  0 Multiplicity = 1

 SCF Done:  E(RB3LYP) =  -530.085960861     A.U. after   16 cycles
 Normal termination of Gaussian 16 at Wed Dec  9 18:23:44 2020.

 ----------------------------------------------------------------------
 # B3LYP/6-311++G(d,p) empiricaldispersion=gd3bj scf=xqc pop=npa geom=c
 heck
 ----------------------------------------------------------------------

 ------------------------------------
 CID_55266006_JID_2718_Energie_kation
 ------------------------------------
 Structure from the checkpoint file:  "JID_2718.chk"
 Charge =  1 Multiplicity = 2

 SCF Done:  E(UB3LYP) =  -529.758942437     A.U. after   27 cycles
 Normal termination of Gaussian 16 at Wed Dec  9 18:29:18 2020.
 Gaussian 16:  ES64L-G16RevA.03 25-Dec-2016

 -----------------------------------
 CID_55266006_JID_2718_Energie_anion
 -----------------------------------
 Structure from the checkpoint file:  "JID_2718.chk"
 Charge = -1 Multiplicity = 2

                         Standard orientation:
 ---------------------------------------------------------------------
 Center     Atomic      Atomic             Coordinates (Angstroms)
 Number     Number       Type             X           Y           Z
 ---------------------------------------------------------------------
      1          6           0       -1.955093   -2.335057    0.821410
      2          6           0       -1.423227   -1.816387   -0.526762
      3          6           0       -0.318978   -0.815062   -0.322610
      4          6           0       -0.594114    0.550680   -0.142508
      5          6           0        0.514759    1.408687    0.091780
      6          7           0        1.766467    0.921986    0.140016
      7          6           0        1.913826   -0.392534   -0.039881
      8          7           0        0.931883   -1.284061   -0.269311
      9          6           0        3.311509   -0.940278    0.011606
     10          7           0        0.361476    2.737688    0.272059
     11          6           0       -1.909129    1.087149   -0.176633
     12          7           0       -2.962226    1.586909   -0.188943
     13          1           0       -1.145962   -2.787666    1.403413
     14          1           0       -2.730057   -3.091086    0.660061
     15          1           0       -2.391294   -1.521341    1.410286
     16          1           0       -1.015994   -2.647307   -1.109692
     17          1           0       -2.242046   -1.362881   -1.095796
     18          1           0        3.568202   -1.397235   -0.950711
     19          1           0        4.026384   -0.149200    0.242391
     20          1           0        3.375609   -1.731434    0.766196
     21          1           0       -0.549303    3.170883    0.257928
     22          1           0        1.183942    3.296431    0.440743
 ---------------------------------------------------------------------

 SCF Done:  E(UB3LYP) =  -530.090500931     A.U. after   28 cycles

 The electronic state is 2-A.
 Alpha  occ. eigenvalues --  -14.20756 -14.14725 -14.14582 -14.14525 -10.11607
 Alpha  occ. eigenvalues --  -10.06338 -10.05153 -10.05093 -10.03508 -10.03486
 Alpha  occ. eigenvalues --  -10.03478 -10.02891  -0.84377  -0.79296  -0.75164
 Alpha  occ. eigenvalues --   -0.71948  -0.66014  -0.62352  -0.58959  -0.52286
 Alpha  occ. eigenvalues --   -0.49972  -0.45765  -0.42823  -0.39496  -0.37364
 Alpha  occ. eigenvalues --   -0.35096  -0.31751  -0.30687  -0.29421  -0.27452
 Alpha  occ. eigenvalues --   -0.26753  -0.26012  -0.24979  -0.22023  -0.21941
 Alpha  occ. eigenvalues --   -0.21584  -0.20913  -0.19733  -0.19058  -0.15277
 Alpha  occ. eigenvalues --   -0.13467  -0.10036  -0.09575   0.05364
 Alpha virt. eigenvalues --    0.08766   0.09035   0.09682   0.11391   0.12172
 Alpha virt. eigenvalues --    0.12504   0.12684   0.13291   0.13518   0.14350
 Alpha virt. eigenvalues --    0.15424   0.16117   0.16859   0.17108   0.17399

  Beta  occ. eigenvalues --  -14.20753 -14.14790 -14.14420 -14.14390 -10.11589
  Beta  occ. eigenvalues --  -10.05782 -10.05133 -10.04608 -10.03539 -10.03419
  Beta  occ. eigenvalues --  -10.03318 -10.02934  -0.84092  -0.79065  -0.74706
  Beta  occ. eigenvalues --   -0.71612  -0.65599  -0.62136  -0.58633  -0.51993
  Beta  occ. eigenvalues --   -0.49698  -0.45472  -0.42627  -0.39280  -0.36978
  Beta  occ. eigenvalues --   -0.34949  -0.31397  -0.30026  -0.29191  -0.27021
  Beta  occ. eigenvalues --   -0.26469  -0.25905  -0.24677  -0.21763  -0.21601
  Beta  occ. eigenvalues --   -0.21269  -0.19856  -0.19079  -0.18846  -0.15145
  Beta  occ. eigenvalues --   -0.12098  -0.10029  -0.08464
  Beta virt. eigenvalues --    0.08710   0.09055   0.09647   0.11336   0.11936
  Beta virt. eigenvalues --    0.12177   0.12592   0.13325   0.13412   0.13562
  Beta virt. eigenvalues --    0.14313   0.15403   0.16075   0.16804   0.17117

 Mulliken charges and spin densities:
               1          2
     1  C   -0.182419  -0.380593
     2  C   -0.426420   0.092851
     3  C   -0.080523   0.372668
     4  C    1.967541   0.217972
     5  C   -0.115384  -0.057099
     6  N   -0.206844   0.048277
     7  C   -0.086425   0.311626
     8  N   -0.018520  -0.114839
     9  C   -0.459699  -0.010874
    10  N   -0.366970   0.014965
    11  C   -1.901006  -0.135953
    12  N   -0.313045   0.164858
    13  H    0.099904   0.035058
    14  H   -0.116516   0.229230
    15  H    0.095649   0.061895
    16  H    0.100635   0.058227
    17  H    0.119619   0.034419
    18  H    0.125904   0.019569
    19  H    0.114863   0.001354
    20  H    0.106141   0.035996
    21  H    0.292474   0.001720
    22  H    0.251041  -0.001327
 Sum of Mulliken charges =  -1.00000   1.00000

 Dipole moment (field-independent basis, Debye):
    X=              3.2726    Y=              1.2740    Z=              0.4078  Tot=              3.5354
 Quadrupole moment (field-independent basis, Debye-Ang):
   XX=           -113.9026   YY=            -88.9910   ZZ=            -80.2775
   XY=              6.4741   XZ=              0.0461   YZ=              2.2613

 Summary of Natural Population Analysis:

                                       Natural Population
                Natural  -----------------------------------------------
    Atom  No    Charge         Core      Valence    Rydberg      Total
 -----------------------------------------------------------------------
      C    1   -0.27620      0.99966     2.27187    0.00467     3.27620
      C    2   -0.21298      0.99961     2.20324    0.01013     3.21298
      C    3    0.23463      0.99953     1.75128    0.01456     2.76537
      C    4   -0.14366      0.99933     2.13533    0.00900     3.14366
      C    5    0.23565      0.99955     1.75074    0.01407     2.76435
      N    6   -0.28719      0.99964     2.77516    0.01238     3.78719
      C    7    0.31597      0.99965     1.66897    0.01541     2.68403
      N    8   -0.31904      0.99966     2.80919    0.01018     3.81904
      C    9   -0.30458      0.99964     2.30040    0.00453     3.30458
      N   10   -0.39408      0.99969     2.88660    0.00778     3.89408
      C   11    0.14346      0.99966     1.83757    0.01931     2.85654
      N   12   -0.17746      0.99979     2.66637    0.01130     3.67746
      H   13    0.09674      0.00000     0.40224    0.00102     0.40326
      H   14    0.09159      0.00000     0.40712    0.00129     0.40841
      H   15    0.09868      0.00000     0.40039    0.00093     0.40132
      H   16    0.10216      0.00000     0.39642    0.00142     0.39784
      H   17    0.10196      0.00000     0.39694    0.00110     0.39804
      H   18    0.10275      0.00000     0.39637    0.00088     0.39725
      H   19    0.09810      0.00000     0.40112    0.00078     0.40190
      H   20    0.10298      0.00000     0.39615    0.00087     0.39702
      H   21    0.19791      0.00000     0.30110    0.00099     0.30209
      H   22    0.19260      0.00000     0.30594    0.00146     0.30740
 =======================================================================
   * Total *    0.00000     11.99540    30.86053    0.14407    43.00000

 Normal termination of Gaussian 16 at Wed Dec  9 18:34:44 2020.
