 Gaussian 16, Revision A.03,

 -----------------------------------------------------------
 # opt freq B3LYP/6-31G(d) empiricaldispersion=gd3bj scf=xqc
 -----------------------------------------------------------

 -----------------------------
 CID_10261146_JID_668_neutraal
 -----------------------------
 Symbolic Z-matrix:
 Charge =  0 Multiplicity = 1

 SCF Done:  E(RB3LYP) =  -425.411367694     A.U. after   14 cycles
 SCF Done:  E(RB3LYP) =  -425.413306670     A.U. after   13 cycles
 SCF Done:  E(RB3LYP) =  -425.412888040     A.U. after   12 cycles
 SCF Done:  E(RB3LYP) =  -425.413750809     A.U. after   12 cycles
 SCF Done:  E(RB3LYP) =  -425.413810636     A.U. after   11 cycles
 SCF Done:  E(RB3LYP) =  -425.413841103     A.U. after   12 cycles
 SCF Done:  E(RB3LYP) =  -425.413846264     A.U. after   10 cycles
 SCF Done:  E(RB3LYP) =  -425.413847710     A.U. after    9 cycles
 SCF Done:  E(RB3LYP) =  -425.413847844     A.U. after    7 cycles
 Optimization completed.
    -- Stationary point found.

 1\1\GINC-NODE305\FOpt\RB3LYP\6-31G(d)\C9H12O1\VSC10255\08-Dec-2020\0\\
 # opt freq B3LYP/6-31G(d) empiricaldispersion=gd3bj scf=xqc\\CID_10261
 146_JID_668_neutraal\\0,1\C,1.0504994756,-0.0605985443,0.1981621442\C,
 0.4471120991,-0.2437884645,1.3726325248\C,-1.0387875584,-0.275225374,1
 .5829494869\C,-1.5665013922,-1.6097311927,2.0734620585\C,-0.9098871251
 ,-2.775487339,1.9192621068\C,-1.441111081,-4.1140911499,2.3511684845\C
 ,-2.9648660599,-4.0999157145,2.5088453407\C,-3.4016259163,-2.889684046
 1,3.3383010011\C,-2.8882115726,-1.5789578182,2.757212947\O,-3.51443119

 Normal termination of Gaussian 16 at Tue Dec  8 12:23:35 2020.

 --------------------------------------------------------------------
 #N Geom=AllCheck Guess=TCheck SCRF=Check GenChk RB3LYP/6-31G(d) Freq
 --------------------------------------------------------------------

 Structure from the checkpoint file:  "JID_668.chk"
 -----------------------------
 CID_10261146_JID_668_neutraal
 -----------------------------
 Charge =  0 Multiplicity = 1

 SCF Done:  E(RB3LYP) =  -425.413847844     A.U. after    1 cycles

  Exact polarizability: 111.911   4.421 100.002  -6.657   2.008  68.322
 Approx polarizability: 135.846   8.895 173.576 -13.357   4.421 106.113

                      1                      2                      3
                      A                      A                      A
 Frequencies --     45.1649                76.5771                90.9326
 Red. masses --      2.7459                 2.9159                 3.3986
 Frc consts  --      0.0033                 0.0101                 0.0166
 IR Inten    --      0.1352                 0.8735                 2.8474

                      4                      5                      6
                      A                      A                      A
 Frequencies --    178.5003               211.3275               283.6291
 Red. masses --      2.3518                 2.7018                 2.4567
 Frc consts  --      0.0441                 0.0711                 0.1164
 IR Inten    --      0.4031                 1.9815                 2.7010

                      7                      8                      9
                      A                      A                      A
 Frequencies --    302.1532               345.8858               402.2360
 Red. masses --      2.5259                 2.7918                 2.2893
 Frc consts  --      0.1359                 0.1968                 0.2182
 IR Inten    --      3.7017                 1.7292                 3.1194

                     10                     11                     12
                      A                      A                      A
 Frequencies --    453.9787               477.8456               535.6204
 Red. masses --      2.4347                 3.3573                 3.9547
 Frc consts  --      0.2956                 0.4517                 0.6685
 IR Inten    --      1.5043                 2.5447                 5.0095

                     13                     14                     15
                      A                      A                      A
 Frequencies --    585.9560               647.4328               719.9042
 Red. masses --      2.2594                 2.1445                 2.9198
 Frc consts  --      0.4571                 0.5296                 0.8916
 IR Inten    --      1.4350                 8.2534                 3.8620

                     16                     17                     18
                      A                      A                      A
 Frequencies --    769.7884               826.1849               871.5256
 Red. masses --      2.7832                 1.3739                 2.6823
 Frc consts  --      0.9717                 0.5525                 1.2004
 IR Inten    --      6.7941                 2.9804                 3.2470

                     19                     20                     21
                      A                      A                      A
 Frequencies --    897.6241               918.1658               941.8422
 Red. masses --      2.2691                 1.4700                 1.3494
 Frc consts  --      1.0772                 0.7301                 0.7053
 IR Inten    --      5.5214                 3.3303                34.8741

                     22                     23                     24
                      A                      A                      A
 Frequencies --    948.2254               967.1195              1005.9651
 Red. masses --      1.3299                 2.4335                 2.1538
 Frc consts  --      0.7045                 1.3410                 1.2842
 IR Inten    --      6.9272                 1.8063                 4.2365

                     25                     26                     27
                      A                      A                      A
 Frequencies --   1040.6070              1080.0201              1097.0670
 Red. masses --      1.1191                 2.0872                 1.6374
 Frc consts  --      0.7140                 1.4344                 1.1611
 IR Inten    --     12.6902                 4.2309                 1.2996

                     28                     29                     30
                      A                      A                      A
 Frequencies --   1112.7092              1145.4007              1164.0872
 Red. masses --      2.7903                 1.6774                 1.3201
 Frc consts  --      2.0355                 1.2966                 1.0540
 IR Inten    --     20.1601                 1.0342                16.9765

                     31                     32                     33
                      A                      A                      A
 Frequencies --   1199.8400              1257.3946              1283.1691
 Red. masses --      1.8659                 1.2387                 1.6362
 Frc consts  --      1.5827                 1.1539                 1.5873
 IR Inten    --     22.7825                 6.7026                17.3638

                     34                     35                     36
                      A                      A                      A
 Frequencies --   1284.2635              1321.9095              1341.8755
 Red. masses --      1.2171                 1.3956                 1.3183
 Frc consts  --      1.1828                 1.4368                 1.3986
 IR Inten    --      0.7264                 5.3388                 2.6234

                     37                     38                     39
                      A                      A                      A
 Frequencies --   1367.6480              1392.3386              1397.8963
 Red. masses --      1.4393                 1.6280                 1.4891
 Frc consts  --      1.5861                 1.8595                 1.7144
 IR Inten    --      2.9028                 1.8897                 5.1306

                     40                     41                     42
                      A                      A                      A
 Frequencies --   1417.5858              1474.3504              1490.0580
 Red. masses --      2.0692                 1.1856                 1.0887
 Frc consts  --      2.4499                 1.5184                 1.4242
 IR Inten    --     28.3726                 1.4929                 3.9744

                     43                     44                     45
                      A                      A                      A
 Frequencies --   1502.0955              1505.2305              1526.2558
 Red. masses --      1.1150                 1.0827                 1.0970
 Frc consts  --      1.4822                 1.4453                 1.5056
 IR Inten    --      2.0153                 9.6859                 2.6641

                     46                     47                     48
                      A                      A                      A
 Frequencies --   1709.5506              1734.9538              1771.6937
 Red. masses --      6.6709                 4.5361                12.1569
 Frc consts  --     11.4868                 8.0447                22.4827
 IR Inten    --     11.7377                10.1784               203.8968

                     49                     50                     51
                      A                      A                      A
 Frequencies --   3001.3616              3020.7429              3041.3145
 Red. masses --      1.0717                 1.0705                 1.0622
 Frc consts  --      5.6881                 5.7551                 5.7887
 IR Inten    --     22.3069                10.1404                12.6619

                     52                     53                     54
                      A                      A                      A
 Frequencies --   3047.9663              3068.8661              3074.5472
 Red. masses --      1.0635                 1.0874                 1.0984
 Frc consts  --      5.8212                 6.0340                 6.1174
 IR Inten    --     25.9577                41.1706                 6.2193

                     55                     56                     57
                      A                      A                      A
 Frequencies --   3093.6696              3116.2961              3143.2730
 Red. masses --      1.1029                 1.0928                 1.0810
 Frc consts  --      6.2191                 6.2528                 6.2930
 IR Inten    --     40.5771                18.4935                20.6620

                     58                     59                     60
                      A                      A                      A
 Frequencies --   3158.3117              3167.9679              3236.8300
 Red. masses --      1.0685                 1.0893                 1.1158
 Frc consts  --      6.2796                 6.4409                 6.8880
 IR Inten    --      5.2053                 9.7666                20.0982

 - Thermochemistry -
 -------------------
 Temperature   298.150 Kelvin.  Pressure   1.00000 Atm.
 Atom     1 has atomic number  6 and mass  12.00000

 Molecular mass:   136.08882 amu.
 Principal axes and moments of inertia in atomic units:
                           1         2         3
     Eigenvalues --   795.252372015.568272683.19809
           X            0.99990  -0.01376  -0.00292
           Y            0.01376   0.99990   0.00116
           Z            0.00290  -0.00120   1.00000
 This molecule is an asymmetric top.
 Rotational symmetry number  1.
 Warning -- assumption of classical behavior for rotation
           may cause significant error
 Rotational temperatures (Kelvin)      0.10891     0.04297     0.03228
 Rotational constants (GHZ):           2.26939     0.89540     0.67261
 Zero-point vibrational energy     498201.2 (Joules/Mol)
                                  119.07294 (Kcal/Mol)
 Warning -- explicit consideration of  13 degrees of freedom as
           vibrations may cause significant error
 Vibrational temperatures:     64.98   110.18   130.83   256.82   304.05
          (Kelvin)            408.08   434.73   497.65   578.73   653.17
                              687.51   770.64   843.06   931.51  1035.78
                             1107.55  1188.70  1253.93  1291.48  1321.04
                             1355.10  1364.28  1391.47  1447.36  1497.20
                             1553.91  1578.43  1600.94  1647.98  1674.86
                             1726.30  1809.11  1846.19  1847.77  1901.93
                             1930.66  1967.74  2003.26  2011.26  2039.59
                             2121.26  2143.86  2161.18  2165.69  2195.94
                             2459.66  2496.21  2549.07  4318.29  4346.18
                             4375.77  4385.34  4415.41  4423.59  4451.10
                             4483.66  4522.47  4544.11  4558.00  4657.08

 Zero-point correction=                           0.189755 (Hartree/Particle)
 Thermal correction to Energy=                    0.199518
 Thermal correction to Enthalpy=                  0.200463
 Thermal correction to Gibbs Free Energy=         0.154029
 Sum of electronic and zero-point Energies=           -425.224093
 Sum of electronic and thermal Energies=              -425.214329
 Sum of electronic and thermal Enthalpies=            -425.213385
 Sum of electronic and thermal Free Energies=         -425.259819

                     E (Thermal)             CV                S
                      KCal/Mol        Cal/Mol-Kelvin    Cal/Mol-Kelvin
 Total                  125.200             36.600             97.728
 Electronic               0.000              0.000              0.000
 Translational            0.889              2.981             40.637
 Rotational               0.889              2.981             29.843
 Vibrational            123.422             30.638             27.249
 Vibration     1          0.595              1.979              5.019
 Vibration     2          0.599              1.965              3.977
 Vibration     3          0.602              1.956              3.640
 Vibration     4          0.629              1.869              2.344
 Vibration     5          0.643              1.824              2.032
 Vibration     6          0.682              1.704              1.512
 Vibration     7          0.694              1.670              1.405
 Vibration     8          0.724              1.584              1.185
 Vibration     9          0.768              1.465              0.954
 Vibration    10          0.812              1.352              0.784
 Vibration    11          0.834              1.299              0.716
 Vibration    12          0.891              1.171              0.575
 Vibration    13          0.943              1.062              0.474

 Optimization completed.
    -- Stationary point found.

 1\1\GINC-NODE305\Freq\RB3LYP\6-31G(d)\C9H12O1\VSC10255\08-Dec-2020\0\\
 #N Geom=AllCheck Guess=TCheck SCRF=Check GenChk RB3LYP/6-31G(d) Freq\\
 CID_10261146_JID_668_neutraal\\0,1\C,1.0504994756,-0.0605985443,0.1981
 621442\C,0.4471120991,-0.2437884645,1.3726325248\C,-1.0387875584,-0.27
 5225374,1.5829494869\C,-1.5665013922,-1.6097311927,2.0734620585\C,-0.9
 098871251,-2.775487339,1.9192621068\C,-1.441111081,-4.1140911499,2.351
 1684845\C,-2.9648660599,-4.0999157145,2.5088453407\C,-3.4016259163,-2.
 8896840461,3.3383010011\C,-2.8882115726,-1.5789578182,2.757212947\O,-3

 Normal termination of Gaussian 16 at Tue Dec  8 12:28:15 2020.

 ----------------------------------------------------------------------
 # B3LYP/6-311++G(d,p) empiricaldispersion=gd3bj scf=xqc pop=npa geom=c
 heck
 ----------------------------------------------------------------------

 -------------------------------------
 CID_10261146_JID_668_Energie_neutraal
 -------------------------------------
 Structure from the checkpoint file:  "JID_668.chk"
 Charge =  0 Multiplicity = 1

 SCF Done:  E(RB3LYP) =  -425.533789828     A.U. after   14 cycles
 Normal termination of Gaussian 16 at Tue Dec  8 12:32:37 2020.

 ----------------------------------------------------------------------
 # B3LYP/6-311++G(d,p) empiricaldispersion=gd3bj scf=xqc pop=npa geom=c
 heck
 ----------------------------------------------------------------------

 -----------------------------------
 CID_10261146_JID_668_Energie_kation
 -----------------------------------
 Structure from the checkpoint file:  "JID_668.chk"
 Charge =  1 Multiplicity = 2

 SCF Done:  E(UB3LYP) =  -425.214096744     A.U. after   24 cycles
 Normal termination of Gaussian 16 at Tue Dec  8 12:43:23 2020.
 Gaussian 16:  ES64L-G16RevA.03 25-Dec-2016

 ----------------------------------
 CID_10261146_JID_668_Energie_anion
 ----------------------------------
 Structure from the checkpoint file:  "JID_668.chk"
 Charge = -1 Multiplicity = 2

                         Standard orientation:
 ---------------------------------------------------------------------
 Center     Atomic      Atomic             Coordinates (Angstroms)
 Number     Number       Type             X           Y           Z
 ---------------------------------------------------------------------
      1          6           0       -3.679529   -0.535133    0.322254
      2          6           0       -2.680639   -0.070735   -0.428458
      3          6           0       -1.561577    0.798290    0.067138
      4          6           0       -0.191186    0.155153   -0.024479
      5          6           0        0.006775   -1.174928   -0.099346
      6          6           0        1.358332   -1.832552   -0.137118
      7          6           0        2.454205   -0.917820    0.418957
      8          6           0        2.352386    0.474827   -0.208406
      9          6           0        0.969556    1.086842   -0.028186
     10          8           0        0.814328    2.296539    0.066333
     11          1           0       -3.748967   -0.302579    1.382960
     12          1           0       -4.469778   -1.154445   -0.093217
     13          1           0       -2.643043   -0.332677   -1.486859
     14          1           0       -1.525805    1.736834   -0.500367
     15          1           0       -1.748685    1.096591    1.107660
     16          1           0       -0.863597   -1.828699   -0.128836
     17          1           0        1.592775   -2.110806   -1.177870
     18          1           0        1.321590   -2.777590    0.419054
     19          1           0        3.445441   -1.349577    0.241485
     20          1           0        2.330047   -0.833725    1.506418
     21          1           0        2.536638    0.405948   -1.291934
     22          1           0        3.088830    1.174746    0.196712
 ---------------------------------------------------------------------

 SCF Done:  E(UB3LYP) =  -425.528273751     A.U. after   33 cycles
 SCF Done:  E(UB3LYP) =  -425.528273751     a.u. after    1 cycles

 The electronic state is 2-A.
 Alpha  occ. eigenvalues --  -18.91365 -10.05561 -10.04991 -10.04102 -10.03811
 Alpha  occ. eigenvalues --  -10.03715 -10.02941 -10.02726 -10.00631 -10.00042
 Alpha  occ. eigenvalues --   -0.85377  -0.68944  -0.66468  -0.60844  -0.57754
 Alpha  occ. eigenvalues --   -0.53480  -0.46521  -0.44258  -0.41873  -0.35793
 Alpha  occ. eigenvalues --   -0.33946  -0.32720  -0.30619  -0.29693  -0.28133
 Alpha  occ. eigenvalues --   -0.27966  -0.26211  -0.24509  -0.24083  -0.22409
 Alpha  occ. eigenvalues --   -0.21935  -0.19918  -0.18944  -0.18134  -0.13720
 Alpha  occ. eigenvalues --   -0.10394  -0.07383   0.06069
 Alpha virt. eigenvalues --    0.08065   0.08877   0.10232   0.10637   0.11031
 Alpha virt. eigenvalues --    0.11752   0.12167   0.12736   0.13454   0.13688
 Alpha virt. eigenvalues --    0.14235   0.14990   0.15451   0.17577   0.18773

  Beta  occ. eigenvalues --  -18.90897 -10.05224 -10.04989 -10.04086 -10.03843
  Beta  occ. eigenvalues --  -10.03691 -10.02944 -10.02753 -10.00605  -9.99578
  Beta  occ. eigenvalues --   -0.84511  -0.68640  -0.66441  -0.60596  -0.57421
  Beta  occ. eigenvalues --   -0.53210  -0.46373  -0.43829  -0.41385  -0.35595
  Beta  occ. eigenvalues --   -0.33808  -0.32575  -0.30478  -0.29249  -0.27883
  Beta  occ. eigenvalues --   -0.27560  -0.26109  -0.24085  -0.23707  -0.22030
  Beta  occ. eigenvalues --   -0.21876  -0.19718  -0.18243  -0.16965  -0.13647
  Beta  occ. eigenvalues --   -0.08431  -0.06982
  Beta virt. eigenvalues --    0.08494   0.08891   0.10321   0.10604   0.11197
  Beta virt. eigenvalues --    0.11682   0.12078   0.12675   0.12941   0.13389
  Beta virt. eigenvalues --    0.13724   0.14334   0.15000   0.15408   0.17548

 Mulliken charges and spin densities:
               1          2
     1  C    0.535756  -1.148986
     2  C   -0.945876   1.434699
     3  C    0.651653  -1.210093
     4  C    0.931486   0.488280
     5  C   -0.963838   0.085360
     6  C   -0.242218  -0.208315
     7  C   -0.099284  -0.085965
     8  C    0.002578  -0.091272
     9  C   -0.766116   0.365721
    10  O   -0.410665   0.166439
    11  H   -0.171331   0.281598
    12  H   -0.379677   0.489488
    13  H    0.028315   0.118451
    14  H    0.185039  -0.036077
    15  H    0.001603   0.166184
    16  H    0.050980   0.054564
    17  H    0.085112   0.042287
    18  H    0.080320   0.039534
    19  H    0.131471  -0.018993
    20  H    0.068388   0.033527
    21  H    0.117403   0.008199
    22  H    0.108901   0.025370
 Sum of Mulliken charges =  -1.00000   1.00000

 Dipole moment (field-independent basis, Debye):
    X=              3.3261    Y=             -2.3943    Z=             -1.4016  Tot=              4.3313
 Quadrupole moment (field-independent basis, Debye-Ang):
   XX=           -100.7075   YY=            -90.3556   ZZ=            -72.5960
   XY=             -9.6244   XZ=              2.8243   YZ=              0.4285

 Summary of Natural Population Analysis:

                                       Natural Population
                Natural  -----------------------------------------------
    Atom  No    Charge         Core      Valence    Rydberg      Total
 -----------------------------------------------------------------------
      C    1   -0.20855      0.99955     2.20094    0.00805     3.20855
      C    2   -0.07094      0.99958     2.05972    0.01164     3.07094
      C    3   -0.22061      0.99958     2.20914    0.01189     3.22061
      C    4   -0.06613      0.99944     2.05535    0.01134     3.06613
      C    5    0.01278      0.99950     1.97750    0.01022     2.98722
      C    6   -0.20552      0.99963     2.19796    0.00793     3.20552
      C    7   -0.18275      0.99964     2.17560    0.00750     3.18275
      C    8   -0.22783      0.99961     2.21935    0.00888     3.22783
      C    9    0.30592      0.99960     1.67264    0.02185     2.69408
      O   10   -0.27236      0.99988     3.26603    0.00645     4.27236
      H   11    0.08938      0.00000     0.40922    0.00140     0.41062
      H   12    0.08879      0.00000     0.41002    0.00118     0.41121
      H   13    0.08885      0.00000     0.41010    0.00105     0.41115
      H   14    0.11338      0.00000     0.38520    0.00142     0.38662
      H   15    0.10212      0.00000     0.39642    0.00146     0.39788
      H   16    0.08648      0.00000     0.41201    0.00150     0.41352
      H   17    0.09543      0.00000     0.40257    0.00200     0.40457
      H   18    0.09513      0.00000     0.40354    0.00133     0.40487
      H   19    0.08656      0.00000     0.41204    0.00140     0.41344
      H   20    0.09232      0.00000     0.40624    0.00144     0.40768
      H   21    0.09880      0.00000     0.40027    0.00094     0.40120
      H   22    0.09873      0.00000     0.39907    0.00220     0.40127
 =======================================================================
   * Total *   -0.00000      9.99599    26.88094    0.12307    37.00000

 Normal termination of Gaussian 16 at Tue Dec  8 13:04:02 2020.
