 Gaussian 16, Revision A.03,

 -----------------------------------------------------------
 # opt freq B3LYP/6-31G(d) empiricaldispersion=gd3bj scf=xqc
 -----------------------------------------------------------

 -----------------------------
 CID_12693884_JID_607_neutraal
 -----------------------------
 Symbolic Z-matrix:
 Charge =  0 Multiplicity = 1

 SCF Done:  E(RB3LYP) =  -502.048939793     A.U. after   13 cycles
 SCF Done:  E(RB3LYP) =  -502.053510054     A.U. after   11 cycles
 SCF Done:  E(RB3LYP) =  -502.054511237     A.U. after   11 cycles
 SCF Done:  E(RB3LYP) =  -502.055719633     A.U. after   11 cycles
 SCF Done:  E(RB3LYP) =  -502.056087794     A.U. after   10 cycles
 SCF Done:  E(RB3LYP) =  -502.056125105     A.U. after   10 cycles
 SCF Done:  E(RB3LYP) =  -502.056163175     A.U. after   11 cycles
 SCF Done:  E(RB3LYP) =  -502.056222579     A.U. after   10 cycles
 SCF Done:  E(RB3LYP) =  -502.056236661     A.U. after    9 cycles
 SCF Done:  E(RB3LYP) =  -502.056241255     A.U. after    9 cycles
 SCF Done:  E(RB3LYP) =  -502.056241982     A.U. after    8 cycles
 SCF Done:  E(RB3LYP) =  -502.056242204     A.U. after    7 cycles
 SCF Done:  E(RB3LYP) =  -502.056242290     A.U. after    6 cycles
 SCF Done:  E(RB3LYP) =  -502.056242353     A.U. after    6 cycles
 Optimization completed.
    -- Stationary point found.

 1\1\GINC-NODE320\FOpt\RB3LYP\6-31G(d)\C7H16O3\VSC10255\08-Dec-2020\0\\
 # opt freq B3LYP/6-31G(d) empiricaldispersion=gd3bj scf=xqc\\CID_12693
 884_JID_607_neutraal\\0,1\C,0.7322477632,-0.0254158286,0.0652724289\C,
 0.1410354873,1.3766255711,-0.0999004239\C,0.8335928498,2.1567174244,-1
 .2119017004\O,0.5900576099,1.4617367669,-2.423049314\C,1.3554132006,1.
 9444958353,-3.5148180091\O,0.5070334549,3.5265159002,-1.2980309389\C,-
 0.8222389632,3.9886250988,-1.0342040041\C,-1.7873948418,3.9367911477,-
 2.2217325842\C,-2.3679023041,2.5654409281,-2.5413169533\O,-3.050245236

 Normal termination of Gaussian 16 at Tue Dec  8 12:18:29 2020.

 --------------------------------------------------------------------
 #N Geom=AllCheck Guess=TCheck SCRF=Check GenChk RB3LYP/6-31G(d) Freq
 --------------------------------------------------------------------

 Structure from the checkpoint file:  "JID_607.chk"
 -----------------------------
 CID_12693884_JID_607_neutraal
 -----------------------------
 Charge =  0 Multiplicity = 1

 SCF Done:  E(RB3LYP) =  -502.056242353     A.U. after    1 cycles

  Exact polarizability:  91.606  -2.124  84.314  -1.377  -1.568  80.131
 Approx polarizability: 114.040   1.042 112.937  -1.602  -0.329 112.006

                      1                      2                      3
                      A                      A                      A
 Frequencies --     42.6693                77.4647                91.2502
 Red. masses --      3.2905                 3.6302                 3.1305
 Frc consts  --      0.0035                 0.0128                 0.0154
 IR Inten    --      0.7571                 0.3686                 1.1881

                      4                      5                      6
                      A                      A                      A
 Frequencies --    120.2110               136.8702               162.4029
 Red. masses --      1.6536                 2.0103                 2.4003
 Frc consts  --      0.0141                 0.0222                 0.0373
 IR Inten    --      1.7010                 2.9048                 3.9260

                      7                      8                      9
                      A                      A                      A
 Frequencies --    196.5146               219.6297               235.4708
 Red. masses --      2.1175                 1.5869                 1.9315
 Frc consts  --      0.0482                 0.0451                 0.0631
 IR Inten    --      7.1919                 0.7895                14.5719

                     10                     11                     12
                      A                      A                      A
 Frequencies --    261.7082               280.3058               309.3418
 Red. masses --      2.7801                 1.2426                 1.9595
 Frc consts  --      0.1122                 0.0575                 0.1105
 IR Inten    --      2.6610               138.4708                 4.0939

                     13                     14                     15
                      A                      A                      A
 Frequencies --    339.2356               406.2707               452.2775
 Red. masses --      2.7425                 2.1172                 3.1750
 Frc consts  --      0.1860                 0.2059                 0.3827
 IR Inten    --      6.1116                 8.9398                 7.1533

                     16                     17                     18
                      A                      A                      A
 Frequencies --    522.8957               530.7088               622.6636
 Red. masses --      2.9576                 2.6849                 4.1640
 Frc consts  --      0.4765                 0.4455                 0.9512
 IR Inten    --      1.7834                11.2138                 4.0462

                     19                     20                     21
                      A                      A                      A
 Frequencies --    777.3558               793.6671               851.5094
 Red. masses --      1.9135                 1.4357                 2.5647
 Frc consts  --      0.6813                 0.5328                 1.0956
 IR Inten    --      3.2385                 5.2111                 2.3597

                     22                     23                     24
                      A                      A                      A
 Frequencies --    903.7489               934.8168               962.4982
 Red. masses --      1.7461                 2.1654                 1.9014
 Frc consts  --      0.8403                 1.1149                 1.0378
 IR Inten    --      2.1659                50.9526                30.5069

                     25                     26                     27
                      A                      A                      A
 Frequencies --    993.4232              1050.7031              1077.3653
 Red. masses --      2.2855                 3.0403                 2.5737
 Frc consts  --      1.3289                 1.9775                 1.7601
 IR Inten    --     11.4376                47.3169                30.8035

                     28                     29                     30
                      A                      A                      A
 Frequencies --   1089.1432              1099.9808              1131.4932
 Red. masses --      2.5371                 2.9150                 2.6488
 Frc consts  --      1.7732                 2.0781                 1.9981
 IR Inten    --     98.5873               134.4894                24.9620

                     31                     32                     33
                      A                      A                      A
 Frequencies --   1135.2271              1161.6242              1184.7023
 Red. masses --      1.8450                 2.8670                 2.3445
 Frc consts  --      1.4010                 2.2793                 1.9387
 IR Inten    --     39.0526               117.7927                62.0255

                     34                     35                     36
                      A                      A                      A
 Frequencies --   1189.5806              1223.3793              1236.9029
 Red. masses --      1.2827                 1.2346                 1.5921
 Frc consts  --      1.0695                 1.0887                 1.4352
 IR Inten    --      2.3799                34.5997                 9.2981

                     37                     38                     39
                      A                      A                      A
 Frequencies --   1279.0362              1318.8386              1328.9168
 Red. masses --      1.1455                 1.2228                 1.2284
 Frc consts  --      1.1041                 1.2531                 1.2782
 IR Inten    --     11.1503                21.2725                 7.3701

                     40                     41                     42
                      A                      A                      A
 Frequencies --   1362.5939              1367.4268              1413.4336
 Red. masses --      1.1249                 1.3049                 1.3828
 Frc consts  --      1.2305                 1.4376                 1.6276
 IR Inten    --     13.9619                11.5759                 2.2723

                     43                     44                     45
                      A                      A                      A
 Frequencies --   1424.6057              1429.6544              1438.0415
 Red. masses --      1.2140                 1.2701                 1.2448
 Frc consts  --      1.4516                 1.5295                 1.5167
 IR Inten    --     16.4423                 7.1549                 1.3531

                     46                     47                     48
                      A                      A                      A
 Frequencies --   1447.6772              1479.0594              1491.9251
 Red. masses --      1.4181                 1.3564                 1.1337
 Frc consts  --      1.7511                 1.7483                 1.4868
 IR Inten    --     19.3428                 6.8177                 7.5322

                     49                     50                     51
                      A                      A                      A
 Frequencies --   1497.3485              1512.3198              1520.4775
 Red. masses --      1.1599                 1.0501                 1.0743
 Frc consts  --      1.5323                 1.4150                 1.4634
 IR Inten    --      0.8820                 3.3478                 0.9468

                     52                     53                     54
                      A                      A                      A
 Frequencies --   1528.1417              1538.4871              1542.8038
 Red. masses --      1.0432                 1.0621                 1.0526
 Frc consts  --      1.4354                 1.4811                 1.4762
 IR Inten    --      5.0026                 3.5450                 5.4578

                     55                     56                     57
                      A                      A                      A
 Frequencies --   1543.7870              1561.9168              2999.4315
 Red. masses --      1.0866                 1.0794                 1.0721
 Frc consts  --      1.5258                 1.5515                 5.6828
 IR Inten    --      3.2118                10.5365               117.9085

                     58                     59                     60
                      A                      A                      A
 Frequencies --   3001.3412              3014.5338              3042.3216
 Red. masses --      1.0796                 1.0463                 1.0628
 Frc consts  --      5.7299                 5.6022                 5.7956
 IR Inten    --     13.2211                83.7260                27.9784

                     61                     62                     63
                      A                      A                      A
 Frequencies --   3050.9035              3060.7162              3074.7740
 Red. masses --      1.0387                 1.0626                 1.0644
 Frc consts  --      5.6966                 5.8648                 5.9288
 IR Inten    --     36.2183                10.3179                42.3298

                     64                     65                     66
                      A                      A                      A
 Frequencies --   3085.9092              3088.3680              3103.5732
 Red. masses --      1.0962                 1.0938                 1.0995
 Frc consts  --      6.1505                 6.1468                 6.2401
 IR Inten    --     32.9661                38.9486                12.3439

                     67                     68                     69
                      A                      A                      A
 Frequencies --   3107.5532              3118.3092              3126.3358
 Red. masses --      1.0946                 1.1019                 1.1019
 Frc consts  --      6.2282                 6.3130                 6.3456
 IR Inten    --     19.2888                14.4470                37.2363

                     70                     71                     72
                      A                      A                      A
 Frequencies --   3140.8732              3143.5975              3760.6392
 Red. masses --      1.1018                 1.1024                 1.0665
 Frc consts  --      6.4042                 6.4189                 8.8869
 IR Inten    --     26.5425                29.3679                15.2559

 - Thermochemistry -
 -------------------
 Temperature   298.150 Kelvin.  Pressure   1.00000 Atm.
 Atom     1 has atomic number  6 and mass  12.00000

 Molecular mass:   148.10994 amu.
 Principal axes and moments of inertia in atomic units:
                           1         2         3
     Eigenvalues --  1235.750201880.735202186.77806
           X            0.99892  -0.04632  -0.00417
           Y            0.04607   0.99780  -0.04769
           Z            0.00637   0.04745   0.99885
 This molecule is an asymmetric top.
 Rotational symmetry number  1.
 Warning -- assumption of classical behavior for rotation
           may cause significant error
 Rotational temperatures (Kelvin)      0.07009     0.04605     0.03961
 Rotational constants (GHZ):           1.46044     0.95959     0.82530
 Zero-point vibrational energy     614585.6 (Joules/Mol)
                                  146.88948 (Kcal/Mol)
 Warning -- explicit consideration of  17 degrees of freedom as
           vibrations may cause significant error
 Vibrational temperatures:     61.39   111.45   131.29   172.96   196.93
          (Kelvin)            233.66   282.74   316.00   338.79   376.54
                              403.30   445.07   488.08   584.53   650.73
                              752.33   763.57   895.87  1118.44  1141.91
                             1225.13  1300.29  1344.99  1384.82  1429.31
                             1511.73  1550.09  1567.03  1582.63  1627.97
                             1633.34  1671.32  1704.52  1711.54  1760.17
                             1779.63  1840.25  1897.51  1912.01  1960.47
                             1967.42  2033.62  2049.69  2056.95  2069.02
                             2082.88  2128.04  2146.55  2154.35  2175.89
                             2187.63  2198.66  2213.54  2219.75  2221.17
                             2247.25  4315.51  4318.26  4337.24  4377.22
                             4389.57  4403.69  4423.91  4439.93  4443.47
                             4465.35  4471.08  4486.55  4498.10  4519.02
                             4522.94  5410.72

 Zero-point correction=                           0.234083 (Hartree/Particle)
 Thermal correction to Energy=                    0.246482
 Thermal correction to Enthalpy=                  0.247426
 Thermal correction to Gibbs Free Energy=         0.195584
 Sum of electronic and zero-point Energies=           -501.822159
 Sum of electronic and thermal Energies=              -501.809761
 Sum of electronic and thermal Enthalpies=            -501.808816
 Sum of electronic and thermal Free Energies=         -501.860658

                     E (Thermal)             CV                S
                      KCal/Mol        Cal/Mol-Kelvin    Cal/Mol-Kelvin
 Total                  154.670             44.175            109.110
 Electronic               0.000              0.000              0.000
 Translational            0.889              2.981             40.889
 Rotational               0.889              2.981             30.009
 Vibrational            152.892             38.213             38.212
 Vibration     1          0.595              1.980              5.131
 Vibration     2          0.599              1.964              3.954
 Vibration     3          0.602              1.955              3.633
 Vibration     4          0.609              1.932              3.097
 Vibration     5          0.614              1.917              2.847
 Vibration     6          0.623              1.889              2.522
 Vibration     7          0.636              1.845              2.165
 Vibration     8          0.647              1.811              1.962
 Vibration     9          0.655              1.787              1.837
 Vibration    10          0.669              1.743              1.650
 Vibration    11          0.680              1.710              1.532
 Vibration    12          0.699              1.656              1.366
 Vibration    13          0.719              1.597              1.216
 Vibration    14          0.771              1.457              0.940
 Vibration    15          0.811              1.356              0.789
 Vibration    16          0.878              1.199              0.603
 Vibration    17          0.886              1.182              0.586

 Optimization completed.
    -- Stationary point found.

 1\1\GINC-NODE320\Freq\RB3LYP\6-31G(d)\C7H16O3\VSC10255\08-Dec-2020\0\\
 #N Geom=AllCheck Guess=TCheck SCRF=Check GenChk RB3LYP/6-31G(d) Freq\\
 CID_12693884_JID_607_neutraal\\0,1\C,0.7322477632,-0.0254158286,0.0652
 724289\C,0.1410354873,1.3766255711,-0.0999004239\C,0.8335928498,2.1567
 174244,-1.2119017004\O,0.5900576099,1.4617367669,-2.423049314\C,1.3554
 132006,1.9444958353,-3.5148180091\O,0.5070334549,3.5265159002,-1.29803
 09389\C,-0.8222389632,3.9886250988,-1.0342040041\C,-1.7873948418,3.936
 7911477,-2.2217325842\C,-2.3679023041,2.5654409281,-2.5413169533\O,-3.

 Normal termination of Gaussian 16 at Tue Dec  8 12:24:04 2020.

 ----------------------------------------------------------------------
 # B3LYP/6-311++G(d,p) empiricaldispersion=gd3bj scf=xqc pop=npa geom=c
 heck
 ----------------------------------------------------------------------

 -------------------------------------
 CID_12693884_JID_607_Energie_neutraal
 -------------------------------------
 Structure from the checkpoint file:  "JID_607.chk"
 Charge =  0 Multiplicity = 1

 SCF Done:  E(RB3LYP) =  -502.216449073     A.U. after   12 cycles
 Normal termination of Gaussian 16 at Tue Dec  8 12:26:18 2020.

 ----------------------------------------------------------------------
 # B3LYP/6-311++G(d,p) empiricaldispersion=gd3bj scf=xqc pop=npa geom=c
 heck
 ----------------------------------------------------------------------

 -----------------------------------
 CID_12693884_JID_607_Energie_kation
 -----------------------------------
 Structure from the checkpoint file:  "JID_607.chk"
 Charge =  1 Multiplicity = 2

 SCF Done:  E(UB3LYP) =  -501.881800434     A.U. after   22 cycles
 Normal termination of Gaussian 16 at Tue Dec  8 12:30:42 2020.
 Gaussian 16:  ES64L-G16RevA.03 25-Dec-2016

 ----------------------------------
 CID_12693884_JID_607_Energie_anion
 ----------------------------------
 Structure from the checkpoint file:  "JID_607.chk"
 Charge = -1 Multiplicity = 2

                         Standard orientation:
 ---------------------------------------------------------------------
 Center     Atomic      Atomic             Coordinates (Angstroms)
 Number     Number       Type             X           Y           Z
 ---------------------------------------------------------------------
      1          6           0        2.515144   -1.692974   -0.195683
      2          6           0        1.237510   -1.218937    0.501076
      3          6           0        1.135183    0.302154    0.524264
      4          8           0        1.054597    0.735382   -0.822957
      5          6           0        1.177388    2.140120   -0.972685
      6          8           0        0.106757    0.837500    1.328099
      7          6           0       -1.165746    0.189226    1.431024
      8          6           0       -2.176275    0.540074    0.335500
      9          6           0       -1.970089   -0.159644   -1.001514
     10          8           0       -2.015338   -1.573103   -0.768555
     11          1           0        2.534266   -1.355789   -1.235773
     12          1           0        2.582800   -2.786015   -0.184240
     13          1           0        3.409532   -1.298050    0.301710
     14          1           0        0.357238   -1.633746   -0.001019
     15          1           0        1.217478   -1.572360    1.539118
     16          1           0        2.047045    0.733071    0.966965
     17          1           0        0.364285    2.671606   -0.465080
     18          1           0        2.136790    2.497581   -0.568457
     19          1           0        1.140760    2.349002   -2.044561
     20          1           0       -1.052947   -0.896410    1.497030
     21          1           0       -1.558463    0.539573    2.391007
     22          1           0       -3.170752    0.267490    0.714236
     23          1           0       -2.176764    1.625782    0.177647
     24          1           0       -2.771389    0.141479   -1.694714
     25          1           0       -1.006625    0.131117   -1.431895
     26          1           0       -1.740063   -2.012686   -1.586566
 ---------------------------------------------------------------------

 SCF Done:  E(UB3LYP) =  -502.198749313     A.U. after   25 cycles

 The electronic state is 2-A.
 Alpha  occ. eigenvalues --  -19.02194 -19.02104 -19.00999 -10.16119 -10.10989
 Alpha  occ. eigenvalues --  -10.10439 -10.09691 -10.06135 -10.06094 -10.05294
 Alpha  occ. eigenvalues --   -0.96238  -0.90850  -0.90375  -0.68534  -0.66627
 Alpha  occ. eigenvalues --   -0.60397  -0.57579  -0.53586  -0.50173  -0.45559
 Alpha  occ. eigenvalues --   -0.41792  -0.40733  -0.39547  -0.36936  -0.35684
 Alpha  occ. eigenvalues --   -0.34193  -0.33602  -0.31083  -0.30135  -0.29039
 Alpha  occ. eigenvalues --   -0.28962  -0.27290  -0.25368  -0.25082  -0.24810
 Alpha  occ. eigenvalues --   -0.23447  -0.22253  -0.19130  -0.17529  -0.17198
 Alpha  occ. eigenvalues --   -0.15663   0.04870
 Alpha virt. eigenvalues --    0.07237   0.07247   0.07837   0.09425   0.09790
 Alpha virt. eigenvalues --    0.10356   0.10542   0.10956   0.12109   0.12862
 Alpha virt. eigenvalues --    0.13416   0.14180   0.14318   0.15332   0.15967

  Beta  occ. eigenvalues --  -19.02182 -19.02101 -19.00960 -10.16111 -10.10981
  Beta  occ. eigenvalues --  -10.10409 -10.09666 -10.06122 -10.06082 -10.05263
  Beta  occ. eigenvalues --   -0.96223  -0.90773  -0.90354  -0.68507  -0.66588
  Beta  occ. eigenvalues --   -0.60349  -0.57523  -0.53523  -0.50115  -0.45508
  Beta  occ. eigenvalues --   -0.41734  -0.40693  -0.39487  -0.36904  -0.35647
  Beta  occ. eigenvalues --   -0.34164  -0.33579  -0.31049  -0.30104  -0.28998
  Beta  occ. eigenvalues --   -0.28928  -0.27256  -0.25327  -0.25039  -0.24773
  Beta  occ. eigenvalues --   -0.23414  -0.22206  -0.19100  -0.17501  -0.17169
  Beta  occ. eigenvalues --   -0.15634
  Beta virt. eigenvalues --    0.07149   0.07999   0.08164   0.08583   0.10048
  Beta virt. eigenvalues --    0.10417   0.10843   0.11113   0.11263   0.12678
  Beta virt. eigenvalues --    0.13146   0.13778   0.14358   0.14497   0.15682

 Mulliken charges and spin densities:
               1          2
     1  C    1.136950  -1.711265
     2  C   -0.892003   0.800204
     3  C   -0.141284  -0.297412
     4  O   -0.085968   0.064624
     5  C    0.702564  -0.929325
     6  O   -0.087929   0.019330
     7  C   -0.010757  -0.244102
     8  C   -0.162634  -0.138267
     9  C    0.668443  -0.987656
    10  O   -0.252850  -0.001336
    11  H   -0.126791   0.291774
    12  H   -0.419671   0.561570
    13  H   -0.195940   0.322443
    14  H    0.517833  -0.351179
    15  H   -0.075379   0.216621
    16  H    0.013834   0.142913
    17  H   -0.024242   0.177516
    18  H   -0.258739   0.394031
    19  H   -0.394092   0.539151
    20  H    0.083869   0.094708
    21  H   -0.190424   0.354469
    22  H    0.018650   0.132395
    23  H   -0.018806   0.166534
    24  H   -0.557307   0.716234
    25  H    0.069506   0.085108
    26  H   -0.316835   0.580915
 Sum of Mulliken charges =  -1.00000   1.00000

 Dipole moment (field-independent basis, Debye):
    X=             -0.0588    Y=              1.4854    Z=              3.8521  Tot=              4.1290
 Quadrupole moment (field-independent basis, Debye-Ang):
   XX=           -114.8870   YY=           -107.8527   ZZ=           -101.2805
   XY=             -1.2858   XZ=             -4.3580   YZ=             -2.1744

 Summary of Natural Population Analysis:

                                       Natural Population
                Natural  -----------------------------------------------
    Atom  No    Charge         Core      Valence    Rydberg      Total
 -----------------------------------------------------------------------
      C    1   -0.28373      0.99966     2.27883    0.00523     3.28373
      C    2   -0.21788      0.99960     2.20909    0.00919     3.21788
      C    3    0.22628      0.99955     1.75516    0.01901     2.77372
      O    4   -0.30637      0.99988     3.29648    0.01002     4.30637
      C    5   -0.10162      0.99960     2.09208    0.00994     3.10162
      O    6   -0.30929      0.99988     3.29988    0.00953     4.30929
      C    7   -0.01188      0.99954     2.00067    0.01167     3.01188
      C    8   -0.21190      0.99962     2.20305    0.00923     3.21190
      C    9   -0.01886      0.99959     2.00675    0.01253     3.01886
      O   10   -0.37796      0.99990     3.37111    0.00695     4.37796
      H   11    0.10508      0.00000     0.39332    0.00160     0.39492
      H   12    0.09863      0.00000     0.40028    0.00109     0.40137
      H   13    0.09374      0.00000     0.40503    0.00123     0.40626
      H   14    0.11146      0.00000     0.38607    0.00248     0.38854
      H   15    0.09724      0.00000     0.40170    0.00106     0.40276
      H   16    0.07273      0.00000     0.42537    0.00190     0.42727
      H   17    0.08538      0.00000     0.41301    0.00161     0.41462
      H   18    0.07868      0.00000     0.41979    0.00153     0.42132
      H   19    0.09111      0.00000     0.40759    0.00130     0.40889
      H   20    0.09012      0.00000     0.40787    0.00201     0.40988
      H   21    0.08646      0.00000     0.41228    0.00126     0.41354
      H   22    0.09824      0.00000     0.40056    0.00119     0.40176
      H   23    0.10132      0.00000     0.39733    0.00135     0.39868
      H   24    0.07613      0.00000     0.42167    0.00220     0.42387
      H   25    0.09208      0.00000     0.40531    0.00262     0.40792
      H   26    0.23480      0.00000     0.25817    0.00703     0.26520
 =======================================================================
   * Total *    0.00000      9.99682    30.86845    0.13473    41.00000

 Normal termination of Gaussian 16 at Tue Dec  8 12:40:05 2020.
