 Gaussian 16, Revision A.03,

 -----------------------------------------------------------
 # opt freq B3LYP/6-31G(d) empiricaldispersion=gd3bj scf=xqc
 -----------------------------------------------------------

 -------------------------------
 CID_115635055_JID_1334_neutraal
 -------------------------------
 Symbolic Z-matrix:
 Charge =  0 Multiplicity = 1

 SCF Done:  E(RB3LYP) =  -476.917732438     A.U. after   14 cycles
 SCF Done:  E(RB3LYP) =  -476.922332047     A.U. after   12 cycles
 SCF Done:  E(RB3LYP) =  -476.922922796     A.U. after   11 cycles
 SCF Done:  E(RB3LYP) =  -476.923092547     A.U. after   11 cycles
 SCF Done:  E(RB3LYP) =  -476.923225955     A.U. after   10 cycles
 SCF Done:  E(RB3LYP) =  -476.923271896     A.U. after   10 cycles
 SCF Done:  E(RB3LYP) =  -476.923287250     A.U. after   10 cycles
 SCF Done:  E(RB3LYP) =  -476.923295700     A.U. after   10 cycles
 SCF Done:  E(RB3LYP) =  -476.923303794     A.U. after    9 cycles
 SCF Done:  E(RB3LYP) =  -476.923310137     A.U. after   10 cycles
 SCF Done:  E(RB3LYP) =  -476.923313076     A.U. after    9 cycles
 SCF Done:  E(RB3LYP) =  -476.923313834     A.U. after    8 cycles
 SCF Done:  E(RB3LYP) =  -476.923313960     A.U. after    7 cycles
 SCF Done:  E(RB3LYP) =  -476.923314004     A.U. after    7 cycles
 Optimization completed.
    -- Stationary point found.

 1\1\GINC-NODE315\FOpt\RB3LYP\6-31G(d)\C8H13N3\VSC10255\08-Dec-2020\0\\
 # opt freq B3LYP/6-31G(d) empiricaldispersion=gd3bj scf=xqc\\CID_11563
 5055_JID_1334_neutraal\\0,1\C,1.1268704601,0.0719997367,0.1002177556\C
 ,0.4582135003,-1.0286746668,0.8996227803\C,-0.7703973455,-1.7074538655
 ,0.3065577984\C,0.555860778,-2.4347463659,0.3794049871\N,0.5984604548,
 -0.8610743129,2.3333863669\C,-0.1292864275,0.271533741,2.932482453\C,-
 1.6243341988,0.2550764985,2.8222310449\C,-2.6094951621,-0.1709318359,3
 .6850681905\N,-3.8604487295,-0.0554853935,3.1159855682\C,-3.6457273538

 Normal termination of Gaussian 16 at Tue Dec  8 19:43:19 2020.

 --------------------------------------------------------------------
 #N Geom=AllCheck Guess=TCheck SCRF=Check GenChk RB3LYP/6-31G(d) Freq
 --------------------------------------------------------------------

 Structure from the checkpoint file:  "JID_1334.chk"
 -------------------------------
 CID_115635055_JID_1334_neutraal
 -------------------------------
 Charge =  0 Multiplicity = 1

 SCF Done:  E(RB3LYP) =  -476.923314004     A.U. after    1 cycles

  Exact polarizability: 109.001  -4.908  91.998  -6.794  -7.660  82.791
 Approx polarizability: 149.966 -12.286 141.907 -16.382 -16.139 130.700

                      1                      2                      3
                      A                      A                      A
 Frequencies --     26.8228                51.3246                99.2386
 Red. masses --      4.2935                 3.0409                 3.9687
 Frc consts  --      0.0018                 0.0047                 0.0230
 IR Inten    --      5.4572                 1.4314                 1.4663

                      4                      5                      6
                      A                      A                      A
 Frequencies --    153.0640               214.7286               228.2921
 Red. masses --      2.8355                 3.1645                 1.2783
 Frc consts  --      0.0391                 0.0860                 0.0393
 IR Inten    --      3.4721                 4.3743                 1.5516

                      7                      8                      9
                      A                      A                      A
 Frequencies --    311.6274               338.8388               357.6288
 Red. masses --      2.1176                 2.0711                 2.4832
 Frc consts  --      0.1212                 0.1401                 0.1871
 IR Inten    --      0.1564                 1.0082                 1.6062

                     10                     11                     12
                      A                      A                      A
 Frequencies --    395.2024               415.7924               505.0960
 Red. masses --      2.8074                 2.3206                 1.5182
 Frc consts  --      0.2583                 0.2364                 0.2282
 IR Inten    --      0.6894                12.7067                95.4529

                     13                     14                     15
                      A                      A                      A
 Frequencies --    551.8383               637.3124               681.1821
 Red. masses --      2.4666                 3.2984                 3.5927
 Frc consts  --      0.4426                 0.7893                 0.9822
 IR Inten    --      4.2867                 7.5386                 7.4088

                     16                     17                     18
                      A                      A                      A
 Frequencies --    684.1776               728.1210               786.1745
 Red. masses --      2.8041                 2.0883                 1.4744
 Frc consts  --      0.7734                 0.6523                 0.5369
 IR Inten    --     24.2180                31.7811                36.6918

                     19                     20                     21
                      A                      A                      A
 Frequencies --    792.8119               799.0308               843.8813
 Red. masses --      1.0446                 1.9506                 1.4821
 Frc consts  --      0.3869                 0.7337                 0.6219
 IR Inten    --      1.7398                53.2289                14.6130

                     22                     23                     24
                      A                      A                      A
 Frequencies --    849.2047               907.1065               939.9711
 Red. masses --      2.1888                 1.7627                 5.7373
 Frc consts  --      0.9300                 0.8546                 2.9867
 IR Inten    --      2.8777                 3.8052                13.7194

                     25                     26                     27
                      A                      A                      A
 Frequencies --    953.0410               957.8164              1005.2931
 Red. masses --      1.8846                 1.4435                 1.8689
 Frc consts  --      1.0085                 0.7803                 1.1128
 IR Inten    --      9.4136                16.2660                 4.8717

                     28                     29                     30
                      A                      A                      A
 Frequencies --   1029.8333              1051.1318              1070.2634
 Red. masses --      2.6467                 1.3846                 1.8413
 Frc consts  --      1.6538                 0.9014                 1.2427
 IR Inten    --     16.9179                 4.9868                 0.7055

                     31                     32                     33
                      A                      A                      A
 Frequencies --   1085.4477              1102.2976              1124.8243
 Red. masses --      1.5595                 3.9590                 1.5756
 Frc consts  --      1.0826                 2.8342                 1.1745
 IR Inten    --      2.2090                21.2170                18.8945

                     34                     35                     36
                      A                      A                      A
 Frequencies --   1134.7847              1154.5300              1201.1339
 Red. masses --      1.7296                 2.1816                 1.3041
 Frc consts  --      1.3123                 1.7133                 1.1085
 IR Inten    --      4.4196                14.9188                 0.6071

                     37                     38                     39
                      A                      A                      A
 Frequencies --   1230.5980              1274.5767              1293.8430
 Red. masses --      1.5268                 2.4560                 1.4276
 Frc consts  --      1.3623                 2.3508                 1.4081
 IR Inten    --     19.3054                 4.8746                 0.9376

                     40                     41                     42
                      A                      A                      A
 Frequencies --   1326.5409              1358.8800              1392.9572
 Red. masses --      2.4602                 2.1624                 1.3866
 Frc consts  --      2.5507                 2.3526                 1.5852
 IR Inten    --     35.5012                10.5213                10.0369

                     43                     44                     45
                      A                      A                      A
 Frequencies --   1399.9992              1440.9118              1446.8850
 Red. masses --      2.9684                 1.6872                 1.9488
 Frc consts  --      3.4279                 2.0639                 2.4037
 IR Inten    --     19.9356                21.9698                10.5974

                     46                     47                     48
                      A                      A                      A
 Frequencies --   1489.6354              1499.6526              1512.5622
 Red. masses --      1.0928                 1.0896                 3.4401
 Frc consts  --      1.4287                 1.4437                 4.6371
 IR Inten    --      0.9294                 6.4490                17.1329

                     49                     50                     51
                      A                      A                      A
 Frequencies --   1518.6433              1525.2181              1529.0786
 Red. masses --      1.0746                 1.1660                 1.1793
 Frc consts  --      1.4601                 1.5981                 1.6246
 IR Inten    --      3.3523                13.9091                 1.9889

                     52                     53                     54
                      A                      A                      A
 Frequencies --   1546.6620              1618.8627              3038.2774
 Red. masses --      1.3117                 4.2361                 1.0430
 Frc consts  --      1.8488                 6.5409                 5.6725
 IR Inten    --      6.3541                 5.8565                25.1929

                     55                     56                     57
                      A                      A                      A
 Frequencies --   3062.6640              3099.2380              3106.7771
 Red. masses --      1.0608                 1.0935                 1.1024
 Frc consts  --      5.8626                 6.1884                 6.2690
 IR Inten    --     46.3619                41.5996                14.9924

                     58                     59                     60
                      A                      A                      A
 Frequencies --   3131.0066              3137.0208              3141.1529
 Red. masses --      1.1013                 1.0530                 1.0612
 Frc consts  --      6.3608                 6.1052                 6.1693
 IR Inten    --     13.0659                23.5513                11.4703

                     61                     62                     63
                      A                      A                      A
 Frequencies --   3214.5553              3230.1002              3251.3067
 Red. masses --      1.1180                 1.1146                 1.0959
 Frc consts  --      6.8065                 6.8518                 6.8254
 IR Inten    --      2.2894                19.3209                 9.7430

                     64                     65                     66
                      A                      A                      A
 Frequencies --   3265.0872              3500.6287              3653.2640
 Red. masses --      1.0973                 1.0741                 1.0808
 Frc consts  --      6.8925                 7.7549                 8.4986
 IR Inten    --      2.6871                 0.1461                33.5366

 - Thermochemistry -
 -------------------
 Temperature   298.150 Kelvin.  Pressure   1.00000 Atm.
 Atom     1 has atomic number  6 and mass  12.00000

 Molecular mass:   151.11095 amu.
 Principal axes and moments of inertia in atomic units:
                           1         2         3
     Eigenvalues --   830.965322481.346902658.71753
           X            0.99993   0.01050  -0.00598
           Y           -0.01067   0.99951  -0.02945
           Z            0.00567   0.02951   0.99955
 This molecule is an asymmetric top.
 Rotational symmetry number  1.
 Warning -- assumption of classical behavior for rotation
           may cause significant error
 Rotational temperatures (Kelvin)      0.10423     0.03491     0.03258
 Rotational constants (GHZ):           2.17186     0.72732     0.67880
 Zero-point vibrational energy     546726.0 (Joules/Mol)
                                  130.67065 (Kcal/Mol)
 Warning -- explicit consideration of  13 degrees of freedom as
           vibrations may cause significant error
 Vibrational temperatures:     38.59    73.84   142.78   220.22   308.95
          (Kelvin)            328.46   448.36   487.51   514.55   568.61
                              598.23   726.72   793.97   916.95   980.07
                              984.38  1047.60  1131.13  1140.68  1149.63
                             1214.16  1221.82  1305.12  1352.41  1371.21
                             1378.08  1446.39  1481.70  1512.34  1539.87
                             1561.72  1585.96  1618.37  1632.70  1661.11
                             1728.16  1770.56  1833.83  1861.55  1908.60
                             1955.13  2004.15  2014.29  2073.15  2081.74
                             2143.25  2157.67  2176.24  2184.99  2194.45
                             2200.00  2225.30  2329.18  4371.40  4406.49
                             4459.11  4469.96  4504.82  4513.47  4519.42
                             4625.03  4647.39  4677.91  4697.73  5036.62
                             5256.23

 Zero-point correction=                           0.208237 (Hartree/Particle)
 Thermal correction to Energy=                    0.218787
 Thermal correction to Enthalpy=                  0.219731
 Thermal correction to Gibbs Free Energy=         0.171102
 Sum of electronic and zero-point Energies=           -476.715077
 Sum of electronic and thermal Energies=              -476.704527
 Sum of electronic and thermal Enthalpies=            -476.703583
 Sum of electronic and thermal Free Energies=         -476.752212

                     E (Thermal)             CV                S
                      KCal/Mol        Cal/Mol-Kelvin    Cal/Mol-Kelvin
 Total                  137.291             40.448            102.349
 Electronic               0.000              0.000              0.000
 Translational            0.889              2.981             40.949
 Rotational               0.889              2.981             30.084
 Vibrational            135.514             34.487             31.316
 Vibration     1          0.593              1.984              6.052
 Vibration     2          0.596              1.977              4.766
 Vibration     3          0.604              1.950              3.469
 Vibration     4          0.619              1.899              2.634
 Vibration     5          0.645              1.819              2.003
 Vibration     6          0.651              1.798              1.892
 Vibration     7          0.700              1.652              1.354
 Vibration     8          0.719              1.598              1.218
 Vibration     9          0.733              1.560              1.132
 Vibration    10          0.762              1.480              0.980
 Vibration    11          0.779              1.436              0.906
 Vibration    12          0.860              1.239              0.646
 Vibration    13          0.907              1.136              0.540

 Optimization completed.
    -- Stationary point found.

 1\1\GINC-NODE315\Freq\RB3LYP\6-31G(d)\C8H13N3\VSC10255\08-Dec-2020\0\\
 #N Geom=AllCheck Guess=TCheck SCRF=Check GenChk RB3LYP/6-31G(d) Freq\\
 CID_115635055_JID_1334_neutraal\\0,1\C,1.1268704601,0.0719997367,0.100
 2177556\C,0.4582135003,-1.0286746668,0.8996227803\C,-0.7703973455,-1.7
 074538655,0.3065577984\C,0.555860778,-2.4347463659,0.3794049871\N,0.59
 84604548,-0.8610743129,2.3333863669\C,-0.1292864275,0.271533741,2.9324
 82453\C,-1.6243341988,0.2550764985,2.8222310449\C,-2.6094951621,-0.170
 9318359,3.6850681905\N,-3.8604487295,-0.0554853935,3.1159855682\C,-3.6

 Normal termination of Gaussian 16 at Tue Dec  8 19:48:07 2020.

 ----------------------------------------------------------------------
 # B3LYP/6-311++G(d,p) empiricaldispersion=gd3bj scf=xqc pop=npa geom=c
 heck
 ----------------------------------------------------------------------

 ---------------------------------------
 CID_115635055_JID_1334_Energie_neutraal
 ---------------------------------------
 Structure from the checkpoint file:  "JID_1334.chk"
 Charge =  0 Multiplicity = 1

 SCF Done:  E(RB3LYP) =  -477.060511659     A.U. after   14 cycles
 Normal termination of Gaussian 16 at Tue Dec  8 19:49:59 2020.

 ----------------------------------------------------------------------
 # B3LYP/6-311++G(d,p) empiricaldispersion=gd3bj scf=xqc pop=npa geom=c
 heck
 ----------------------------------------------------------------------

 -------------------------------------
 CID_115635055_JID_1334_Energie_kation
 -------------------------------------
 Structure from the checkpoint file:  "JID_1334.chk"
 Charge =  1 Multiplicity = 2

 SCF Done:  E(UB3LYP) =  -476.769355533     A.U. after   20 cycles
 Normal termination of Gaussian 16 at Tue Dec  8 19:53:39 2020.
 Gaussian 16:  ES64L-G16RevA.03 25-Dec-2016

 ------------------------------------
 CID_115635055_JID_1334_Energie_anion
 ------------------------------------
 Structure from the checkpoint file:  "JID_1334.chk"
 Charge = -1 Multiplicity = 2

                         Standard orientation:
 ---------------------------------------------------------------------
 Center     Atomic      Atomic             Coordinates (Angstroms)
 Number     Number       Type             X           Y           Z
 ---------------------------------------------------------------------
      1          6           0       -2.420014    0.067481    1.336375
      2          6           0       -1.817847   -0.008478   -0.052603
      3          6           0       -1.302789   -1.355902   -0.543637
      4          6           0       -2.576371   -0.762057   -1.108046
      5          7           0       -1.187561    1.228616   -0.471859
      6          6           0        0.043302    1.609165    0.243327
      7          6           0        1.211731    0.676491    0.131577
      8          6           0        2.308939    0.666051   -0.700611
      9          7           0        3.094797   -0.446079   -0.482299
     10          6           0        2.485215   -1.113647    0.474555
     11          7           0        1.349857   -0.474607    0.889504
     12          1           0       -1.654605    0.192981    2.113662
     13          1           0       -2.972414   -0.848201    1.569187
     14          1           0       -3.105879    0.918409    1.405722
     15          1           0       -0.421313   -1.358515   -1.177402
     16          1           0       -1.386159   -2.223695    0.107330
     17          1           0       -3.527830   -1.209920   -0.834583
     18          1           0       -2.550833   -0.376549   -2.124898
     19          1           0       -0.977679    1.177140   -1.466460
     20          1           0        0.347216    2.585626   -0.147259
     21          1           0       -0.215955    1.769683    1.296277
     22          1           0        2.580346    1.408332   -1.440136
     23          1           0        2.818026   -2.046470    0.909589
     24          1           0        0.674434   -0.818953    1.555922
 ---------------------------------------------------------------------

 SCF Done:  E(UB3LYP) =  -477.048871193     A.U. after   31 cycles

 The electronic state is 2-A.
 Alpha  occ. eigenvalues --  -14.25795 -14.20362 -14.19129 -10.11875 -10.10729
 Alpha  occ. eigenvalues --  -10.10476 -10.09807 -10.07876 -10.06829 -10.06237
 Alpha  occ. eigenvalues --  -10.05327  -0.90994  -0.82373  -0.76649  -0.73387
 Alpha  occ. eigenvalues --   -0.65388  -0.60849  -0.57421  -0.50973  -0.49991
 Alpha  occ. eigenvalues --   -0.48803  -0.45721  -0.43619  -0.40088  -0.38041
 Alpha  occ. eigenvalues --   -0.34924  -0.34505  -0.33286  -0.31838  -0.30732
 Alpha  occ. eigenvalues --   -0.30295  -0.29523  -0.28272  -0.26312  -0.25640
 Alpha  occ. eigenvalues --   -0.21171  -0.19071  -0.17865  -0.17318  -0.13574
 Alpha  occ. eigenvalues --   -0.11573   0.04610
 Alpha virt. eigenvalues --    0.07144   0.07826   0.08238   0.09655   0.10099
 Alpha virt. eigenvalues --    0.10594   0.10695   0.11159   0.11662   0.12523
 Alpha virt. eigenvalues --    0.13288   0.13715   0.14079   0.14942   0.15538

  Beta  occ. eigenvalues --  -14.25750 -14.20351 -14.19132 -10.11853 -10.10728
  Beta  occ. eigenvalues --  -10.10456 -10.09806 -10.07860 -10.06811 -10.06210
  Beta  occ. eigenvalues --  -10.05268  -0.90959  -0.82354  -0.76604  -0.73366
  Beta  occ. eigenvalues --   -0.65354  -0.60770  -0.57371  -0.50886  -0.49915
  Beta  occ. eigenvalues --   -0.48767  -0.45657  -0.43557  -0.40052  -0.37995
  Beta  occ. eigenvalues --   -0.34875  -0.34457  -0.33247  -0.31794  -0.30707
  Beta  occ. eigenvalues --   -0.30245  -0.29484  -0.28218  -0.26281  -0.25600
  Beta  occ. eigenvalues --   -0.21140  -0.19041  -0.17832  -0.17309  -0.13548
  Beta  occ. eigenvalues --   -0.11548
  Beta virt. eigenvalues --    0.07045   0.08228   0.08501   0.08921   0.10175
  Beta virt. eigenvalues --    0.10722   0.10939   0.11014   0.11630   0.11871
  Beta virt. eigenvalues --    0.13129   0.13660   0.14109   0.14366   0.15178

 Mulliken charges and spin densities:
               1          2
     1  C    2.793119  -3.269594
     2  C   -3.809389   3.575958
     3  C    0.838301  -1.210465
     4  C    0.867143  -1.180292
     5  N    0.164797   0.035550
     6  C    0.476842  -1.608347
     7  C    0.002854   0.670047
     8  C    0.137227  -0.496419
     9  N   -0.148654  -0.005149
    10  C    0.163029  -0.179991
    11  N   -0.015068  -0.073898
    12  H   -0.347047   0.471698
    13  H   -0.538655   0.685598
    14  H   -0.189105   0.355354
    15  H    0.364153  -0.205726
    16  H   -0.457120   0.644476
    17  H   -0.086153   0.236748
    18  H   -0.047458   0.158219
    19  H   -0.007452   0.226505
    20  H   -0.167536   0.351391
    21  H   -0.048298   0.236730
    22  H   -0.052726   0.174878
    23  H   -0.559164   0.721905
    24  H   -0.333640   0.684825
 Sum of Mulliken charges =  -1.00000   1.00000

 Dipole moment (field-independent basis, Debye):
    X=              0.7577    Y=              3.1156    Z=             -4.4330  Tot=              5.4711
 Quadrupole moment (field-independent basis, Debye-Ang):
   XX=           -124.1194   YY=           -105.5196   ZZ=           -105.9668
   XY=              0.8666   XZ=              8.1940   YZ=              5.7782

 Summary of Natural Population Analysis:

                                       Natural Population
                Natural  -----------------------------------------------
    Atom  No    Charge         Core      Valence    Rydberg      Total
 -----------------------------------------------------------------------
      C    1   -0.28512      0.99961     2.27868    0.00683     3.28512
      C    2    0.04739      0.99955     1.93792    0.01514     2.95261
      C    3   -0.20987      0.99959     2.20015    0.01013     3.20987
      C    4   -0.19578      0.99958     2.18795    0.00825     3.19578
      N    5   -0.32978      0.99972     2.81799    0.01207     3.82978
      C    6   -0.10536      0.99957     2.09424    0.01155     3.10536
      C    7    0.04163      0.99952     1.94479    0.01406     2.95837
      C    8   -0.03463      0.99950     2.02244    0.01269     3.03463
      N    9   -0.26176      0.99973     2.75145    0.01057     3.76176
      C   10    0.10223      0.99965     1.87948    0.01863     2.89777
      N   11   -0.27243      0.99966     2.76128    0.01149     3.77243
      H   12    0.09990      0.00000     0.39729    0.00280     0.40010
      H   13    0.10503      0.00000     0.39267    0.00230     0.39497
      H   14    0.10211      0.00000     0.39636    0.00153     0.39789
      H   15    0.10540      0.00000     0.39324    0.00137     0.39460
      H   16    0.10674      0.00000     0.39126    0.00200     0.39326
      H   17    0.10354      0.00000     0.39538    0.00108     0.39646
      H   18    0.09843      0.00000     0.40055    0.00102     0.40157
      H   19    0.17230      0.00000     0.32440    0.00330     0.32770
      H   20    0.10281      0.00000     0.39618    0.00101     0.39719
      H   21    0.10243      0.00000     0.39600    0.00156     0.39757
      H   22    0.09473      0.00000     0.40410    0.00117     0.40527
      H   23    0.09449      0.00000     0.40392    0.00160     0.40551
      H   24    0.21557      0.00000     0.27309    0.01134     0.28443
 =======================================================================
   * Total *    0.00000     10.99568    29.84082    0.16350    41.00000

 Normal termination of Gaussian 16 at Tue Dec  8 19:58:25 2020.
